Title
82254
    1SAPS     N    1   3.693   4.545  10.857 -0.0619  0.0648 -0.3500
    1SAPS   HN1    2   3.717   4.645  10.841  0.1164 -0.0959 -1.1576
    1SAPS   HN2    3   3.756   4.481  10.805 -0.5287 -0.7399  0.0634
    1SAPS   HN3    4   3.593   4.524  10.839 -0.0036 -0.1437 -0.4317
    1SAPS   C12    5   3.710   4.510  11.007  0.2189 -0.1884 -0.6193
    1SAPS  H12A    6   3.815   4.485  11.016  0.3722  0.4307 -0.6816
    1SAPS   C13    7   3.676   4.625  11.101 -0.7035  0.3484  0.6277
    1SAPS  O13A    8   3.655   4.737  11.048 -0.2039 -0.0171  0.3394
    1SAPS  O13B    9   3.665   4.600  11.223  0.5861  0.2688 -0.4838
    1SAPS   C11   10   3.625   4.393  11.051 -0.6038  0.1581  0.2886
    1SAPS  H11A   11   3.522   4.413  11.090  0.1080  0.1800  2.2711
    1SAPS  H11B   12   3.670   4.351  11.144  2.7744 -1.2746 -1.8312
    1SAPS     P   13   3.645   4.160  10.945  0.1231  0.0602  0.2507
    1SAPS   O13   14   3.787   4.147  10.915  0.1989 -0.3492 -0.1744
    1SAPS   O14   15   3.592   4.101  11.070 -0.2945  0.2977  0.3531
    1SAPS   O12   16   3.598   4.303  10.946  0.2184  0.3822 -0.5293
    1SAPS   O11   17   3.564   4.110  10.815  0.1876  0.1455  0.3245
    1SAPS    C1   18   3.487   4.190  10.732  0.3916 -0.0508  0.6979
    1SAPS    HA   19   3.380   4.174  10.756 -0.1682 -0.1741 -1.7183
    1SAPS    HB   20   3.512   4.298  10.735  1.0612 -0.2126  1.6746
    1SAPS    C2   21   3.505   4.135  10.590 -0.0285 -0.2312  0.1883
    1SAPS    HS   22   3.439   4.201  10.530  0.6895 -0.2537 -0.6459
    1SAPS   O21   23   3.445   4.002  10.593 -0.7186  0.4594  0.7035
    1SAPS   C21   24   3.383   3.969  10.478  0.1447 -1.0956 -0.5137
    1SAPS   O22   25   3.352   4.043  10.389  0.1510  0.9073  0.2408
    1SAPS   C22   26   3.382   3.823  10.462  0.2248  0.2526 -0.0303
    1SAPS   H2R   27   3.400   3.777  10.561 -2.2222  0.3343  0.5088
    1SAPS   H2S   28   3.284   3.780  10.435  0.1231  0.3062  0.2475
    1SAPS    C3   29   3.650   4.146  10.549  0.1480 -0.0133  0.1312
    1SAPS    HX   30   3.699   4.071  10.615 -2.4672 -0.0713  2.1717
    1SAPS    HY   31   3.684   4.247  10.579 -0.1865 -0.2528  1.3542
    1SAPS   O31   32   3.699   4.103  10.415 -0.3568  0.6820  0.1167
    1SAPS   C31   33   3.685   4.193  10.315  0.9553  0.2452  0.1028
    1SAPS   O32   34   3.625   4.298  10.323  0.1472 -0.0110  0.0672
    1SAPS   C32   35   3.749   4.123  10.199 -0.7726 -0.1129  0.3917
    1SAPS   H2X   36   3.692   4.029  10.182  0.4869 -0.6000 -1.5602
    1SAPS   H2Y   37   3.852   4.095  10.227 -1.2077 -0.5740  1.5631
    1SAPS   C23   38   3.504   3.786  10.372  0.1043 -0.2727  0.2901
    1SAPS   H3R   39   3.508   3.675  10.375 -0.0713 -0.3187 -0.7509
    1SAPS   H3S   40   3.593   3.822  10.429  0.4297 -3.2372  1.8390
    1SAPS   C24   41   3.503   3.827  10.218 -0.1367  0.6717 -0.3701
    1SAPS   H4R   42   3.501   3.938  10.220 -1.8123  0.6788  1.8367
    1SAPS   H4S   43   3.397   3.807  10.189  0.0219  1.1860 -1.3449
    1SAPS   C25   44   3.618   3.760  10.141 -0.1656  0.1948 -0.4909
    1SAPS   H5R   45   3.720   3.784  10.173  0.4732  0.4903 -2.6320
    1SAPS   C26   46   3.607   3.677  10.035  0.1892 -0.3341 -0.0586
    1SAPS   H6R   47   3.692   3.613  10.012 -0.0078 -0.2860 -0.9430
    1SAPS   C27   48   3.474   3.641   9.971  0.4156 -0.1671  0.0123
    1SAPS   H7R   49   3.390   3.654  10.043  1.2076 -1.9675  1.3493
    1SAPS   H7S   50   3.481   3.535   9.937  0.6935 -0.0351 -0.3464
    1SAPS   C28   51   3.442   3.728   9.859  0.4814 -0.9823 -0.0538
    1SAPS   H8R   52   3.461   3.832   9.891  2.5099 -1.3532  0.0885
    1SAPS   C29   53   3.415   3.698   9.727  0.7565  0.3803  0.2330
    1SAPS   H9R   54   3.420   3.781   9.655  2.1498  1.1836  1.2004
    1SAPS  C210   55   3.400   3.566   9.656  0.1343  0.1529 -0.8078
    1SAPS  H10R   56   3.298   3.560   9.613 -1.4204  2.2302  2.2275
    1SAPS  H10S   57   3.396   3.481   9.728  0.9509 -1.3821 -2.5065
    1SAPS  C211   58   3.531   3.544   9.572  0.6056  0.0955 -0.3583
    1SAPS  H11R   59   3.623   3.585   9.616  1.7295 -0.2614 -2.2394
    1SAPS  C212   60   3.539   3.486   9.448 -0.6794 -0.8432  0.5609
    1SAPS  H12R   61   3.639   3.484   9.402 -1.8853  1.1637 -2.4704
    1SAPS  C213   62   3.432   3.437   9.360 -0.0108 -0.0114  1.0175
    1SAPS  H13R   63   3.396   3.529   9.309 -1.9988 -0.5708  1.3019
    1SAPS  H13S   64   3.354   3.392   9.425  1.5348 -1.4412  1.9731
    1SAPS  C214   65   3.482   3.338   9.253 -0.1087 -0.3568  0.2754
    1SAPS  H14R   66   3.559   3.266   9.284  0.4559  0.3410  0.5161
    1SAPS  C215   67   3.426   3.330   9.132  0.2265 -0.0377 -0.4239
    1SAPS  H15R   68   3.473   3.263   9.059  1.5046  0.8723 -0.4763
    1SAPS  C216   69   3.315   3.412   9.066 -0.0908  0.4886 -0.0011
    1SAPS  H16R   70   3.356   3.483   8.991 -1.1174  0.9431 -0.1572
    1SAPS  H16S   71   3.263   3.475   9.142 -0.7720 -1.2940  1.0711
    1SAPS  C217   72   3.205   3.329   8.998 -0.3406 -0.6229 -0.3796
    1SAPS  H17R   73   3.128   3.398   8.957 -2.7201 -1.8570  1.7578
    1SAPS  H17S   74   3.155   3.266   9.075 -1.9476 -4.4225 -4.0858
    1SAPS  C218   75   3.232   3.231   8.878 -0.5206  0.1250 -0.6570
    1SAPS  H18R   76   3.334   3.187   8.884 -0.9342 -0.6731  1.2256
    1SAPS  H18S   77   3.233   3.281   8.779  2.0836 -0.5377 -1.0471
    1SAPS  C219   78   3.134   3.123   8.870 -0.0530  0.1497 -0.4570
    1SAPS  H19R   79   3.160   3.074   8.967 -0.3452 -0.4786 -0.6898
    1SAPS  H19S   80   3.151   3.053   8.785  0.2970 -0.8612  0.4089
    1SAPS  C220   81   2.987   3.146   8.866  0.2489 -0.3521  0.2320
    1SAPS  H20R   82   2.935   3.049   8.880 -1.8002  0.1058 -3.2460
    1SAPS  H20S   83   2.955   3.183   8.767 -0.3988  1.9564  1.2369
    1SAPS  H20T   84   2.957   3.224   8.939  1.7295 -0.9902  1.6100
    1SAPS   C33   85   3.736   4.198  10.064  0.4565  0.8580  0.6040
    1SAPS   H3X   86   3.808   4.282  10.052 -0.7680  1.9821  0.8694
    1SAPS   H3Y   87   3.634   4.241  10.051 -0.1912 -0.8762 -0.3450
    1SAPS   C34   88   3.753   4.095   9.950  0.0280  0.8484 -0.4575
    1SAPS   H4X   89   3.679   4.013   9.960  3.2418 -2.1980  0.3706
    1SAPS   H4Y   90   3.839   4.034   9.984 -1.7175 -0.1327  2.6036
    1SAPS   C35   91   3.752   4.156   9.814 -0.3418  0.7444  0.1025
    1SAPS   H5X   92   3.824   4.241   9.819  0.5110 -0.0154  3.2361
    1SAPS   H5Y   93   3.653   4.201   9.794 -0.2014  0.3298 -1.6465
    1SAPS   C36   94   3.787   4.065   9.702 -0.2378 -0.6488  0.7954
    1SAPS   H6X   95   3.883   4.014   9.726  0.6788  0.9204  0.5791
    1SAPS   H6Y   96   3.816   4.119   9.609 -0.9762 -1.8406 -0.1622
    1SAPS   C37   97   3.670   3.965   9.668  0.4325 -0.1299  0.0833
    1SAPS   H7X   98   3.583   4.034   9.662  1.0320  0.7985  1.6699
    1SAPS   H7Y   99   3.668   3.888   9.748  1.4406 -1.4304 -1.0859
    1SAPS   C38  100   3.691   3.879   9.543  0.0143 -0.5200  0.1946
    1SAPS   H8X  101   3.613   3.801   9.558  1.0895 -1.4194  1.3456
    1SAPS   H8Y  102   3.791   3.831   9.536  0.6704  1.0163 -2.1724
    1SAPS   C39  103   3.669   3.960   9.415  0.4097 -0.7042  0.0167
    1SAPS   H9X  104   3.741   4.043   9.397  0.8620 -1.4881 -2.0214
    1SAPS   H9Y  105   3.570   4.010   9.426  1.3931  1.0968  1.2293
    1SAPS  C310  106   3.667   3.871   9.291 -0.0059  0.6518  0.7653
    1SAPS  H10X  107   3.601   3.782   9.305  0.7425 -0.7333 -3.3493
    1SAPS  H10Y  108   3.764   3.821   9.276 -0.5730 -0.4765  0.7331
    1SAPS  C311  109   3.600   3.937   9.170  0.3375  0.6349 -0.5837
    1SAPS  H11X  110   3.665   4.020   9.135  2.2223 -0.0890  0.9713
    1SAPS  H11Y  111   3.504   3.987   9.195  0.4896 -0.3133  2.2087
    1SAPS  C312  112   3.559   3.845   9.056  0.5557  0.4530 -0.0909
    1SAPS  H12X  113   3.527   3.910   8.972  0.3170  1.1450  0.5276
    1SAPS  H12Y  114   3.486   3.771   9.095  3.0481 -0.9993  2.2126
    1SAPS  C313  115   3.673   3.762   8.994  0.3964 -0.2166 -0.9042
    1SAPS  H13X  116   3.629   3.692   8.920 -0.6389 -0.0993 -0.4194
    1SAPS  H13Y  117   3.712   3.702   9.079 -2.5246  1.8349  2.1642
    1SAPS  C314  118   3.794   3.847   8.941  0.4069 -0.4177  0.3024
    1SAPS  H14X  119   3.810   3.937   9.004 -1.9877 -1.0066  1.9249
    1SAPS  H14Y  120   3.757   3.893   8.847  1.1408  0.6579  0.5274
    1SAPS  C315  121   3.926   3.766   8.925  0.9372 -0.2930 -0.4013
    1SAPS  H15X  122   3.911   3.668   8.876 -0.4966  0.7244 -2.1313
    1SAPS  H15Y  123   3.946   3.739   9.031 -1.0701  0.1967  0.1375
    1SAPS  C316  124   4.036   3.840   8.857 -0.0987  0.7108  0.1892
    1SAPS  H16X  125   4.050   3.943   8.897  0.8949  0.2296  1.1221
    1SAPS  H16Y  126   4.004   3.861   8.753 -0.2245  1.9626  0.4547
    1SAPS  C317  127   4.167   3.759   8.874  0.1138 -0.0855 -0.1344
    1SAPS  H17X  128   4.142   3.670   8.811 -1.9356 -1.2281  2.1118
    1SAPS  H17Y  129   4.169   3.724   8.980  0.6504  1.0968  0.2643
    1SAPS  C318  130   4.291   3.835   8.827  0.3084 -0.3334 -0.1392
    1SAPS  H18X  131   4.269   3.883   8.728 -1.0847 -0.1552  0.2312
    1SAPS  H18Y  132   4.380   3.770   8.819  0.2141 -0.5133  0.2858
    1SAPS  H18Z  133   4.290   3.919   8.900 -2.8093  0.4396 -0.9106
    2SAPS     N  134   2.469   5.454  10.974  0.3057  0.1181 -0.4394
    2SAPS   HN1  135   2.469   5.351  10.960  1.0076 -0.0098  0.4117
    2SAPS   HN2  136   2.502   5.510  10.893  2.7513 -0.3646  0.1427
    2SAPS   HN3  137   2.542   5.473  11.046  0.5739 -0.9046 -0.4241
    2SAPS   C12  138   2.328   5.468  11.038  0.2729 -0.6704 -0.7613
    2SAPS  H12A  139   2.312   5.389  11.109  1.2654 -0.5634 -0.4090
    2SAPS   C13  140   2.297   5.600  11.114 -0.7683  0.0923  0.1905
    2SAPS  O13A  141   2.394   5.684  11.108  0.5259 -0.4196  0.6814
    2SAPS  O13B  142   2.190   5.617  11.175 -0.0363  0.0777 -0.7744
    2SAPS   C11  143   2.228   5.459  10.919  0.2004 -0.1219 -0.0838
    2SAPS  H11A  144   2.247   5.531  10.837 -0.8200  1.1849  0.8030
    2SAPS  H11B  145   2.126   5.485  10.955  0.2223 -0.1880  0.0287
    2SAPS     P  146   2.121   5.230  10.838 -0.1758  0.3092  0.0752
    2SAPS   O13  147   2.167   5.102  10.888 -0.3853  0.0809 -0.0951
    2SAPS   O14  148   1.993   5.275  10.897 -0.0395  0.3154  0.2879
    2SAPS   O12  149   2.238   5.333  10.856 -0.3425 -0.5132  0.1191
    2SAPS   O11  150   2.102   5.232  10.685  0.5086 -0.1211  0.4248
    2SAPS    C1  151   2.149   5.336  10.599  0.2217  0.3875  0.3854
    2SAPS    HA  152   2.082   5.337  10.510 -0.6787  1.8826  1.0505
    2SAPS    HB  153   2.146   5.441  10.635  3.5552  1.2079 -1.3353
    2SAPS    C2  154   2.292   5.301  10.541  0.4536  0.2594 -0.1514
    2SAPS    HS  155   2.372   5.304  10.618  1.4372  0.2910 -1.1414
    2SAPS   O21  156   2.310   5.404  10.437  0.4517  0.1325  0.6310
    2SAPS   C21  157   2.436   5.448  10.420 -0.3039 -0.3810 -0.3822
    2SAPS   O22  158   2.534   5.407  10.481  0.3348 -0.4085 -0.1399
    2SAPS   C22  159   2.441   5.562  10.322 -0.6272  0.1739 -0.8625
    2SAPS   H2R  160   2.551   5.579  10.313 -0.3185  0.5528  2.3069
    2SAPS   H2S  161   2.409   5.518  10.225  2.6763 -4.2527 -0.3026
    2SAPS    C3  162   2.297   5.152  10.476 -0.2638  0.2088  0.2007
    2SAPS    HX  163   2.262   5.085  10.557 -2.4148  0.4442 -0.4680
    2SAPS    HY  164   2.397   5.109  10.454 -0.8361 -2.6399  2.5804
    2SAPS   O31  165   2.200   5.130  10.372 -0.1009  0.0675 -0.4939
    2SAPS   C31  166   2.235   5.121  10.242  1.0077  0.4359 -0.1382
    2SAPS   O32  167   2.347   5.119  10.197  0.2038 -0.1584  0.5675
    2SAPS   C32  168   2.109   5.122  10.160  0.3711 -0.0710 -0.0733
    2SAPS   H2X  169   2.042   5.205  10.192  2.8249  1.7473  0.6445
    2SAPS   H2Y  170   2.057   5.027  10.187 -0.7506  0.5863  0.1724
    2SAPS   C23  171   2.358   5.676  10.381  0.0334  0.6574  0.2790
    2SAPS   H3R  172   2.398   5.702  10.481  2.0350 -0.1981 -0.2574
    2SAPS   H3S  173   2.250   5.653  10.393 -0.0070  0.4209 -0.4779
    2SAPS   C24  174   2.368   5.797  10.290 -0.0616  0.0698  0.0075
    2SAPS   H4R  175   2.304   5.879  10.329 -0.4516  0.0030 -0.4847
    2SAPS   H4S  176   2.314   5.764  10.199  0.2595 -0.2655 -0.0620
    2SAPS   C25  177   2.506   5.853  10.250  0.3259  0.7543  0.3479
    2SAPS   H5R  178   2.587   5.845  10.324  1.8698 -1.0300 -1.4263
    2SAPS   C26  179   2.532   5.892  10.124 -0.8113 -0.4201 -0.6997
    2SAPS   H6R  180   2.640   5.906  10.107 -0.6939  1.2143  1.1068
    2SAPS   C27  181   2.441   5.891  10.002  1.0388  0.1992  0.9370
    2SAPS   H7R  182   2.333   5.869  10.019  0.8336 -0.7690 -1.2766
    2SAPS   H7S  183   2.461   5.809   9.931 -1.1991  0.3211  0.0671
    2SAPS   C28  184   2.453   6.019   9.925  1.3282 -0.1688  0.2726
    2SAPS   H8R  185   2.397   6.101   9.973  1.1922 -0.6369  0.9338
    2SAPS   C29  186   2.517   6.037   9.809  0.2637  0.5761 -0.3345
    2SAPS   H9R  187   2.519   6.138   9.767 -0.4704  1.3959  1.5011
    2SAPS  C210  188   2.576   5.925   9.734  0.8841 -0.5415  0.0484
    2SAPS  H10R  189   2.489   5.884   9.678  0.9899 -1.5508  0.5892
    2SAPS  H10S  190   2.626   5.855   9.805  1.5771 -0.8910 -0.7620
    2SAPS  C211  191   2.686   5.977   9.646 -1.0265 -0.0623 -0.2904
    2SAPS  H11R  192   2.778   6.004   9.701 -2.9271 -0.5857  3.4891
    2SAPS  C212  193   2.673   6.007   9.517  0.2236 -0.7888  0.0128
    2SAPS  H12R  194   2.758   6.040   9.455 -0.7913  0.7600 -0.6149
    2SAPS  C213  195   2.537   6.009   9.437 -0.0619  0.5999  0.4062
    2SAPS  H13R  196   2.452   6.046   9.498  0.5614 -0.1988  1.8039
    2SAPS  H13S  197   2.517   5.907   9.396 -0.2929  1.6823 -2.3666
    2SAPS  C214  198   2.552   6.109   9.324 -0.4388  0.0528  0.6023
    2SAPS  H14R  199   2.603   6.203   9.349  2.3634 -0.9230 -0.9623
    2SAPS  C215  200   2.537   6.087   9.189  0.0363  0.4033  0.2349
    2SAPS  H15R  201   2.557   6.173   9.125  0.9009  0.6049  0.7646
    2SAPS  C216  202   2.489   5.962   9.119  0.2820  0.6442 -0.5888
    2SAPS  H16R  203   2.391   5.960   9.067 -0.0876 -1.1029  0.0996
    2SAPS  H16S  204   2.474   5.879   9.192  0.6562  0.3403 -0.8525
    2SAPS  C217  205   2.600   5.899   9.030 -0.3555  0.6791  0.3457
    2SAPS  H17R  206   2.586   5.790   9.015  2.4423  0.1854  0.8779
    2SAPS  H17S  207   2.704   5.901   9.069 -0.0766 -1.9572 -0.0930
    2SAPS  C218  208   2.589   5.982   8.900  0.1297  0.3865  0.0884
    2SAPS  H18R  209   2.640   6.078   8.923  0.1971  0.1171  1.1202
    2SAPS  H18S  210   2.486   6.000   8.865 -0.6421  1.1055  2.5267
    2SAPS  C219  211   2.671   5.919   8.783 -0.4141 -0.4990  0.1336
    2SAPS  H19R  212   2.619   5.824   8.756  2.2075 -1.5850 -1.4402
    2SAPS  H19S  213   2.772   5.894   8.822 -0.4685  0.9129  1.2520
    2SAPS  C220  214   2.679   6.005   8.658  0.3463 -0.3357  0.1553
    2SAPS  H20R  215   2.576   6.040   8.634  0.1523 -0.4043  0.8736
    2SAPS  H20S  216   2.725   5.935   8.586 -0.3681 -2.4117  1.6316
    2SAPS  H20T  217   2.752   6.088   8.672  0.3116  0.2497 -2.6034
    2SAPS   C33  218   2.131   5.140  10.009 -0.1167 -0.0205  0.3248
    2SAPS   H3X  219   2.206   5.064   9.977 -0.2641 -0.7251  1.6113
    2SAPS   H3Y  220   2.171   5.242   9.991 -3.3509  1.5249  1.1149
    2SAPS   C34  221   2.001   5.129   9.930  0.3351  0.9498  0.8339
    2SAPS   H4X  222   1.927   5.210   9.952 -1.7984 -0.0324 -2.1284
    2SAPS   H4Y  223   1.945   5.041   9.969 -0.8092  0.6641 -1.3002
    2SAPS   C35  224   2.026   5.112   9.774  0.3305 -0.1053 -0.5301
    2SAPS   H5X  225   2.110   5.175   9.738  1.8160 -0.1959  2.4797
    2SAPS   H5Y  226   1.932   5.132   9.717 -0.3938 -0.6559  0.4238
    2SAPS   C36  227   2.067   4.971   9.754  0.7053 -0.1220  0.5783
    2SAPS   H6X  228   2.000   4.900   9.807  1.3713 -0.3228  1.1755
    2SAPS   H6Y  229   2.169   4.954   9.797  0.0609 -0.0795  2.1850
    2SAPS   C37  230   2.057   4.930   9.603 -0.2023 -0.8963  0.8539
    2SAPS   H7X  231   1.957   4.940   9.556 -0.1332 -3.1623  0.0849
    2SAPS   H7Y  232   2.073   4.820   9.597 -0.1663 -0.8307 -1.4308
    2SAPS   C38  233   2.162   4.999   9.518 -0.7109 -0.1691 -0.4248
    2SAPS   H8X  234   2.265   4.977   9.554  0.0227  0.4027 -2.0680
    2SAPS   H8Y  235   2.154   5.109   9.508  0.0679 -0.3208 -5.2447
    2SAPS   C39  236   2.147   4.955   9.372  0.3187 -0.7277 -0.5703
    2SAPS   H9X  237   2.037   4.946   9.358 -0.1787  2.0088  0.8547
    2SAPS   H9Y  238   2.194   4.857   9.349 -0.2180 -0.5679 -2.4895
    2SAPS  C310  239   2.205   5.058   9.279  0.0378 -0.4180  0.0763
    2SAPS  H10X  240   2.312   5.076   9.299 -0.1396  1.1140 -0.1792
    2SAPS  H10Y  241   2.161   5.158   9.298  2.7221  0.8854 -0.1006
    2SAPS  C311  242   2.200   5.024   9.130  0.5321 -0.1223 -0.0322
    2SAPS  H11X  243   2.097   5.022   9.087  1.4733 -2.5542 -2.5026
    2SAPS  H11Y  244   2.242   4.922   9.117  1.0966 -0.1298  1.6826
    2SAPS  C312  245   2.279   5.128   9.053 -0.4740 -0.3785  0.6244
    2SAPS  H12X  246   2.381   5.114   9.093  0.3734 -0.7587 -1.5106
    2SAPS  H12Y  247   2.247   5.232   9.072  1.7983  0.4987 -0.1090
    2SAPS  C313  248   2.279   5.098   8.900  1.0133  0.3257 -0.4005
    2SAPS  H13X  249   2.178   5.067   8.866  0.6575 -0.3343  1.1480
    2SAPS  H13Y  250   2.337   5.003   8.897 -0.0275 -0.4740  2.1001
    2SAPS  C314  251   2.343   5.207   8.813 -0.3720 -0.3168  0.1110
    2SAPS  H14X  252   2.439   5.239   8.857 -0.2889  0.9223 -0.8947
    2SAPS  H14Y  253   2.284   5.301   8.823  2.4880  1.5915  0.3567
    2SAPS  C315  254   2.338   5.173   8.662  0.3902  0.0583  0.2358
    2SAPS  H15X  255   2.234   5.163   8.624 -0.2324  0.4035  1.7667
    2SAPS  H15Y  256   2.401   5.084   8.643 -1.4264 -1.3416  0.5614
    2SAPS  C316  257   2.406   5.291   8.586 -0.1919  0.4485 -0.1577
    2SAPS  H16X  258   2.495   5.329   8.641 -0.4439  0.9365 -0.0796
    2SAPS  H16Y  259   2.341   5.375   8.554  1.4149  1.2574 -1.4138
    2SAPS  C317  260   2.480   5.238   8.467  0.0142 -0.5387  0.5555
    2SAPS  H17X  261   2.543   5.154   8.504 -0.7019 -1.0549  0.6321
    2SAPS  H17Y  262   2.548   5.311   8.419  0.7105 -0.3842  1.7483
    2SAPS  C318  263   2.385   5.183   8.359  0.3622  0.0401 -0.0223
    2SAPS  H18X  264   2.325   5.267   8.317  0.3952  0.4042  0.6439
    2SAPS  H18Y  265   2.323   5.102   8.404  0.4995  0.6591  1.3220
    2SAPS  H18Z  266   2.454   5.137   8.285  1.1214 -1.2357  1.4098
    3SAPS     N  267   3.199   5.831  11.377  0.2098  0.8934 -0.6445
    3SAPS   HN1  268   3.246   5.740  11.356 -0.5268  0.3971 -0.1823
    3SAPS   HN2  269   3.262   5.913  11.377 -1.1222  1.9634 -1.3377
    3SAPS   HN3  270   3.152   5.823  11.469  0.8161 -0.2624 -0.4117
    3SAPS   C12  271   3.099   5.856  11.267  0.1813 -0.3757  0.7254
    3SAPS  H12A  272   3.028   5.774  11.268 -0.7944  0.4180 -0.5934
    3SAPS   C13  273   3.005   5.977  11.293 -0.2605  0.0594 -0.7839
    3SAPS  O13A  274   2.997   6.026  11.410 -0.4038 -0.3769 -0.5569
    3SAPS  O13B  275   2.925   6.003  11.199  0.5970  0.5551 -0.8742
    3SAPS   C11  276   3.176   5.858  11.129 -0.0673  0.6130  0.0883
    3SAPS  H11A  277   3.095   5.859  11.053 -0.9538 -0.7949  0.9638
    3SAPS  H11B  278   3.225   5.759  11.119 -1.0640  0.1472 -0.3011
    3SAPS     P  279   3.412   5.973  11.154 -0.1239  0.2218  0.1576
    3SAPS   O13  280   3.480   6.071  11.068 -0.5886 -0.2521 -0.0197
    3SAPS   O14  281   3.406   5.998  11.300 -0.2777  0.7812 -0.1949
    3SAPS   O12  282   3.259   5.969  11.112 -0.0260  0.4587  0.3229
    3SAPS   O11  283   3.460   5.821  11.126 -0.3223  0.2277  0.4878
    3SAPS    C1  284   3.542   5.775  11.020  0.0623 -0.0836 -0.1911
    3SAPS    HA  285   3.650   5.787  11.042  0.3264  1.3581 -2.0082
    3SAPS    HB  286   3.523   5.666  11.019  1.4531 -0.3818  1.5286
    3SAPS    C2  287   3.505   5.827  10.881  0.2038  1.2828  0.5275
    3SAPS    HS  288   3.525   5.936  10.877 -1.6368  1.6405  0.2424
    3SAPS   O21  289   3.361   5.798  10.862  0.6658  0.8218  0.5100
    3SAPS   C21  290   3.303   5.891  10.790 -0.5162 -0.0521  0.2066
    3SAPS   O22  291   3.350   6.000  10.748  0.1529 -0.1922  0.0660
    3SAPS   C22  292   3.162   5.844  10.749 -0.0743  0.2286  0.0012
    3SAPS   H2R  293   3.122   5.778  10.828 -0.8694 -1.1762 -1.5353
    3SAPS   H2S  294   3.089   5.926  10.730  0.2876 -0.0386 -3.2320
    3SAPS    C3  295   3.592   5.765  10.766 -0.9215  0.0896  0.3613
    3SAPS    HX  296   3.561   5.659  10.753  0.6062 -0.3428 -0.0006
    3SAPS    HY  297   3.698   5.769  10.798 -0.6059  2.6297 -0.7607
    3SAPS   O31  298   3.567   5.837  10.643 -0.2757 -0.0724 -0.1237
    3SAPS   C31  299   3.631   5.955  10.623 -0.4318 -0.4199 -0.4778
    3SAPS   O32  300   3.707   6.007  10.703  0.4851 -0.1830 -0.3512
    3SAPS   C32  301   3.595   6.010  10.479 -0.4494  0.9596  0.2304
    3SAPS   H2X  302   3.491   5.976  10.460 -0.2932 -0.7612  2.1178
    3SAPS   H2Y  303   3.652   5.946  10.408 -2.1155 -0.6748  0.2710
    3SAPS   C23  304   3.190   5.762  10.623  0.3336  0.3868 -0.2875
    3SAPS   H3R  305   3.108   5.686  10.621  1.4144 -0.8775  1.2607
    3SAPS   H3S  306   3.283   5.703  10.626  0.6614  0.9246  1.1746
    3SAPS   C24  307   3.162   5.847  10.500 -0.5233 -0.5780  0.1083
    3SAPS   H4R  308   3.240   5.926  10.502 -0.3643 -0.7186 -0.4218
    3SAPS   H4S  309   3.062   5.894  10.509  0.3040  1.0640  1.3243
    3SAPS   C25  310   3.177   5.760  10.375  0.8830  0.0057 -0.0081
    3SAPS   H5R  311   3.129   5.661  10.379  0.5308  0.1371 -0.8435
    3SAPS   C26  312   3.244   5.782  10.260 -0.1798 -0.0378  0.2129
    3SAPS   H6R  313   3.227   5.713  10.177 -1.8669 -1.8025  1.9229
    3SAPS   C27  314   3.312   5.906  10.224 -0.0444 -0.3080 -0.1655
    3SAPS   H7R  315   3.336   5.958  10.319  1.7988  0.3407 -0.9200
    3SAPS   H7S  316   3.247   5.980  10.172 -0.0527  0.4001  0.8243
    3SAPS   C28  317   3.441   5.883  10.147  0.3598  0.4793 -0.3622
    3SAPS   H8R  318   3.507   5.819  10.208 -0.9198 -1.0972 -0.5747
    3SAPS   C29  319   3.484   5.940  10.035 -0.0010 -1.2743 -0.0320
    3SAPS   H9R  320   3.584   5.909  10.003 -0.6265 -0.9550 -2.5141
    3SAPS  C210  321   3.411   6.044   9.957  0.3745  0.0955 -0.1344
    3SAPS  H10R  322   3.352   6.108  10.026  3.1573 -0.3133  2.8667
    3SAPS  H10S  323   3.343   5.986   9.892  0.7534 -1.1426  0.5477
    3SAPS  C211  324   3.496   6.132   9.874 -0.4724 -0.4433 -0.3012
    3SAPS  H11R  325   3.583   6.177   9.926 -0.9311 -0.6720  0.6850
    3SAPS  C212  326   3.472   6.165   9.749 -0.2316 -0.1082 -0.2971
    3SAPS  H12R  327   3.551   6.229   9.706  1.7498 -1.9722  0.3891
    3SAPS  C213  328   3.356   6.127   9.667  0.8307  0.6946 -0.1013
    3SAPS  H13R  329   3.309   6.212   9.614 -2.4466  0.0691  1.5658
    3SAPS  H13S  330   3.272   6.092   9.731  1.3060  1.3533  0.9117
    3SAPS  C214  331   3.375   6.020   9.569 -0.3695 -0.6645 -0.1900
    3SAPS  H14R  332   3.382   5.923   9.619 -0.7870 -2.0186 -2.5971
    3SAPS  C215  333   3.377   6.019   9.434  0.0582  0.4360 -0.8921
    3SAPS  H15R  334   3.404   5.932   9.373 -0.9258  0.1186 -0.8854
    3SAPS  C216  335   3.355   6.133   9.342 -0.1485 -0.6883  0.1541
    3SAPS  H16R  336   3.301   6.217   9.391 -1.3640 -2.2805  1.6640
    3SAPS  H16S  337   3.285   6.106   9.259 -0.4365  1.4825 -0.3670
    3SAPS  C217  338   3.489   6.176   9.289  0.0616 -0.1945  0.5017
    3SAPS  H17R  339   3.558   6.210   9.370  1.0814  1.9093 -1.1480
    3SAPS  H17S  340   3.465   6.268   9.231  1.4338 -0.5424 -0.6946
    3SAPS  C218  341   3.570   6.068   9.213  0.4841  0.3043  0.0303
    3SAPS  H18R  342   3.512   6.009   9.139  0.3289 -1.6621  1.6474
    3SAPS  H18S  343   3.604   5.988   9.282  0.4793 -0.9197 -1.3204
    3SAPS  C219  344   3.701   6.107   9.141 -0.0119 -0.0807  0.0162
    3SAPS  H19R  345   3.755   6.016   9.108  0.8566  0.3925  0.1026
    3SAPS  H19S  346   3.743   6.159   9.230 -0.2147 -0.7865  0.5318
    3SAPS  C220  347   3.689   6.203   9.025 -0.1307  0.1763 -0.5635
    3SAPS  H20R  348   3.787   6.250   8.998  0.4282 -0.3734  0.4486
    3SAPS  H20S  349   3.619   6.285   9.053  0.2264  0.3907 -0.2742
    3SAPS  H20T  350   3.647   6.151   8.937  0.3131  0.0507 -0.7040
    3SAPS   C33  351   3.612   6.156  10.459 -0.4419 -0.7813 -0.7532
    3SAPS   H3X  352   3.720   6.179  10.469 -0.2381 -1.3218 -1.6409
    3SAPS   H3Y  353   3.549   6.205  10.537  0.4300  0.6401 -0.9042
    3SAPS   C34  354   3.569   6.208  10.320 -0.8073  0.4147  0.8644
    3SAPS   H4X  355   3.462   6.190  10.297 -1.1570  1.4696  1.5755
    3SAPS   H4Y  356   3.621   6.141  10.248 -0.2973 -1.3422  2.7595
    3SAPS   C35  357   3.603   6.360  10.296 -0.0094 -0.3875  0.2170
    3SAPS   H5X  358   3.576   6.386  10.192 -0.0683 -0.6899  0.1543
    3SAPS   H5Y  359   3.714   6.355  10.300  0.0218  0.7099  1.4416
    3SAPS   C36  360   3.541   6.451  10.404 -0.0175  0.0083 -0.1195
    3SAPS   H6X  361   3.580   6.433  10.506 -2.2539 -0.4654  0.7120
    3SAPS   H6Y  362   3.436   6.415  10.417  0.6438 -1.2405  2.2583
    3SAPS   C37  363   3.536   6.597  10.370  0.1344 -0.1856  0.1614
    3SAPS   H7X  364   3.640   6.635  10.356 -0.1933  0.2956 -1.0713
    3SAPS   H7Y  365   3.499   6.653  10.458 -1.2761 -0.6979 -0.0891
    3SAPS   C38  366   3.438   6.628  10.260  0.1809  0.3408 -0.0285
    3SAPS   H8X  367   3.348   6.566  10.279 -0.2848  1.4144  1.4285
    3SAPS   H8Y  368   3.476   6.589  10.163  0.0945  0.4322 -0.0999
    3SAPS   C39  369   3.405   6.776  10.236 -0.0206  0.6235  0.0816
    3SAPS   H9X  370   3.500   6.832  10.230  0.8242 -0.8528 -0.7524
    3SAPS   H9Y  371   3.351   6.811  10.327 -1.3079 -0.3922 -0.2597
    3SAPS  C310  372   3.305   6.804  10.108 -0.3296  0.1284  0.4262
    3SAPS  H10X  373   3.212   6.750  10.135  1.2218 -2.4979  0.8494
    3SAPS  H10Y  374   3.347   6.737  10.030  0.2876  1.3313 -0.3100
    3SAPS  C311  375   3.282   6.948  10.056  1.2284 -0.4559  0.8136
    3SAPS  H11X  376   3.360   6.988   9.988 -0.7936 -1.5944 -2.4330
    3SAPS  H11Y  377   3.270   7.018  10.142  1.5029  0.4371  0.1429
    3SAPS  C312  378   3.160   6.956   9.952  0.5692  0.3893  0.0292
    3SAPS  H12X  379   3.062   6.936  10.000  0.1943 -3.2205 -1.9082
    3SAPS  H12Y  380   3.169   6.881   9.871 -0.0545  0.7460 -0.3713
    3SAPS  C313  381   3.151   7.098   9.888  0.0207  0.1905  0.1575
    3SAPS  H13X  382   3.244   7.118   9.831 -0.4884  1.9132 -0.1619
    3SAPS  H13Y  383   3.139   7.168   9.973  1.3866 -1.0386  1.4092
    3SAPS  C314  384   3.033   7.106   9.785 -0.3931 -0.4754  0.4585
    3SAPS  H14X  385   2.938   7.122   9.838  0.5421 -0.6451  2.2487
    3SAPS  H14Y  386   3.031   7.011   9.727  0.8460  0.9862 -2.2243
    3SAPS  C315  387   3.073   7.225   9.691 -0.0327 -0.0963 -0.6162
    3SAPS  H15X  388   3.182   7.205   9.679 -0.1250 -0.6880 -0.4922
    3SAPS  H15Y  389   3.059   7.321   9.745  1.6985 -0.5282  0.7245
    3SAPS  C316  390   3.009   7.213   9.550  0.1942  0.3007 -0.3149
    3SAPS  H16X  391   2.975   7.312   9.513 -1.4352 -0.2651 -0.3993
    3SAPS  H16Y  392   2.920   7.150   9.568  0.2759  0.2291 -0.1599
    3SAPS  C317  393   3.111   7.158   9.450 -0.0978  0.1829 -0.0123
    3SAPS  H17X  394   3.164   7.073   9.498  0.5245 -0.3565 -1.6019
    3SAPS  H17Y  395   3.192   7.228   9.419  0.1644 -0.8917 -1.9329
    3SAPS  C318  396   3.046   7.109   9.324  0.7572 -0.5703  0.2668
    3SAPS  H18X  397   3.113   7.042   9.267  0.3231  0.4300 -1.5006
    3SAPS  H18Y  398   2.990   7.180   9.259 -1.6816 -2.2121  0.4468
    3SAPS  H18Z  399   2.971   7.031   9.345  0.6819 -0.7535 -0.6595
    4SAPS     N  400   4.924   1.367  10.957 -0.6687  0.5414 -0.8369
    4SAPS   HN1  401   4.962   1.352  10.861  0.9733  0.1666 -0.1659
    4SAPS   HN2  402   4.876   1.280  10.987 -0.4991  0.4777 -0.7488
    4SAPS   HN3  403   4.860   1.446  10.975 -0.0938  0.9904 -0.7121
    4SAPS   C12  404   5.052   1.386  11.041  0.7492 -0.0440 -0.1246
    4SAPS  H12A  405   5.095   1.476  11.000  0.3460  0.0537 -0.3340
    4SAPS   C13  406   5.023   1.407  11.184  0.1115  0.2125 -1.0554
    4SAPS  O13A  407   4.904   1.394  11.232  0.2354  0.5692 -0.3380
    4SAPS  O13B  408   5.120   1.423  11.264  0.4847  0.8146  0.2786
    4SAPS   C11  409   5.148   1.265  11.024 -0.5266  0.0543 -0.0678
    4SAPS  H11A  410   5.106   1.164  11.041  1.2195 -0.6326  0.3622
    4SAPS  H11B  411   5.222   1.276  11.107 -0.5711 -1.0606  0.1292
    4SAPS     P  412   5.354   1.214  10.868  0.2312 -0.4105 -0.6105
    4SAPS   O13  413   5.451   1.314  10.931  0.3644  1.0607  0.3224
    4SAPS   O14  414   5.380   1.073  10.897 -0.6215 -0.2328 -0.4225
    4SAPS   O12  415   5.206   1.253  10.895  0.2581  0.4457  0.5158
    4SAPS   O11  416   5.363   1.229  10.714 -0.1756 -0.3998 -0.1889
    4SAPS    C1  417   5.320   1.357  10.663 -0.2923 -0.3589 -0.0899
    4SAPS    HA  418   5.212   1.382  10.668 -0.3763 -0.5678 -0.6719
    4SAPS    HB  419   5.378   1.442  10.704  0.2636 -0.9098  0.2789
    4SAPS    C2  420   5.358   1.372  10.507  0.4681 -0.5626  0.3038
    4SAPS    HS  421   5.340   1.479  10.483 -0.1731  0.3751  4.3080
    4SAPS   O21  422   5.298   1.267  10.427  0.3020 -0.3186 -0.2316
    4SAPS   C21  423   5.171   1.303  10.389  0.1230  0.0971 -0.7524
    4SAPS   O22  424   5.120   1.406  10.418  0.0611 -0.1814 -0.7282
    4SAPS   C22  425   5.108   1.185  10.310  0.3425  0.1894 -0.0804
    4SAPS   H2R  426   5.139   1.093  10.363 -0.5405  0.1963  0.4664
    4SAPS   H2S  427   4.998   1.180  10.325  0.0752 -1.7650 -2.2542
    4SAPS    C3  428   5.513   1.356  10.485  0.1193 -0.0621  0.2367
    4SAPS    HX  429   5.547   1.267  10.542  2.5404 -0.8284 -2.1742
    4SAPS    HY  430   5.558   1.439  10.543 -0.9694  0.0839  0.8964
    4SAPS   O31  431   5.546   1.368  10.347 -0.0060 -0.6721  0.1364
    4SAPS   C31  432   5.578   1.256  10.281 -0.3430  0.2670  0.2156
    4SAPS   O32  433   5.584   1.145  10.335  0.7883 -0.2412  0.5889
    4SAPS   C32  434   5.571   1.297  10.132 -0.6123  0.2464  0.4145
    4SAPS   H2X  435   5.583   1.405  10.108  1.2947 -0.4399 -2.2483
    4SAPS   H2Y  436   5.470   1.269  10.095  0.0238 -1.4647 -0.1044
    4SAPS   C23  437   5.145   1.172  10.167 -0.6039 -0.7285  0.0279
    4SAPS   H3R  438   5.092   1.082  10.128 -0.0357  0.4844 -4.1260
    4SAPS   H3S  439   5.256   1.160  10.171 -0.4668  0.0573 -0.9053
    4SAPS   C24  440   5.107   1.299  10.082  0.6448  0.8889  0.0088
    4SAPS   H4R  441   5.151   1.292   9.980 -1.1348 -0.9822 -0.7069
    4SAPS   H4S  442   5.151   1.396  10.114  2.4049  0.8744 -2.1458
    4SAPS   C25  443   4.960   1.320  10.069  0.8277  0.2579 -0.6502
    4SAPS   H5R  444   4.905   1.318  10.164  2.3202  0.8773  0.2735
    4SAPS   C26  445   4.897   1.360   9.956  0.2352  0.1750  0.0260
    4SAPS   H6R  446   4.794   1.397   9.967  0.4236  0.7163 -0.0365
    4SAPS   C27  447   4.965   1.383   9.821 -0.5844 -0.1223 -0.2142
    4SAPS   H7R  448   5.038   1.301   9.804 -0.9666 -0.3254 -0.9511
    4SAPS   H7S  449   5.022   1.478   9.827  0.1627 -0.6440  1.4793
    4SAPS   C28  450   4.862   1.383   9.710  0.1512  0.7711  0.0270
    4SAPS   H8R  451   4.755   1.372   9.731 -0.0777 -2.3539 -2.0474
    4SAPS   C29  452   4.898   1.411   9.584 -0.9070  0.5455  1.1292
    4SAPS   H9R  453   4.832   1.409   9.496  1.6229  2.5849 -0.9664
    4SAPS  C210  454   5.042   1.428   9.544 -0.4388 -0.4645  0.1776
    4SAPS  H10R  455   5.088   1.327   9.538  1.1100  0.2414 -0.2483
    4SAPS  H10S  456   5.101   1.480   9.622  1.5171  0.2792 -1.6764
    4SAPS  C211  457   5.073   1.499   9.413 -0.1130  0.6108 -0.0773
    4SAPS  H11R  458   5.130   1.590   9.437  1.5349 -0.4500  0.2051
    4SAPS  C212  459   5.048   1.474   9.285  0.1358 -0.1829  0.8060
    4SAPS  H12R  460   5.073   1.547   9.207  0.9273 -0.3469  0.9046
    4SAPS  C213  461   4.983   1.350   9.222  0.2324 -0.5816 -0.7475
    4SAPS  H13R  462   4.937   1.290   9.304 -0.4870 -0.0243 -0.7335
    4SAPS  H13S  463   5.057   1.289   9.166  1.8282 -0.0139  0.6511
    4SAPS  C214  464   4.870   1.367   9.126 -0.0208  0.4784  0.0743
    4SAPS  H14R  465   4.801   1.439   9.172  1.0723  1.9006 -0.4382
    4SAPS  C215  466   4.836   1.307   9.015 -0.1439 -0.8336  0.4285
    4SAPS  H15R  467   4.742   1.344   8.971  0.3945  0.8568  0.6003
    4SAPS  C216  468   4.901   1.189   8.952  0.3231 -0.2096  0.4051
    4SAPS  H16R  469   4.845   1.098   8.983 -0.0937  0.7069  2.5721
    4SAPS  H16S  470   4.991   1.160   9.010  1.0301 -0.7984 -0.9436
    4SAPS  C217  471   4.931   1.200   8.803  0.2619  0.7650 -0.8291
    4SAPS  H17R  472   5.007   1.121   8.783  1.0706  1.5233 -0.8422
    4SAPS  H17S  473   4.974   1.298   8.773  0.7335  0.6767 -0.4609
    4SAPS  C218  474   4.802   1.186   8.712  0.1415  0.0619  0.8573
    4SAPS  H18R  475   4.743   1.277   8.735  2.2129  1.9524 -0.7792
    4SAPS  H18S  476   4.736   1.097   8.720 -0.6463  0.1604 -2.8267
    4SAPS  C219  477   4.837   1.190   8.564 -0.8627 -0.2125  0.0953
    4SAPS  H19R  478   4.922   1.259   8.546  1.1470 -2.3608  0.9125
    4SAPS  H19S  479   4.749   1.230   8.509 -0.9945  1.4612  1.4168
    4SAPS  C220  480   4.876   1.062   8.506 -0.3642 -0.0149  0.0328
    4SAPS  H20R  481   4.800   0.982   8.520 -0.0065 -0.1884  1.0333
    4SAPS  H20S  482   4.959   1.010   8.558  0.5288 -1.0889 -2.3069
    4SAPS  H20T  483   4.903   1.080   8.399 -0.0685  2.1572  0.4292
    4SAPS   C33  484   5.670   1.223  10.033 -0.2697  0.0470 -0.4109
    4SAPS   H3X  485   5.633   1.119  10.021 -2.3205  0.6246  0.4353
    4SAPS   H3Y  486   5.771   1.220  10.080 -0.8601 -0.7231  0.8505
    4SAPS   C34  487   5.676   1.289   9.891  0.4656  0.4075  0.2122
    4SAPS   H4X  488   5.698   1.396   9.910 -3.5390  1.3657  0.3134
    4SAPS   H4Y  489   5.571   1.288   9.856  0.1056 -1.6121  1.2060
    4SAPS   C35  490   5.772   1.218   9.795  0.1234  0.3659 -0.3102
    4SAPS   H5X  491   5.769   1.108   9.805  1.3445  0.3235 -0.1912
    4SAPS   H5Y  492   5.879   1.241   9.814 -0.0899  0.4318  0.9090
    4SAPS   C36  493   5.732   1.264   9.659 -0.5897 -0.2590 -0.3008
    4SAPS   H6X  494   5.755   1.372   9.648 -1.2148 -0.2933 -2.2635
    4SAPS   H6Y  495   5.626   1.244   9.631 -0.6952  0.3590 -0.3637
    4SAPS   C37  496   5.825   1.184   9.560 -0.3027  0.8297  0.1594
    4SAPS   H7X  497   5.794   1.077   9.560 -0.9892  1.0226  0.3761
    4SAPS   H7Y  498   5.931   1.205   9.589 -0.8754  2.8941  0.9340
    4SAPS   C38  499   5.808   1.226   9.407 -0.4329  0.3728 -0.8428
    4SAPS   H8X  500   5.837   1.332   9.396 -2.1191  0.6746 -2.9594
    4SAPS   H8Y  501   5.701   1.207   9.387 -1.0463  0.3637  2.0517
    4SAPS   C39  502   5.903   1.152   9.315 -0.1086  0.1042  1.2397
    4SAPS   H9X  503   5.907   1.041   9.317  0.1201  0.1079  1.0061
    4SAPS   H9Y  504   6.005   1.190   9.338 -0.6920  1.9973  0.8675
    4SAPS  C310  505   5.870   1.186   9.162 -0.3051 -0.1020  0.3792
    4SAPS  H10X  506   5.880   1.295   9.139  3.1924 -0.3090  0.5312
    4SAPS  H10Y  507   5.771   1.141   9.138  0.1756  0.3813 -3.0250
    4SAPS  C311  508   5.957   1.112   9.055 -0.3132 -0.1689  0.9719
    4SAPS  H11X  509   5.932   1.004   9.063  1.7917 -0.9734 -1.6052
    4SAPS  H11Y  510   6.063   1.115   9.089 -0.2948  0.9895  0.8478
    4SAPS  C312  511   5.956   1.169   8.910 -0.2707 -0.1320  0.1565
    4SAPS  H12X  512   6.050   1.140   8.859 -0.0764 -2.7019  1.7825
    4SAPS  H12Y  513   5.967   1.279   8.914  1.3059 -0.2359 -0.6787
    4SAPS  C313  514   5.831   1.105   8.844 -0.3600  0.8041  0.4555
    4SAPS  H13X  515   5.751   1.161   8.897 -1.0165 -0.3713  0.7575
    4SAPS  H13Y  516   5.820   0.996   8.861  0.1091  0.5663 -0.6667
    4SAPS  C314  517   5.822   1.126   8.694  0.4613 -0.3209  0.3449
    4SAPS  H14X  518   5.828   1.235   8.679 -0.7664 -0.1106  1.2053
    4SAPS  H14Y  519   5.716   1.102   8.672 -0.2591  1.4468  1.6717
    4SAPS  C315  520   5.922   1.039   8.616  1.0052  0.1406 -0.4069
    4SAPS  H15X  521   5.923   0.937   8.659 -1.9444  1.0922  2.3248
    4SAPS  H15Y  522   6.022   1.082   8.637 -0.4744  3.3403  0.6894
    4SAPS  C316  523   5.913   1.049   8.462  0.2459 -1.0618  0.2846
    4SAPS  H16X  524   5.904   1.158   8.443 -2.6545 -1.2448  0.2379
    4SAPS  H16Y  525   5.809   1.015   8.442  1.3221 -3.0633 -2.4155
    4SAPS  C317  526   6.009   0.968   8.378 -0.0412 -0.7778  0.0767
    4SAPS  H17X  527   5.984   0.863   8.404 -1.6557 -0.4223  0.0672
    4SAPS  H17Y  528   6.117   0.990   8.396 -0.1914 -0.7156  0.9589
    4SAPS  C318  529   5.975   1.007   8.234  0.2756  0.0760  1.0337
    4SAPS  H18X  530   6.034   0.955   8.156  1.8211  0.2305  2.0462
    4SAPS  H18Y  531   6.002   1.115   8.232  2.5914 -0.4703  0.4451
    4SAPS  H18Z  532   5.867   0.987   8.221 -0.0098  2.2622 -0.4694
    5SAPS     N  533   2.665   0.282  10.847 -0.1427 -0.5598  0.0772
    5SAPS   HN1  534   2.593   0.239  10.786  0.2459  1.3203 -1.8133
    5SAPS   HN2  535   2.705   0.370  10.809 -1.7755  1.6158  2.9725
    5SAPS   HN3  536   2.739   0.209  10.849  0.9036  0.4828 -0.0167
    5SAPS   C12  537   2.586   0.287  10.971  0.5788 -0.5237  0.4333
    5SAPS  H12A  538   2.523   0.199  10.969 -1.8703  1.0699  2.1356
    5SAPS   C13  539   2.668   0.284  11.100  0.1732 -0.0621 -0.6416
    5SAPS  O13A  540   2.795   0.291  11.098 -0.2293 -0.4308  0.0917
    5SAPS  O13B  541   2.600   0.276  11.210 -0.4393  0.1963  0.4918
    5SAPS   C11  542   2.503   0.423  10.969  0.3553 -0.0875  0.2964
    5SAPS  H11A  543   2.564   0.514  10.953 -2.2182  1.6747 -0.0780
    5SAPS  H11B  544   2.466   0.434  11.073  0.3455  0.6151  0.2240
    5SAPS     P  545   2.285   0.540  10.874  0.2163  0.3380  0.0710
    5SAPS   O13  546   2.163   0.490  10.933  0.1500 -0.1323 -0.4960
    5SAPS   O14  547   2.337   0.661  10.934  0.0766 -0.3014  0.2765
    5SAPS   O12  548   2.388   0.422  10.886  0.1351  0.3656  0.7743
    5SAPS   O11  549   2.263   0.560  10.719 -0.3232  0.5551 -0.0640
    5SAPS    C1  550   2.250   0.456  10.624 -0.8730  0.7361  0.7029
    5SAPS    HA  551   2.224   0.361  10.677  0.0703 -0.2076 -0.4719
    5SAPS    HB  552   2.173   0.478  10.546 -0.9902 -0.3031  0.5009
    5SAPS    C2  553   2.381   0.442  10.534 -0.0452  0.2606 -0.1699
    5SAPS    HS  554   2.460   0.429  10.611  0.5923 -2.0266 -1.1342
    5SAPS   O21  555   2.407   0.558  10.452  0.4881 -0.1199 -0.2463
    5SAPS   C21  556   2.538   0.585  10.432  0.4573  0.0701  0.0830
    5SAPS   O22  557   2.630   0.525  10.487 -0.2988 -0.1721  0.0094
    5SAPS   C22  558   2.550   0.706  10.333 -0.4928 -0.1160  0.0887
    5SAPS   H2R  559   2.459   0.698  10.269 -0.8395  2.3148  0.1932
    5SAPS   H2S  560   2.547   0.802  10.389  0.6153 -0.7186  1.2400
    5SAPS    C3  561   2.377   0.315  10.447  0.1300 -0.0269 -0.2206
    5SAPS    HX  562   2.294   0.329  10.374 -0.7288 -0.1146  0.7112
    5SAPS    HY  563   2.336   0.229  10.504 -1.0617 -0.1454 -1.2124
    5SAPS   O31  564   2.494   0.266  10.380 -0.0358  0.3190 -0.4784
    5SAPS   C31  565   2.596   0.220  10.459  0.2607 -0.4093  0.1073
    5SAPS   O32  566   2.593   0.215  10.581  0.2963 -0.4207  0.0125
    5SAPS   C32  567   2.701   0.150  10.372  0.3038 -0.0600  0.4100
    5SAPS   H2X  568   2.746   0.086  10.451  0.7018 -0.8529 -0.4355
    5SAPS   H2Y  569   2.778   0.226  10.352 -0.9817  2.1215  3.0726
    5SAPS   C23  570   2.677   0.667  10.253  0.8939 -0.6708 -0.6176
    5SAPS   H3R  571   2.760   0.655  10.326  1.2353  2.2285 -0.4244
    5SAPS   H3S  572   2.693   0.765  10.204  1.1647 -0.5484 -0.2898
    5SAPS   C24  573   2.653   0.553  10.155 -0.3442 -0.3248 -0.3613
    5SAPS   H4R  574   2.563   0.583  10.098 -0.6786  0.6999  0.6607
    5SAPS   H4S  575   2.631   0.451  10.193  0.6447  0.0083  1.1977
    5SAPS   C25  576   2.775   0.524  10.069  0.5490  0.3647 -0.5754
    5SAPS   H5R  577   2.864   0.494  10.127  0.3977  2.0091  0.5687
    5SAPS   C26  578   2.781   0.543   9.937 -0.0326  0.0069 -0.0736
    5SAPS   H6R  579   2.881   0.528   9.895 -0.0251 -4.3728  0.9593
    5SAPS   C27  580   2.672   0.592   9.846  0.2986 -0.2604 -0.2748
    5SAPS   H7R  581   2.583   0.618   9.906 -0.1670  0.0233 -1.0784
    5SAPS   H7S  582   2.642   0.507   9.781  1.2189 -0.5693 -0.3159
    5SAPS   C28  583   2.710   0.713   9.761  1.0108  0.3061 -0.1306
    5SAPS   H8R  584   2.744   0.800   9.820 -4.5681  0.8867  2.9487
    5SAPS   C29  585   2.700   0.718   9.625 -0.4623 -0.1641 -0.5916
    5SAPS   H9R  586   2.732   0.809   9.574  1.1711 -0.1047  0.4484
    5SAPS  C210  587   2.638   0.617   9.531  0.2613  0.6645 -0.5502
    5SAPS  H10R  588   2.542   0.659   9.495 -0.3869 -1.8380 -1.9523
    5SAPS  H10S  589   2.614   0.521   9.583 -1.4901  0.4978 -1.5937
    5SAPS  C211  590   2.728   0.570   9.419  0.4889 -0.7505  0.5712
    5SAPS  H11R  591   2.781   0.478   9.446 -0.0006 -0.7475  1.6086
    5SAPS  C212  592   2.721   0.613   9.291  0.0049  0.4673 -0.5454
    5SAPS  H12R  593   2.813   0.599   9.233  1.5203 -1.2646  2.0439
    5SAPS  C213  594   2.624   0.713   9.235 -0.6060 -0.5484  0.4727
    5SAPS  H13R  595   2.524   0.692   9.280 -0.8374 -2.3147 -0.7315
    5SAPS  H13S  596   2.597   0.689   9.130 -0.4798  0.0221  0.3108
    5SAPS  C214  597   2.664   0.859   9.258  0.4585  0.3920  0.0526
    5SAPS  H14R  598   2.706   0.873   9.358  1.0884  0.1973 -0.1816
    5SAPS  C215  599   2.657   0.957   9.163  0.3878  0.4378 -0.6332
    5SAPS  H15R  600   2.701   1.053   9.191  0.3098  0.5587 -0.9177
    5SAPS  C216  601   2.615   0.947   9.021 -0.4329 -0.1415  0.7538
    5SAPS  H16R  602   2.536   1.023   9.006  0.9307  1.7726  2.7145
    5SAPS  H16S  603   2.576   0.848   8.987 -0.4990  0.4594 -1.0400
    5SAPS  C217  604   2.735   0.972   8.922  0.5865  0.0441 -0.2126
    5SAPS  H17R  605   2.802   1.043   8.975 -1.7792  2.4531 -0.2850
    5SAPS  H17S  606   2.686   1.014   8.833  1.3223  2.1462  0.3291
    5SAPS  C218  607   2.805   0.843   8.880 -0.0630 -0.2342 -0.2724
    5SAPS  H18R  608   2.844   0.799   8.975 -1.5011  1.2900  1.0861
    5SAPS  H18S  609   2.741   0.771   8.825 -1.1516  0.7057 -0.2635
    5SAPS  C219  610   2.930   0.860   8.795  0.4713 -0.0641  1.3202
    5SAPS  H19R  611   2.983   0.763   8.793 -0.5462 -0.6359 -0.2622
    5SAPS  H19S  612   2.999   0.936   8.837 -1.0327  2.7626 -0.9306
    5SAPS  C220  613   2.895   0.892   8.649 -0.0672  0.2361  0.4441
    5SAPS  H20R  614   2.987   0.891   8.587 -0.6899 -0.3930 -0.4978
    5SAPS  H20S  615   2.865   0.999   8.639 -1.9721 -0.1759  1.3216
    5SAPS  H20T  616   2.808   0.837   8.606  0.7545  1.4880 -3.1751
    5SAPS   C33  617   2.640   0.073  10.240 -0.2810 -0.6865 -0.5130
    5SAPS   H3X  618   2.548   0.016  10.264  0.5409 -0.5929  3.4451
    5SAPS   H3Y  619   2.717   0.004  10.199 -0.6775 -1.4300 -0.0316
    5SAPS   C34  620   2.614   0.163  10.116  0.8396  0.2258 -0.4231
    5SAPS   H4X  621   2.709   0.217  10.095 -0.1572  1.6222 -1.5521
    5SAPS   H4Y  622   2.539   0.242  10.138  2.8141  2.0698  0.0618
    5SAPS   C35  623   2.576   0.092   9.990 -0.0137  0.2929 -0.9438
    5SAPS   H5X  624   2.470   0.065  10.003 -0.2449  0.8581 -1.5672
    5SAPS   H5Y  625   2.628  -0.006   9.982  0.0003  0.0979  1.0922
    5SAPS   C36  626   2.609   0.175   9.864  0.1546 -0.2462  0.5995
    5SAPS   H6X  627   2.714   0.209   9.874 -0.9992  4.1399 -0.0032
    5SAPS   H6Y  628   2.560   0.272   9.887 -0.2732 -0.9477  2.9400
    5SAPS   C37  629   2.562   0.114   9.736 -0.6855 -0.5657 -0.1311
    5SAPS   H7X  630   2.458   0.078   9.744 -0.0155 -2.1763  2.3589
    5SAPS   H7Y  631   2.623   0.025   9.709  1.9678  0.9691  0.4671
    5SAPS   C38  632   2.589   0.207   9.620 -0.1183  0.4691 -0.8188
    5SAPS   H8X  633   2.697   0.230   9.614 -0.0507  0.1858 -0.7011
    5SAPS   H8Y  634   2.540   0.305   9.640  0.5753  0.6659 -0.0274
    5SAPS   C39  635   2.549   0.131   9.491  0.0548 -0.7123  0.6102
    5SAPS   H9X  636   2.440   0.115   9.480 -0.0243  0.3913 -0.3688
    5SAPS   H9Y  637   2.616   0.042   9.487 -1.9952 -2.4601  2.3351
    5SAPS  C310  638   2.594   0.215   9.370  0.2135 -0.9395 -0.2923
    5SAPS  H10X  639   2.704   0.207   9.360  0.5333  2.9018 -1.3238
    5SAPS  H10Y  640   2.587   0.324   9.388 -1.3763 -1.2200  1.0605
    5SAPS  C311  641   2.528   0.184   9.230  0.1365 -0.2383 -0.1992
    5SAPS  H11X  642   2.509   0.075   9.242  4.0459 -1.3361 -2.1032
    5SAPS  H11Y  643   2.613   0.189   9.159 -0.0526 -0.1409 -0.4180
    5SAPS  C312  644   2.412   0.281   9.198  0.0146 -0.3208  0.9798
    5SAPS  H12X  645   2.439   0.385   9.225 -0.9698 -0.1280  1.2555
    5SAPS  H12Y  646   2.328   0.251   9.264 -1.4210  2.7354  0.6931
    5SAPS  C313  647   2.374   0.271   9.050  0.2752 -0.4375 -0.0047
    5SAPS  H13X  648   2.271   0.313   9.043  0.6781  0.3252 -2.1378
    5SAPS  H13Y  649   2.370   0.163   9.027 -0.1731 -0.2495 -0.8314
    5SAPS  C314  650   2.477   0.330   8.949  0.5631  0.1053  0.8040
    5SAPS  H14X  651   2.427   0.349   8.852  0.6993 -1.0200  0.4938
    5SAPS  H14Y  652   2.546   0.247   8.920  0.4085 -0.0063  0.7541
    5SAPS  C315  653   2.549   0.459   8.982 -0.2237 -0.2499 -0.0203
    5SAPS  H15X  654   2.610   0.430   9.070  1.4495 -0.1425 -1.1072
    5SAPS  H15Y  655   2.474   0.536   9.012 -0.5435 -0.5725  0.0173
    5SAPS  C316  656   2.647   0.505   8.871 -0.4269  0.2762 -0.3991
    5SAPS  H16X  657   2.609   0.604   8.838 -0.6055  0.5504  0.6063
    5SAPS  H16Y  658   2.638   0.439   8.782 -1.4991 -0.6380  0.3593
    5SAPS  C317  659   2.789   0.515   8.923 -0.4398 -0.1070 -0.1838
    5SAPS  H17X  660   2.780   0.597   8.998 -1.2808  1.6493 -2.0917
    5SAPS  H17Y  661   2.847   0.554   8.837 -0.6620 -0.7826 -0.6513
    5SAPS  C318  662   2.864   0.388   8.956 -0.1653  0.2377  0.2416
    5SAPS  H18X  663   2.824   0.353   9.054 -2.2096  1.4355 -0.1061
    5SAPS  H18Y  664   2.975   0.398   8.964 -0.0993  0.1912 -0.5957
    5SAPS  H18Z  665   2.851   0.310   8.879  0.9041  0.2428  0.0455
    6SAPS     N  666   1.945   5.750  11.217 -0.5458 -0.4847  0.0873
    6SAPS   HN1  667   1.873   5.684  11.183  1.7033 -1.0499 -4.2018
    6SAPS   HN2  668   2.035   5.700  11.205 -0.3710  0.1134 -1.2296
    6SAPS   HN3  669   1.937   5.778  11.318  2.0870 -0.5967  0.3944
    6SAPS   C12  670   1.931   5.887  11.156  0.6554  0.1261  0.0852
    6SAPS  H12A  671   1.829   5.921  11.159  1.1091  1.5409  0.7058
    6SAPS   C13  672   2.016   5.986  11.236 -0.2504  0.5626  0.1054
    6SAPS  O13A  673   2.087   5.950  11.335  0.2379  0.1616 -0.4040
    6SAPS  O13B  674   2.000   6.104  11.200  0.1659 -0.5863  0.5531
    6SAPS   C11  675   1.978   5.900  11.006  0.4862 -0.5944  0.1964
    6SAPS  H11A  676   2.074   5.846  10.992  2.2495  2.8104 -2.3867
    6SAPS  H11B  677   2.000   6.005  10.980 -1.8274 -0.5349 -1.8844
    6SAPS     P  678   1.782   5.944  10.840  0.1692  0.5558  0.1601
    6SAPS   O13  679   1.716   5.865  10.731 -0.3199 -0.0069 -0.5297
    6SAPS   O14  680   1.690   6.015  10.933 -0.0866 -0.1091 -0.3436
    6SAPS   O12  681   1.877   5.842  10.917  0.2056  0.5600  0.0068
    6SAPS   O11  682   1.885   6.047  10.771  0.3286 -0.0482  0.0071
    6SAPS    C1  683   1.936   6.015  10.642  0.2510 -1.0022 -0.6593
    6SAPS    HA  684   1.974   5.911  10.645 -1.8643 -1.7957  1.6053
    6SAPS    HB  685   1.847   6.025  10.575  0.2436 -2.4277 -0.8739
    6SAPS    C2  686   2.045   6.115  10.600  0.7517  0.3128 -0.5507
    6SAPS    HS  687   2.027   6.220  10.633 -0.5599 -0.2260  0.5150
    6SAPS   O21  688   2.048   6.121  10.465  0.2275  0.0065  0.2395
    6SAPS   C21  689   2.103   6.218  10.400  0.5370 -0.2597 -0.4260
    6SAPS   O22  690   2.135   6.327  10.447 -0.1914 -0.3882  0.8903
    6SAPS   C22  691   2.097   6.178  10.251  0.0221 -0.1885 -0.2951
    6SAPS   H2R  692   2.199   6.163  10.210 -0.0635 -0.3778 -0.4414
    6SAPS   H2S  693   2.041   6.083  10.241  1.0100 -0.9719  1.3341
    6SAPS    C3  694   2.184   6.077  10.657  0.0616 -0.1681 -0.4565
    6SAPS    HX  695   2.201   5.988  10.593 -0.7736  2.0175 -3.9861
    6SAPS    HY  696   2.183   6.033  10.759 -0.5364 -0.5858 -0.6353
    6SAPS   O31  697   2.281   6.183  10.654 -0.3870  0.2649  0.1275
    6SAPS   C31  698   2.395   6.153  10.594  0.8532 -0.6698  0.1443
    6SAPS   O32  699   2.418   6.046  10.549 -0.5244 -0.3515 -0.0064
    6SAPS   C32  700   2.494   6.266  10.586  0.0106 -0.4030  0.0028
    6SAPS   H2X  701   2.573   6.244  10.661 -0.6626 -0.8041  0.6041
    6SAPS   H2Y  702   2.450   6.365  10.612 -1.0220 -1.5931  3.1809
    6SAPS   C23  703   2.031   6.289  10.168 -0.0385 -0.1803  0.1639
    6SAPS   H3R  704   2.107   6.369  10.153  0.2413 -0.0395  2.0485
    6SAPS   H3S  705   1.938   6.336  10.209  0.8581  3.0275 -1.1508
    6SAPS   C24  706   1.985   6.234  10.028 -0.1314  0.1763 -0.6998
    6SAPS   H4R  707   1.926   6.316   9.981 -3.7883 -0.2685  2.6088
    6SAPS   H4S  708   1.914   6.155  10.062  0.0385  1.0962  2.0878
    6SAPS   C25  709   2.096   6.175   9.945  0.3479  0.0331 -0.5145
    6SAPS   H5R  710   2.142   6.084   9.985 -0.0803 -1.2456 -2.7370
    6SAPS   C26  711   2.152   6.222   9.832 -0.2714  0.8517  0.3806
    6SAPS   H6R  712   2.228   6.154   9.792 -0.9962 -0.4480  1.1306
    6SAPS   C27  713   2.110   6.344   9.760 -1.0576 -0.0318 -0.5368
    6SAPS   H7R  714   2.176   6.360   9.672 -1.6838 -0.6137 -1.1240
    6SAPS   H7S  715   2.123   6.437   9.821  0.4633  0.6728 -1.8780
    6SAPS   C28  716   1.968   6.343   9.716 -0.1687 -0.3325  0.3784
    6SAPS   H8R  717   1.892   6.380   9.787 -1.2935  0.9941 -1.4214
    6SAPS   C29  718   1.922   6.322   9.597  0.2066  0.4001 -0.1740
    6SAPS   H9R  719   1.814   6.338   9.585 -0.1329 -1.8904 -0.6497
    6SAPS  C210  720   1.983   6.279   9.471  0.2458 -0.2432 -0.3231
    6SAPS  H10R  721   1.930   6.186   9.442 -0.5769 -0.8496  2.7146
    6SAPS  H10S  722   2.087   6.254   9.501  0.8843  0.0261 -2.2364
    6SAPS  C211  723   1.995   6.391   9.365 -0.5368  0.3436  0.2692
    6SAPS  H11R  724   2.006   6.498   9.386  3.1011  0.6525 -2.2762
    6SAPS  C212  725   2.008   6.365   9.229 -0.1418  0.8641  0.5304
    6SAPS  H12R  726   2.026   6.455   9.168  0.7405  2.2950  2.7771
    6SAPS  C213  727   2.011   6.230   9.159 -0.2568  0.6558 -0.9980
    6SAPS  H13R  728   1.923   6.219   9.092 -1.7244  1.2034  0.7421
    6SAPS  H13S  729   1.995   6.140   9.222 -0.8979  0.5712 -1.2733
    6SAPS  C214  730   2.151   6.221   9.099 -0.3194 -0.1488  0.1570
    6SAPS  H14R  731   2.228   6.185   9.168  0.3365  0.9683  0.0213
    6SAPS  C215  732   2.188   6.231   8.969 -0.4805 -0.2569  0.4134
    6SAPS  H15R  733   2.288   6.198   8.935 -1.4081 -2.1159 -0.6872
    6SAPS  C216  734   2.091   6.277   8.859  0.2027  0.3553  0.1650
    6SAPS  H16R  735   2.130   6.372   8.816 -1.0969  0.4718 -0.8144
    6SAPS  H16S  736   1.986   6.302   8.884  0.4303 -1.0006  2.7845
    6SAPS  C217  737   2.088   6.179   8.746  0.4592 -0.1391 -0.1832
    6SAPS  H17R  738   2.025   6.229   8.671  1.2893  0.1623 -0.6899
    6SAPS  H17S  739   2.035   6.085   8.775 -0.8980 -0.6783 -3.8558
    6SAPS  C218  740   2.220   6.122   8.690  0.0147 -1.0053 -0.0056
    6SAPS  H18R  741   2.276   6.070   8.770 -1.0324 -0.9238  0.8094
    6SAPS  H18S  742   2.265   6.201   8.626  1.3156 -0.5285  1.4488
    6SAPS  C219  743   2.186   6.004   8.602 -0.0738 -0.1617  0.2711
    6SAPS  H19R  744   2.104   6.024   8.530  0.4503 -0.2880 -0.3665
    6SAPS  H19S  745   2.137   5.924   8.663  0.5695  0.5974  1.8443
    6SAPS  C220  746   2.300   5.941   8.524 -0.5335  0.0480 -0.6938
    6SAPS  H20R  747   2.366   5.879   8.589 -1.1239 -1.9480 -1.8994
    6SAPS  H20S  748   2.359   6.019   8.472 -2.2152  1.4544 -0.5896
    6SAPS  H20T  749   2.259   5.868   8.450 -0.1919  0.4570 -1.2942
    6SAPS   C33  750   2.556   6.268  10.440 -0.1284  0.0022 -0.3485
    6SAPS   H3X  751   2.555   6.167  10.394  0.4427 -0.3922  0.4616
    6SAPS   H3Y  752   2.662   6.302  10.439  0.3654 -1.4929 -0.9503
    6SAPS   C34  753   2.476   6.361  10.342 -0.6508 -0.3627  0.4231
    6SAPS   H4X  754   2.483   6.468  10.370 -0.1226 -0.0622 -0.8247
    6SAPS   H4Y  755   2.367   6.343  10.344 -0.7250  0.1259  1.5256
    6SAPS   C35  756   2.528   6.335  10.196  0.6842  0.2377  0.6066
    6SAPS   H5X  757   2.493   6.234  10.165 -0.9017  1.1720 -0.8025
    6SAPS   H5Y  758   2.640   6.333  10.193  0.6752 -0.8965  0.4195
    6SAPS   C36  759   2.474   6.448  10.106 -1.1889  0.5167  0.2279
    6SAPS   H6X  760   2.511   6.543  10.151 -2.5850  1.3481 -0.3172
    6SAPS   H6Y  761   2.363   6.453  10.110 -1.2741 -0.4555 -0.4292
    6SAPS   C37  762   2.513   6.422   9.956 -0.4046 -0.2617 -0.2690
    6SAPS   H7X  763   2.468   6.327   9.922 -0.6492 -0.4558  0.5687
    6SAPS   H7Y  764   2.623   6.423   9.941 -0.2730 -0.0132  0.6356
    6SAPS   C38  765   2.454   6.528   9.854 -0.6533 -0.1117 -0.9111
    6SAPS   H8X  766   2.442   6.630   9.897 -3.6434 -0.0969 -1.6043
    6SAPS   H8Y  767   2.349   6.494   9.848 -0.3223 -1.2719 -0.3750
    6SAPS   C39  768   2.527   6.516   9.718 -0.8492  0.1476 -0.0031
    6SAPS   H9X  769   2.576   6.417   9.713 -0.3310  0.3640  0.6164
    6SAPS   H9Y  770   2.612   6.587   9.727  0.7836 -1.8351  0.9464
    6SAPS  C310  771   2.445   6.535   9.590  0.1176 -0.9838  0.1337
    6SAPS  H10X  772   2.441   6.645   9.576  1.2072 -1.2002 -2.3310
    6SAPS  H10Y  773   2.346   6.491   9.612  0.1310 -1.3916 -0.6182
    6SAPS  C311  774   2.495   6.473   9.460  0.3912  0.0433 -0.1658
    6SAPS  H11X  775   2.470   6.365   9.456 -0.0343 -0.0342  2.4298
    6SAPS  H11Y  776   2.606   6.482   9.459  0.3624  0.4967  0.2428
    6SAPS  C312  777   2.425   6.548   9.344 -0.4727 -0.7321  0.4879
    6SAPS  H12X  778   2.459   6.654   9.334  0.2925 -1.0809 -0.8326
    6SAPS  H12Y  779   2.317   6.553   9.369 -0.3740  1.7685  0.7047
    6SAPS  C313  780   2.468   6.484   9.210 -0.8158 -0.0597 -0.4319
    6SAPS  H13X  781   2.448   6.375   9.211 -2.3864  0.2011  0.1002
    6SAPS  H13Y  782   2.578   6.496   9.207 -0.6676 -0.7629  1.3603
    6SAPS  C314  783   2.416   6.544   9.076 -0.1823  0.9128 -0.6974
    6SAPS  H14X  784   2.446   6.651   9.081 -0.0340  0.8143  2.2753
    6SAPS  H14Y  785   2.306   6.533   9.062 -0.3715 -1.2853  1.7933
    6SAPS  C315  786   2.484   6.464   8.963  0.2130  0.3677 -0.0773
    6SAPS  H15X  787   2.446   6.362   8.989  1.0563  0.4448  1.6427
    6SAPS  H15Y  788   2.595   6.469   8.969  0.3824  0.1520 -2.2618
    6SAPS  C316  789   2.429   6.505   8.828  0.2373  0.0004  0.7500
    6SAPS  H16X  790   2.475   6.602   8.798 -1.3459  0.5931  0.1653
    6SAPS  H16Y  791   2.319   6.516   8.835  0.2309  0.0501  0.5820
    6SAPS  C317  792   2.461   6.401   8.729  0.3018  0.0648  0.2494
    6SAPS  H17X  793   2.409   6.420   8.633 -1.5448  0.7128  1.3227
    6SAPS  H17Y  794   2.424   6.302   8.761 -1.2556 -1.0602 -4.3350
    6SAPS  C318  795   2.606   6.378   8.706 -0.4246  0.0549 -0.2308
    6SAPS  H18X  796   2.645   6.346   8.806 -1.6775  1.2261  0.6743
    6SAPS  H18Y  797   2.662   6.466   8.667 -0.4452  0.0154 -0.3488
    6SAPS  H18Z  798   2.630   6.294   8.637  0.4831 -0.2178  0.3898
    7SAPS     N  799   4.694   0.985  10.798 -0.0679  0.5616  0.0711
    7SAPS   HN1  800   4.692   1.084  10.767  0.4197  0.3106 -0.8008
    7SAPS   HN2  801   4.789   0.950  10.825 -1.2375 -1.6482  1.6584
    7SAPS   HN3  802   4.640   0.935  10.725  0.0586  0.5824 -0.0375
    7SAPS   C12  803   4.612   0.983  10.926  0.1565 -0.2826  0.0268
    7SAPS  H12A  804   4.609   0.880  10.960 -0.5029 -0.9509 -1.9342
    7SAPS   C13  805   4.683   1.066  11.035  0.5970  0.1804 -0.0973
    7SAPS  O13A  806   4.796   1.122  11.020 -0.1073  0.1898  0.5865
    7SAPS  O13B  807   4.631   1.072  11.154  0.2786 -0.1838 -0.3442
    7SAPS   C11  808   4.468   1.034  10.893  0.5465 -0.7388 -0.1216
    7SAPS  H11A  809   4.463   1.140  10.860  0.9469 -0.4198  0.8073
    7SAPS  H11B  810   4.399   1.029  10.980 -0.1690  2.4229 -0.3801
    7SAPS     P  811   4.280   0.865  10.811  0.2476 -0.3200 -0.1556
    7SAPS   O13  812   4.223   0.821  10.684 -0.1949 -0.0677  0.1865
    7SAPS   O14  813   4.296   0.765  10.915  0.7654  0.2868 -0.0857
    7SAPS   O12  814   4.415   0.947  10.790  0.5564 -0.6325  0.0585
    7SAPS   O11  815   4.185   0.977  10.870 -0.0808  0.0706 -0.9809
    7SAPS    C1  816   4.175   1.100  10.793 -0.8029  0.1825  0.3633
    7SAPS    HA  817   4.206   1.187  10.855 -1.5393 -0.9539  2.4274
    7SAPS    HB  818   4.249   1.115  10.712  1.0341  0.3833  2.0019
    7SAPS    C2  819   4.033   1.129  10.739  0.3536  0.0676 -0.2341
    7SAPS    HS  820   3.953   1.096  10.809 -0.5727  2.2288 -0.2076
    7SAPS   O21  821   4.025   1.056  10.613 -0.0904  0.6489  0.4836
    7SAPS   C21  822   3.962   0.946  10.609 -0.4008  0.0829 -0.1064
    7SAPS   O22  823   3.908   0.889  10.698  0.1707 -0.3556 -0.5082
    7SAPS   C22  824   3.954   0.889  10.465 -0.2915 -0.2145 -0.4752
    7SAPS   H2R  825   3.931   0.973  10.397  1.2379  2.8981  2.5449
    7SAPS   H2S  826   4.058   0.851  10.454 -0.7849 -1.7580 -0.1661
    7SAPS    C3  827   4.019   1.271  10.697  0.1339  0.1768  0.4773
    7SAPS    HX  828   4.119   1.314  10.673 -0.2203  0.4839 -0.4893
    7SAPS    HY  829   3.988   1.327  10.788 -0.0120  0.3718  0.3060
    7SAPS   O31  830   3.938   1.308  10.582 -0.1430  0.1351  0.0901
    7SAPS   C31  831   3.811   1.278  10.587  0.0149  0.2460  0.0563
    7SAPS   O32  832   3.752   1.244  10.686  0.3873  0.2199 -0.6165
    7SAPS   C32  833   3.750   1.295  10.439 -0.2961  0.2111  0.4639
    7SAPS   H2X  834   3.702   1.199  10.409  0.1999  0.7997 -2.5147
    7SAPS   H2Y  835   3.835   1.308  10.369 -0.7893 -1.3224 -0.4615
    7SAPS   C23  836   3.861   0.766  10.455 -0.0587 -0.0261  0.3420
    7SAPS   H3R  837   3.755   0.789  10.478 -0.0987  1.3020 -1.0727
    7SAPS   H3S  838   3.892   0.692  10.533 -1.3882 -0.8381  0.1309
    7SAPS   C24  839   3.874   0.700  10.320  0.0572 -0.3215  0.0965
    7SAPS   H4R  840   3.830   0.598  10.321  2.3021 -1.3969 -1.4694
    7SAPS   H4S  841   3.984   0.690  10.310  0.3269 -0.4442  2.4915
    7SAPS   C25  842   3.812   0.778  10.209 -0.7376 -0.7906 -0.3984
    7SAPS   H5R  843   3.718   0.826  10.241 -0.1379 -0.0517  0.2775
    7SAPS   C26  844   3.852   0.774  10.081  0.5316 -0.2356  0.3922
    7SAPS   H6R  845   3.807   0.836  10.002  1.9909  0.4574  0.0889
    7SAPS   C27  846   3.962   0.692  10.029  0.3359 -0.1962 -0.6156
    7SAPS   H7R  847   3.924   0.638   9.940  0.1264 -3.3141  1.2177
    7SAPS   H7S  848   3.992   0.606  10.093  1.0142  0.2112 -0.3827
    7SAPS   C28  849   4.074   0.787  10.007 -0.1661 -0.6741 -0.4907
    7SAPS   H8R  850   4.103   0.847  10.095  1.2553 -3.1415  0.8297
    7SAPS   C29  851   4.155   0.780   9.898 -0.5181  0.2035  1.1903
    7SAPS   H9R  852   4.240   0.849   9.881  1.5242 -2.8271 -2.7227
    7SAPS  C210  853   4.150   0.694   9.770 -0.0640 -0.1061 -1.1023
    7SAPS  H10R  854   4.070   0.618   9.779 -0.3718  0.3674  0.5283
    7SAPS  H10S  855   4.237   0.625   9.765 -0.1974 -0.5691  1.6486
    7SAPS  C211  856   4.143   0.777   9.646  0.2520  0.0270  0.4128
    7SAPS  H11R  857   4.241   0.802   9.601  0.4923 -2.5483 -0.6854
    7SAPS  C212  858   4.030   0.817   9.577  0.2605  0.0811 -0.1059
    7SAPS  H12R  859   4.032   0.868   9.480 -2.4796  2.4275  0.9291
    7SAPS  C213  860   3.888   0.791   9.622  0.3077 -0.1412  0.2041
    7SAPS  H13R  861   3.886   0.787   9.733  1.9797  0.8623  0.2952
    7SAPS  H13S  862   3.863   0.686   9.596 -2.4877  0.7455 -0.9915
    7SAPS  C214  863   3.776   0.885   9.575  0.5260  0.4230  0.3856
    7SAPS  H14R  864   3.713   0.931   9.652 -0.7644  1.0687 -1.0142
    7SAPS  C215  865   3.739   0.892   9.450  0.7348  0.4388  0.2537
    7SAPS  H15R  866   3.655   0.955   9.417  0.1698  0.8835  2.3692
    7SAPS  C216  867   3.801   0.805   9.340  0.2360 -0.4240 -0.3070
    7SAPS  H16R  868   3.859   0.719   9.378 -2.0298 -2.8481 -1.9575
    7SAPS  H16S  869   3.861   0.872   9.274  0.6857 -1.6737 -1.1970
    7SAPS  C217  870   3.699   0.724   9.254  0.1664 -0.0635 -0.1029
    7SAPS  H17R  871   3.652   0.649   9.320  1.6976 -0.4343  0.6084
    7SAPS  H17S  872   3.765   0.661   9.191  1.0516 -1.5320  2.1912
    7SAPS  C218  873   3.610   0.805   9.163  0.2184  0.4364  0.4455
    7SAPS  H18R  874   3.536   0.839   9.238  0.3821  2.6750 -0.3206
    7SAPS  H18S  875   3.558   0.745   9.085 -0.8297  2.6444 -0.6780
    7SAPS  C219  876   3.653   0.946   9.107 -0.1242  0.3442 -0.1248
    7SAPS  H19R  877   3.697   1.005   9.191 -0.7320  1.1139 -0.3360
    7SAPS  H19S  878   3.556   0.992   9.079  0.0434  2.7659  2.7581
    7SAPS  C220  879   3.752   0.921   8.993  0.2913 -0.1063  1.0521
    7SAPS  H20R  880   3.844   0.874   9.033  0.8440  0.0825  0.0137
    7SAPS  H20S  881   3.781   1.015   8.941  1.4694 -0.5012  0.9780
    7SAPS  H20T  882   3.701   0.859   8.917 -0.5977 -0.6889  2.1046
    7SAPS   C33  883   3.649   1.412  10.441  0.2067 -0.5866 -0.5162
    7SAPS   H3X  884   3.697   1.508  10.469  0.0476 -0.3594 -1.0091
    7SAPS   H3Y  885   3.580   1.375  10.520 -0.5154  0.4065 -0.6573
    7SAPS   C34  886   3.567   1.446  10.315 -0.3910 -0.3195 -0.0776
    7SAPS   H4X  887   3.471   1.494  10.347 -0.2915 -0.6213  0.7078
    7SAPS   H4Y  888   3.533   1.352  10.267  1.0479 -0.5398 -0.7161
    7SAPS   C35  889   3.640   1.511  10.196 -0.0345  0.7912  0.4048
    7SAPS   H5X  890   3.729   1.447  10.179 -0.8537  0.1638 -1.8365
    7SAPS   H5Y  891   3.679   1.614  10.207  2.7281 -0.3078  1.7467
    7SAPS   C36  892   3.545   1.513  10.074 -0.6512  0.6858 -0.7116
    7SAPS   H6X  893   3.443   1.542  10.109 -0.6576  0.7553 -0.7876
    7SAPS   H6Y  894   3.543   1.403  10.054 -0.0586  0.1409  1.7864
    7SAPS   C37  895   3.605   1.595   9.964  0.0341  0.2308  0.1634
    7SAPS   H7X  896   3.703   1.548   9.943 -0.2266 -0.6915  0.9480
    7SAPS   H7Y  897   3.611   1.703   9.989 -2.0478  0.5693 -0.5753
    7SAPS   C38  898   3.529   1.588   9.823 -0.5414 -0.2942 -0.9101
    7SAPS   H8X  899   3.427   1.630   9.828  0.1461  1.3736 -0.2476
    7SAPS   H8Y  900   3.514   1.482   9.794  0.9479 -0.3665 -1.5416
    7SAPS   C39  901   3.615   1.650   9.711 -0.5837  0.0974 -0.1557
    7SAPS   H9X  902   3.708   1.594   9.688 -2.3938 -3.0087 -0.4136
    7SAPS   H9Y  903   3.637   1.755   9.742  1.1615 -0.3001  0.0545
    7SAPS  C310  904   3.541   1.643   9.579  0.4080 -0.3285  0.5801
    7SAPS  H10X  905   3.435   1.669   9.600  0.2673 -1.6993  1.7618
    7SAPS  H10Y  906   3.534   1.535   9.552  2.3464 -0.3543 -0.0084
    7SAPS  C311  907   3.591   1.744   9.471 -0.0038 -0.2079 -0.0989
    7SAPS  H11X  908   3.695   1.718   9.439 -0.1143 -0.0269 -0.6158
    7SAPS  H11Y  909   3.587   1.840   9.525 -1.3126 -0.0118 -0.5220
    7SAPS  C312  910   3.502   1.730   9.344 -0.0776 -0.5797  0.3932
    7SAPS  H12X  911   3.400   1.758   9.378 -0.3071 -1.8339  0.7916
    7SAPS  H12Y  912   3.496   1.621   9.325 -1.2890 -0.7484  1.5426
    7SAPS  C313  913   3.547   1.816   9.230  0.5526 -0.3350  0.3639
    7SAPS  H13X  914   3.639   1.769   9.188  0.3339  0.1254 -0.6692
    7SAPS  H13Y  915   3.576   1.915   9.270  2.2913 -0.1866 -1.1315
    7SAPS  C314  916   3.433   1.839   9.120  0.3138  0.7354  0.1832
    7SAPS  H14X  917   3.348   1.886   9.176 -0.3858 -0.8531  0.4931
    7SAPS  H14Y  918   3.393   1.740   9.092  1.2240  0.2588  0.5502
    7SAPS  C315  919   3.479   1.934   9.005  0.9652  0.7155 -0.6564
    7SAPS  H15X  920   3.568   1.885   8.960  1.4787  0.7491  0.3026
    7SAPS  H15Y  921   3.515   2.025   9.057 -0.0584  0.5201  0.4565
    7SAPS  C316  922   3.371   1.953   8.904  0.6225  0.0624 -0.6320
    7SAPS  H16X  923   3.399   2.039   8.839  0.3552 -0.3884 -1.3486
    7SAPS  H16Y  924   3.274   1.986   8.947  1.0289  2.5373 -1.4122
    7SAPS  C317  925   3.356   1.821   8.811 -0.2134  0.1959  0.1312
    7SAPS  H17X  926   3.328   1.731   8.871  0.5110  0.6005  1.1121
    7SAPS  H17Y  927   3.451   1.791   8.764  0.2581 -1.0772  1.7842
    7SAPS  C318  928   3.246   1.822   8.705  0.4705  0.2572  0.2786
    7SAPS  H18X  929   3.147   1.833   8.755  0.6074  0.0441  0.5927
    7SAPS  H18Y  930   3.238   1.725   8.652  0.4104  0.3683  0.0795
    7SAPS  H18Z  931   3.248   1.907   8.633 -0.6636  0.6691  0.7112
    8SAPS     N  932   0.893   2.150  11.106  0.3061  0.6928  0.1164
    8SAPS   HN1  933   0.832   2.222  11.060  1.4909  1.1029 -0.8935
    8SAPS   HN2  934   0.857   2.054  11.118 -0.2285  0.5549 -2.1406
    8SAPS   HN3  935   0.909   2.189  11.201  1.9458 -1.2041  0.6822
    8SAPS   C12  936   1.013   2.148  11.018  0.3102 -0.8034 -0.1122
    8SAPS  H12A  937   1.102   2.151  11.079  0.2214  1.6213 -0.0385
    8SAPS   C13  938   1.022   2.019  10.931  0.1784 -0.6699 -0.1620
    8SAPS  O13A  939   0.944   1.923  10.945 -0.2183  0.3616 -1.2382
    8SAPS  O13B  940   1.118   2.004  10.853 -0.1765 -0.0616 -0.0406
    8SAPS   C11  941   0.997   2.266  10.924 -0.2675 -0.9783  0.2384
    8SAPS  H11A  942   0.904   2.246  10.868 -0.7238 -2.1488  1.3627
    8SAPS  H11B  943   1.090   2.264  10.863  2.2757 -0.3624  3.8012
    8SAPS     P  944   1.102   2.461  11.060  0.1657 -0.1164 -0.0370
    8SAPS   O13  945   1.060   2.597  11.087 -0.4233  0.4077  0.1476
    8SAPS   O14  946   1.154   2.385  11.176  0.0296  0.2307  0.1767
    8SAPS   O12  947   0.979   2.388  10.991  0.0174 -0.2755  0.2824
    8SAPS   O11  948   1.219   2.458  10.945 -0.3410  0.2331 -0.4829
    8SAPS    C1  949   1.259   2.578  10.880  0.0221  0.2471  0.0491
    8SAPS    HA  950   1.189   2.662  10.902 -2.3633 -1.7022  0.4475
    8SAPS    HB  951   1.360   2.609  10.914 -0.2532  0.0731  1.0671
    8SAPS    C2  952   1.261   2.566  10.725  0.8930  0.2282  0.1928
    8SAPS    HS  953   1.155   2.578  10.696  0.2548 -0.0263  2.2370
    8SAPS   O21  954   1.321   2.440  10.692 -0.4121 -0.1041  0.5154
    8SAPS   C21  955   1.258   2.375  10.597  0.6558 -0.7478  0.1245
    8SAPS   O22  956   1.158   2.410  10.535 -0.6692  0.1003 -0.0213
    8SAPS   C22  957   1.314   2.235  10.588 -0.3470 -0.4321 -0.5884
    8SAPS   H2R  958   1.423   2.246  10.607  0.0456 -3.0159 -1.0311
    8SAPS   H2S  959   1.281   2.174  10.675  0.6983  0.7421  0.6799
    8SAPS    C3  960   1.345   2.672  10.656  0.2079  0.0670  0.3839
    8SAPS    HX  961   1.448   2.662  10.696 -0.2447 -0.0397  1.5719
    8SAPS    HY  962   1.315   2.774  10.688  0.7082 -0.2018  1.7568
    8SAPS   O31  963   1.346   2.668  10.506  0.2315  0.2861 -0.9866
    8SAPS   C31  964   1.241   2.707  10.436  0.0504 -0.7116 -0.7587
    8SAPS   O32  965   1.150   2.776  10.480 -0.8192  0.0747  0.2425
    8SAPS   C32  966   1.248   2.672  10.287 -0.2698 -0.7054  0.3364
    8SAPS   H2X  967   1.271   2.564  10.269 -0.1801 -0.3828 -1.7016
    8SAPS   H2Y  968   1.336   2.732  10.255  0.8485 -0.9349  2.7407
    8SAPS   C23  969   1.297   2.152  10.461 -0.1183  0.2380  0.1438
    8SAPS   H3R  970   1.188   2.148  10.439  0.4032 -0.5523 -2.7394
    8SAPS   H3S  971   1.330   2.047  10.471 -1.1888 -0.1580 -0.3079
    8SAPS   C24  972   1.347   2.226  10.335 -1.1179 -0.0237 -0.2205
    8SAPS   H4R  973   1.315   2.333  10.336  1.3979  0.8035  1.2737
    8SAPS   H4S  974   1.308   2.175  10.245 -0.2085 -1.8572  0.3868
    8SAPS   C25  975   1.497   2.214  10.316 -0.7688  0.4931  0.8927
    8SAPS   H5R  976   1.564   2.213  10.402  1.3414  0.8648 -0.6738
    8SAPS   C26  977   1.560   2.199  10.194 -0.7632 -0.0393 -0.4125
    8SAPS   H6R  978   1.669   2.205  10.186 -0.5666 -3.2459 -1.7152
    8SAPS   C27  979   1.493   2.201  10.057  0.1521  0.7009  0.4330
    8SAPS   H7R  980   1.403   2.137  10.067  0.1112  0.4642 -1.1458
    8SAPS   H7S  981   1.564   2.152   9.986 -0.0633  1.2500 -0.1734
    8SAPS   C28  982   1.471   2.340   9.999  0.5427 -0.0138 -0.4020
    8SAPS   H8R  983   1.548   2.412  10.031 -0.3080  0.5907  0.3191
    8SAPS   C29  984   1.375   2.388   9.924  0.1498 -0.0440 -1.3916
    8SAPS   H9R  985   1.367   2.497   9.912 -1.8421  0.2169  1.3367
    8SAPS  C210  986   1.257   2.299   9.882  0.0645 -0.1413  0.6611
    8SAPS  H10R  987   1.160   2.325   9.931  0.9155 -1.2811  3.1772
    8SAPS  H10S  988   1.277   2.196   9.920 -1.4744  0.0416  2.1164
    8SAPS  C211  989   1.234   2.328   9.734 -0.3652 -0.5409 -0.6157
    8SAPS  H11R  990   1.257   2.431   9.702 -0.9775 -0.1934  0.0396
    8SAPS  C212  991   1.193   2.236   9.635  0.0105 -0.7023 -0.8458
    8SAPS  H12R  992   1.163   2.275   9.536 -2.5422 -0.7739 -0.1667
    8SAPS  C213  993   1.155   2.090   9.648  0.6733 -0.0830  0.0066
    8SAPS  H13R  994   1.148   2.066   9.757 -2.9443  1.3322  0.2441
    8SAPS  H13S  995   1.229   2.021   9.603  0.0774 -1.3625  0.9078
    8SAPS  C214  996   1.016   2.053   9.591 -0.1745 -0.2785 -0.2218
    8SAPS  H14R  997   0.943   2.059   9.672  0.9279  0.3507  0.7601
    8SAPS  C215  998   0.991   2.011   9.467  0.4035 -0.2684 -0.7122
    8SAPS  H15R  999   0.889   1.979   9.440 -0.8644  0.9126  2.2393
    8SAPS  C216 1000   1.091   1.986   9.358  0.5984 -0.1307  0.0389
    8SAPS  H16R 1001   1.087   1.881   9.323  3.6518 -0.9266  1.7133
    8SAPS  H16S 1002   1.193   1.988   9.401 -0.3090  1.8641  2.3572
    8SAPS  C217 1003   1.070   2.086   9.242 -0.0484  0.1845 -0.4725
    8SAPS  H17R 1004   1.144   2.048   9.169  1.0336  0.1106  0.6203
    8SAPS  H17S 1005   1.087   2.193   9.267 -1.4189  0.6880 -1.5952
    8SAPS  C218 1006   0.935   2.078   9.170 -0.3236  0.0777  0.0896
    8SAPS  H18R 1007   0.935   2.157   9.092  2.2410  2.0755  1.9243
    8SAPS  H18S 1008   0.849   2.114   9.230 -0.7418  0.5752 -0.7890
    8SAPS  C219 1009   0.906   1.937   9.110  0.1980  0.6239  0.3506
    8SAPS  H19R 1010   0.917   1.859   9.188 -1.1724  1.1284  1.0717
    8SAPS  H19S 1011   0.977   1.925   9.025  0.1989  1.0592  0.2837
    8SAPS  C220 1012   0.766   1.929   9.047 -0.7777 -0.0625  0.0440
    8SAPS  H20R 1013   0.685   1.939   9.123 -1.7021  0.1072 -0.9463
    8SAPS  H20S 1014   0.764   1.826   9.006 -0.1288  0.3616 -1.0742
    8SAPS  H20T 1015   0.752   2.007   8.969  0.0548  0.3209  0.2663
    8SAPS   C33 1016   1.113   2.717  10.220  0.2512  0.6219  0.8587
    8SAPS   H3X 1017   1.102   2.827  10.223  0.0948  0.6362 -0.0534
    8SAPS   H3Y 1018   1.029   2.671  10.277 -0.9855  2.5398  0.6593
    8SAPS   C34 1019   1.117   2.686  10.067  0.7729 -0.4956  0.6355
    8SAPS   H4X 1020   1.131   2.580  10.038 -0.0446 -0.3273 -0.4425
    8SAPS   H4Y 1021   1.212   2.722  10.021  0.5338 -2.4696 -1.5766
    8SAPS   C35 1022   0.989   2.728   9.995 -0.3428  0.3326  0.9273
    8SAPS   H5X 1023   0.964   2.829  10.034  0.3934  1.5298 -1.4953
    8SAPS   H5Y 1024   0.901   2.667  10.025 -0.1633 -0.5787 -0.2903
    8SAPS   C36 1025   0.988   2.759   9.837 -0.6517  0.6977  0.1263
    8SAPS   H6X 1026   1.031   2.860   9.815 -1.0775  0.5267 -1.6796
    8SAPS   H6Y 1027   0.884   2.751   9.800 -0.6289 -0.7146  0.3157
    8SAPS   C37 1028   1.081   2.667   9.748  0.2315  0.2255  0.1473
    8SAPS   H7X 1029   1.041   2.564   9.756 -0.3625  0.4595  0.3027
    8SAPS   H7Y 1030   1.175   2.674   9.805 -0.2572  2.1193  0.8176
    8SAPS   C38 1031   1.097   2.716   9.607 -0.0129 -0.1933  1.4800
    8SAPS   H8X 1032   1.142   2.817   9.603  2.7979 -1.3899  0.0672
    8SAPS   H8Y 1033   0.995   2.728   9.564  0.8984  0.1853 -0.6957
    8SAPS   C39 1034   1.185   2.637   9.509  0.2344 -0.2489  0.3822
    8SAPS   H9X 1035   1.133   2.539   9.497  0.2359 -0.2135  0.0768
    8SAPS   H9Y 1036   1.280   2.622   9.565 -0.2503  1.8999  1.8659
    8SAPS  C310 1037   1.202   2.711   9.377 -0.2083 -0.6229  0.1663
    8SAPS  H10X 1038   1.282   2.661   9.318  1.7025  3.0988 -0.7014
    8SAPS  H10Y 1039   1.234   2.815   9.400  0.0374 -0.9421  1.2958
    8SAPS  C311 1040   1.075   2.704   9.295  0.2897 -0.3080 -0.0221
    8SAPS  H11X 1041   1.003   2.765   9.354 -1.4360  1.4443 -3.6533
    8SAPS  H11Y 1042   1.039   2.599   9.284 -0.5450  0.1606 -2.0583
    8SAPS  C312 1043   1.097   2.764   9.153  0.1167 -0.0584 -0.5636
    8SAPS  H12X 1044   1.191   2.719   9.115  0.1092  0.6169 -1.4067
    8SAPS  H12Y 1045   1.113   2.874   9.162  0.1732  0.0469 -1.7936
    8SAPS  C313 1046   1.001   2.739   9.034 -0.7043 -0.0388  0.6933
    8SAPS  H13X 1047   1.047   2.793   8.948 -2.9478 -0.5294 -0.8863
    8SAPS  H13Y 1048   0.900   2.785   9.036 -0.8464 -0.3600  0.9298
    8SAPS  C314 1049   0.976   2.588   9.011  0.4712  0.0109  0.3500
    8SAPS  H14X 1050   0.903   2.577   8.928  1.8255  3.3908 -1.5071
    8SAPS  H14Y 1051   0.932   2.551   9.105 -0.4538 -0.1420 -0.1338
    8SAPS  C315 1052   1.102   2.506   8.989  0.0218 -0.5967  0.0866
    8SAPS  H15X 1053   1.154   2.494   9.087 -2.0468 -1.0875  1.1785
    8SAPS  H15Y 1054   1.170   2.574   8.932  0.5812  0.4786  1.9342
    8SAPS  C316 1055   1.076   2.367   8.932 -0.0251 -0.8992  0.2391
    8SAPS  H16X 1056   0.969   2.344   8.954 -0.9324  3.3671  1.2598
    8SAPS  H16Y 1057   1.144   2.301   8.989 -0.9229  0.0701  2.5512
    8SAPS  C317 1058   1.098   2.369   8.768  0.6326  0.3418 -0.4110
    8SAPS  H17X 1059   1.056   2.272   8.735 -1.4570  1.3138 -0.7587
    8SAPS  H17Y 1060   1.209   2.370   8.762  0.6690  1.5866  0.1627
    8SAPS  C318 1061   1.042   2.478   8.678 -0.3116  0.2561 -0.0872
    8SAPS  H18X 1062   1.068   2.574   8.727 -1.8356  1.4128 -1.4366
    8SAPS  H18Y 1063   0.933   2.472   8.661  0.0756 -0.7669 -2.6148
    8SAPS  H18Z 1064   1.089   2.471   8.578 -1.6026 -2.5318 -0.5990
    9SAPS     N 1065   4.760   1.258   5.983 -0.3380 -0.5066 -0.5849
    9SAPS   HN1 1066   4.783   1.241   6.083 -0.6392  0.5024 -0.3321
    9SAPS   HN2 1067   4.798   1.184   5.920  0.2222 -0.1328 -0.6858
    9SAPS   HN3 1068   4.810   1.349   5.979  0.2000 -0.8187 -1.1623
    9SAPS   C12 1069   4.620   1.285   5.973  0.0693  0.1005  0.4689
    9SAPS  H12A 1070   4.597   1.361   6.046 -4.1078 -1.0045  0.5802
    9SAPS   C13 1071   4.570   1.337   5.834 -0.5959 -0.6574  0.5580
    9SAPS  O13A 1072   4.653   1.367   5.745  0.1129  0.2809 -0.1496
    9SAPS  O13B 1073   4.448   1.330   5.817 -0.0105  0.2505  0.1348
    9SAPS   C11 1074   4.548   1.149   6.000 -0.8433  0.1926  0.0372
    9SAPS  H11A 1075   4.566   1.096   5.905  0.0355  1.6469 -0.6588
    9SAPS  H11B 1076   4.440   1.169   6.010 -0.5783  1.1296  1.4542
    9SAPS     P 1077   4.561   1.074   6.258 -0.0865 -0.5766 -0.1082
    9SAPS   O13 1078   4.658   1.148   6.338 -0.0879  0.4749  0.1966
    9SAPS   O14 1079   4.419   1.116   6.255  0.8338  0.3747  0.0997
    9SAPS   O12 1080   4.614   1.072   6.106 -0.0837  0.0857  0.2432
    9SAPS   O11 1081   4.595   0.925   6.284  0.4529  1.1195 -0.4982
    9SAPS    C1 1082   4.488   0.834   6.292 -0.2516  0.0325  0.2109
    9SAPS    HA 1083   4.423   0.852   6.204 -0.5263  2.4573  0.8333
    9SAPS    HB 1084   4.532   0.732   6.294  0.5462  0.3795  1.2598
    9SAPS    C2 1085   4.401   0.840   6.420 -0.3675 -0.0097  1.2067
    9SAPS    HS 1086   4.367   0.946   6.426 -1.5636 -0.3674  0.9872
    9SAPS   O21 1087   4.475   0.785   6.528 -0.0073  0.0302  0.0986
    9SAPS   C21 1088   4.456   0.862   6.641  0.0069  0.0421 -0.0577
    9SAPS   O22 1089   4.414   0.975   6.643 -0.0086 -0.4006 -0.1369
    9SAPS   C22 1090   4.520   0.786   6.755  0.8322  0.0707 -0.8326
    9SAPS   H2R 1091   4.519   0.678   6.729 -1.8229  0.3278 -2.1036
    9SAPS   H2S 1092   4.622   0.825   6.778  0.4136  0.5851  0.1993
    9SAPS    C3 1093   4.267   0.757   6.415  0.2447  0.0209  0.1975
    9SAPS    HX 1094   4.305   0.653   6.413 -0.3541 -0.2141  0.7304
    9SAPS    HY 1095   4.207   0.771   6.322  0.7519 -0.0492 -0.1442
    9SAPS   O31 1096   4.180   0.785   6.535 -0.1522  0.7283 -0.0182
    9SAPS   C31 1097   4.081   0.689   6.561  0.2255 -0.5003  0.7772
    9SAPS   O32 1098   4.075   0.580   6.504 -0.4305  0.5826 -0.2942
    9SAPS   C32 1099   3.974   0.738   6.653  0.0851  0.3705 -0.1471
    9SAPS   H2X 1100   3.884   0.772   6.598 -1.2141 -2.4236  0.0793
    9SAPS   H2Y 1101   4.011   0.814   6.725  2.7753 -0.1983 -0.8272
    9SAPS   C23 1102   4.432   0.813   6.881  1.1487  0.6102 -0.4107
    9SAPS   H3R 1103   4.331   0.768   6.862  1.0114  0.7747 -0.0777
    9SAPS   H3S 1104   4.422   0.921   6.901 -0.1113  0.2535  1.1605
    9SAPS   C24 1105   4.487   0.750   7.011  0.1687 -0.3792 -0.2531
    9SAPS   H4R 1106   4.421   0.786   7.094  0.3488  0.9091 -0.6513
    9SAPS   H4S 1107   4.585   0.790   7.044 -0.3536 -0.2636  1.2467
    9SAPS   C25 1108   4.505   0.602   7.001  0.1330 -0.1646  0.2196
    9SAPS   H5R 1109   4.515   0.555   6.902  0.3257  0.1296  0.0983
    9SAPS   C26 1110   4.514   0.516   7.103 -0.0518 -0.3828 -0.0508
    9SAPS   H6R 1111   4.545   0.414   7.078  2.6822  0.9096 -2.6268
    9SAPS   C27 1112   4.501   0.531   7.252 -0.7664  0.3802  0.4481
    9SAPS   H7R 1113   4.456   0.437   7.291 -0.1038  0.4417  1.3749
    9SAPS   H7S 1114   4.441   0.621   7.278 -1.0454  0.6692 -1.0597
    9SAPS   C28 1115   4.629   0.541   7.324 -0.7849 -0.3551  0.4337
    9SAPS   H8R 1116   4.721   0.559   7.266 -0.4852  1.3977  1.3747
    9SAPS   C29 1117   4.641   0.539   7.459  0.1028  0.6342  0.4515
    9SAPS   H9R 1118   4.743   0.554   7.497  1.2305 -0.3699 -1.9511
    9SAPS  C210 1119   4.539   0.524   7.573 -0.0052 -0.2420 -0.2922
    9SAPS  H10R 1120   4.577   0.452   7.649  1.6567  0.9607  0.0859
    9SAPS  H10S 1121   4.439   0.484   7.548  0.2298 -2.2762  1.7120
    9SAPS  C211 1122   4.515   0.661   7.639  0.0717  0.0866  0.5630
    9SAPS  H11R 1123   4.498   0.746   7.571 -0.8591  0.1777  0.9004
    9SAPS  C212 1124   4.489   0.683   7.765  0.0357  0.3647 -0.4465
    9SAPS  H12R 1125   4.465   0.786   7.794 -0.8111 -0.0828  0.5179
    9SAPS  C213 1126   4.479   0.587   7.878  0.7267 -0.2007  0.7482
    9SAPS  H13R 1127   4.428   0.495   7.841 -1.2068  1.4751 -0.9981
    9SAPS  H13S 1128   4.398   0.618   7.946 -0.7618 -2.1203 -0.0380
    9SAPS  C214 1129   4.613   0.564   7.943 -0.2123 -0.4853  0.3578
    9SAPS  H14R 1130   4.680   0.488   7.900  0.2976 -0.8990  1.8332
    9SAPS  C215 1131   4.655   0.620   8.056 -1.5135  0.0311  0.5352
    9SAPS  H15R 1132   4.757   0.594   8.087 -2.0588 -0.4728  2.0037
    9SAPS  C216 1133   4.588   0.717   8.147  0.2113 -0.0017  0.2356
    9SAPS  H16R 1134   4.488   0.735   8.102 -0.0045  1.3854  1.1955
    9SAPS  H16S 1135   4.645   0.813   8.144  3.3604 -1.7696 -1.1737
    9SAPS  C217 1136   4.574   0.680   8.296  0.2413  0.2053  0.2635
    9SAPS  H17R 1137   4.672   0.634   8.322  1.6944  2.4264 -0.9647
    9SAPS  H17S 1138   4.494   0.606   8.317  0.5994 -0.6414 -1.2514
    9SAPS  C218 1139   4.576   0.797   8.396 -0.2208 -0.0949 -0.5387
    9SAPS  H18R 1140   4.493   0.866   8.367 -2.2054 -1.5849  1.3438
    9SAPS  H18S 1141   4.675   0.849   8.397 -0.7239  0.9167  1.8335
    9SAPS  C219 1142   4.547   0.758   8.543  0.3107 -0.1931  0.3907
    9SAPS  H19R 1143   4.634   0.702   8.584  0.9792 -1.2164 -2.2412
    9SAPS  H19S 1144   4.464   0.686   8.530  1.0927 -1.0584  0.0479
    9SAPS  C220 1145   4.507   0.873   8.638  0.0299  0.5918  0.1781
    9SAPS  H20R 1146   4.428   0.935   8.590 -0.0316 -0.5556 -1.2763
    9SAPS  H20S 1147   4.596   0.939   8.640 -0.3309  1.1991 -1.5619
    9SAPS  H20T 1148   4.466   0.843   8.736  0.1178 -0.3624 -0.0671
    9SAPS   C33 1149   3.929   0.617   6.741  0.3354  0.0123 -0.4348
    9SAPS   H3X 1150   3.916   0.528   6.676  3.5348  0.6955 -2.2308
    9SAPS   H3Y 1151   3.827   0.634   6.781 -0.2299 -0.5672 -1.5981
    9SAPS   C34 1152   4.029   0.596   6.859 -0.5295  0.0778 -0.1686
    9SAPS   H4X 1153   4.048   0.698   6.898  0.0526 -1.2440  3.3085
    9SAPS   H4Y 1154   4.126   0.559   6.818 -0.2786 -0.1942  0.6614
    9SAPS   C35 1155   3.992   0.491   6.965 -0.1696 -0.7160 -0.2290
    9SAPS   H5X 1156   4.033   0.394   6.930 -0.7932 -1.7301  1.7120
    9SAPS   H5Y 1157   3.881   0.485   6.968 -0.1257 -1.2489  1.7567
    9SAPS   C36 1158   4.052   0.526   7.109 -0.4790  0.2631 -0.5220
    9SAPS   H6X 1159   4.006   0.623   7.140  0.3199  0.1709  1.0028
    9SAPS   H6Y 1160   4.160   0.549   7.115 -0.5652  0.9517 -1.3044
    9SAPS   C37 1161   4.027   0.420   7.212 -0.3314  0.1254 -0.2018
    9SAPS   H7X 1162   4.083   0.328   7.183 -1.5995 -0.4879 -0.7830
    9SAPS   H7Y 1163   3.922   0.386   7.219  0.1727 -1.6423 -0.6105
    9SAPS   C38 1164   4.070   0.476   7.350  0.5095 -0.1514  0.5118
    9SAPS   H8X 1165   4.037   0.582   7.349  1.8159  0.2811 -1.7850
    9SAPS   H8Y 1166   4.179   0.497   7.352  0.2361  1.3861  0.2838
    9SAPS   C39 1167   4.002   0.391   7.463 -0.4905  0.0125 -0.0398
    9SAPS   H9X 1168   4.055   0.293   7.465 -1.5363 -0.6310 -1.7746
    9SAPS   H9Y 1169   3.894   0.370   7.447 -0.3749 -1.7620  1.2139
    9SAPS  C310 1170   3.999   0.459   7.599  0.2924 -0.1064 -0.1252
    9SAPS  H10X 1171   3.945   0.556   7.597 -1.6904 -1.0664  1.9811
    9SAPS  H10Y 1172   4.100   0.492   7.634 -0.1421  2.0424 -0.7475
    9SAPS  C311 1173   3.935   0.369   7.713  0.6591  0.9251  0.0202
    9SAPS  H11X 1174   3.978   0.267   7.707  1.2926  1.1911 -0.0724
    9SAPS  H11Y 1175   3.831   0.357   7.677  1.1495 -2.7548 -0.5613
    9SAPS  C312 1176   3.938   0.427   7.853 -0.7077 -0.0289 -0.7928
    9SAPS  H12X 1177   3.877   0.373   7.928  0.6388  0.6715  0.8769
    9SAPS  H12Y 1178   3.902   0.531   7.863 -0.6415 -0.1871  1.7507
    9SAPS  C313 1179   4.083   0.438   7.915  0.2672 -0.2681  1.1605
    9SAPS  H13X 1180   4.147   0.494   7.842 -0.8425 -1.2659 -0.6492
    9SAPS  H13Y 1181   4.126   0.336   7.923  0.2267 -0.2643  1.4377
    9SAPS  C314 1182   4.091   0.501   8.059 -0.6933 -0.1180  0.1414
    9SAPS  H14X 1183   4.085   0.611   8.043  1.5188 -0.2989 -2.9633
    9SAPS  H14Y 1184   4.184   0.489   8.118 -2.5235 -1.1554  3.0120
    9SAPS  C315 1185   3.989   0.447   8.160  0.3041  0.6458  0.1607
    9SAPS  H15X 1186   3.882   0.446   8.132  0.0308 -1.3258  1.1412
    9SAPS  H15Y 1187   3.984   0.525   8.239  0.0942  1.3405 -0.5259
    9SAPS  C316 1188   4.018   0.306   8.216 -0.4680  0.1462 -0.7304
    9SAPS  H16X 1189   4.004   0.230   8.137 -3.0978  0.4391 -0.6446
    9SAPS  H16Y 1190   3.947   0.280   8.298 -0.4045 -1.7090 -1.2400
    9SAPS  C317 1191   4.156   0.298   8.289  0.0903  0.2330  0.4885
    9SAPS  H17X 1192   4.238   0.315   8.216 -0.3263 -0.2165 -0.0962
    9SAPS  H17Y 1193   4.158   0.189   8.314  3.2791 -0.5545 -2.4584
    9SAPS  C318 1194   4.168   0.373   8.420  0.2027  0.3134  0.1014
    9SAPS  H18X 1195   4.135   0.479   8.410 -2.1663 -0.2605  1.1121
    9SAPS  H18Y 1196   4.275   0.372   8.451  0.5198  0.3638 -0.9678
    9SAPS  H18Z 1197   4.104   0.317   8.492 -0.5398 -0.2213 -0.9491
   10SAPS     N 1198   5.057   5.938   6.396 -0.4764 -0.1339  0.2285
   10SAPS   HN1 1199   5.160   5.931   6.408  0.2622  1.2619 -3.7513
   10SAPS   HN2 1200   5.039   6.040   6.386  1.0665  0.0688 -0.7889
   10SAPS   HN3 1201   4.994   5.904   6.471 -0.7568 -0.6330 -0.2229
   10SAPS   C12 1202   5.018   5.871   6.272  0.2530 -0.0052 -0.0815
   10SAPS  H12A 1203   4.926   5.905   6.226  0.9395  0.4680 -1.1387
   10SAPS   C13 1204   5.111   5.892   6.151  0.3382  0.3128 -0.3122
   10SAPS  O13A 1205   5.217   5.956   6.169 -0.0800 -0.0515  0.5336
   10SAPS  O13B 1206   5.076   5.844   6.043 -0.1635 -1.1090  0.0116
   10SAPS   C11 1207   4.998   5.717   6.290 -1.0284  0.2420 -0.4644
   10SAPS  H11A 1208   5.098   5.670   6.287 -0.3058  1.6734 -4.3771
   10SAPS  H11B 1209   4.950   5.671   6.202 -0.1949  2.0830 -1.9503
   10SAPS     P 1210   4.824   5.578   6.439  0.2497  0.0272 -0.1286
   10SAPS   O13 1211   4.715   5.625   6.531 -0.3323 -0.0667 -0.0208
   10SAPS   O14 1212   4.780   5.522   6.308  0.1904  0.2567 -0.2298
   10SAPS   O12 1213   4.927   5.696   6.413 -0.3615 -0.5156  0.3976
   10SAPS   O11 1214   4.914   5.475   6.521 -0.3427  0.0026  0.1727
   10SAPS    C1 1215   5.026   5.410   6.469  0.7676  0.4201 -0.2391
   10SAPS    HA 1216   5.008   5.301   6.458 -2.0115  0.7649  0.0614
   10SAPS    HB 1217   5.058   5.460   6.375  0.6979  0.0783 -0.4450
   10SAPS    C2 1218   5.153   5.437   6.561  0.3988  0.0203  0.1811
   10SAPS    HS 1219   5.245   5.382   6.530  1.0229  1.4712 -0.6690
   10SAPS   O21 1220   5.128   5.406   6.699 -0.1059  0.3024  0.1826
   10SAPS   C21 1221   5.098   5.281   6.722  0.0350 -0.1842  0.1011
   10SAPS   O22 1222   5.107   5.192   6.638 -0.0263  0.4051  0.0984
   10SAPS   C22 1223   5.074   5.256   6.869  0.2708 -0.2180 -0.2172
   10SAPS   H2R 1224   5.078   5.346   6.934 -0.1256  0.6844 -1.4118
   10SAPS   H2S 1225   4.967   5.228   6.875 -0.3846  2.1245 -0.2395
   10SAPS    C3 1226   5.202   5.595   6.566 -0.5154 -0.4241 -0.5257
   10SAPS    HX 1227   5.102   5.641   6.550  0.1116  0.3097 -2.6654
   10SAPS    HY 1228   5.261   5.621   6.475 -2.0799 -2.6233 -2.2737
   10SAPS   O31 1229   5.253   5.630   6.692 -0.0199 -0.6017 -0.3770
   10SAPS   C31 1230   5.214   5.753   6.747 -0.2288  0.3163 -0.9387
   10SAPS   O32 1231   5.158   5.843   6.684 -0.0358  0.4250  0.2429
   10SAPS   C32 1232   5.286   5.763   6.878  0.3349  0.2315  0.3302
   10SAPS   H2X 1233   5.392   5.752   6.846 -0.0135  0.1480 -0.8285
   10SAPS   H2Y 1234   5.242   5.693   6.953  0.4447  1.4400  1.5631
   10SAPS   C23 1235   5.151   5.137   6.930  0.5500 -0.0451 -0.6059
   10SAPS   H3R 1236   5.260   5.158   6.927  0.7066 -0.8294 -0.6721
   10SAPS   H3S 1237   5.126   5.044   6.874 -0.2276  0.6176 -1.4051
   10SAPS   C24 1238   5.118   5.125   7.088 -0.5078  0.2631 -0.0476
   10SAPS   H4R 1239   5.162   5.028   7.121  1.0458  1.2749  0.9706
   10SAPS   H4S 1240   5.007   5.112   7.096 -0.5820 -0.8927 -2.1532
   10SAPS   C25 1241   5.150   5.244   7.173  0.6804  0.2796  0.5257
   10SAPS   H5R 1242   5.105   5.337   7.135 -2.6961 -0.9270  1.1547
   10SAPS   C26 1243   5.218   5.248   7.285  0.1858 -0.3960 -0.7025
   10SAPS   H6R 1244   5.250   5.345   7.326  2.8077 -1.7562  0.7466
   10SAPS   C27 1245   5.265   5.130   7.365 -0.2708  0.2606 -0.0507
   10SAPS   H7R 1246   5.371   5.114   7.339 -0.1702  0.6898  0.0910
   10SAPS   H7S 1247   5.212   5.039   7.330  0.9993  0.0468 -1.5174
   10SAPS   C28 1248   5.250   5.149   7.514 -0.2949 -0.1027 -0.1918
   10SAPS   H8R 1249   5.144   5.171   7.537 -0.8475  0.5352 -3.0426
   10SAPS   C29 1250   5.331   5.120   7.614 -0.6407  0.3983  0.4348
   10SAPS   H9R 1251   5.300   5.123   7.720  1.8277  0.9271  1.2030
   10SAPS  C210 1252   5.475   5.061   7.604  0.6243  0.0109 -0.1996
   10SAPS  H10R 1253   5.489   5.036   7.497  0.7553 -1.5281  0.1435
   10SAPS  H10S 1254   5.484   4.963   7.657  0.3480  1.7147  3.2671
   10SAPS  C211 1255   5.582   5.161   7.649  0.3257  0.6362  0.3781
   10SAPS  H11R 1256   5.624   5.229   7.573  0.2906  0.5316  0.2650
   10SAPS  C212 1257   5.628   5.159   7.778  0.5479 -0.0762  0.1090
   10SAPS  H12R 1258   5.716   5.224   7.787 -1.1480  2.5376 -1.2518
   10SAPS  C213 1259   5.593   5.063   7.895  0.1316 -0.8353 -0.5375
   10SAPS  H13R 1260   5.679   4.999   7.923 -0.9001 -2.1258 -0.2473
   10SAPS  H13S 1261   5.504   4.997   7.885 -0.3571 -0.5442  1.4741
   10SAPS  C214 1262   5.564   5.156   8.010 -0.1734  0.8829 -0.3495
   10SAPS  H14R 1263   5.458   5.169   8.035 -0.2901  1.6873 -1.1733
   10SAPS  C215 1264   5.645   5.212   8.092 -0.0405  0.3471 -0.4044
   10SAPS  H15R 1265   5.612   5.265   8.182  2.8380  2.7184 -0.6138
   10SAPS  C216 1266   5.792   5.204   8.088 -0.1497 -0.0364 -0.4057
   10SAPS  H16R 1267   5.837   5.306   8.088  2.8192 -1.2008 -1.8614
   10SAPS  H16S 1268   5.829   5.161   7.992 -1.4366  1.7698 -1.7811
   10SAPS  C217 1269   5.838   5.123   8.217  0.4430  0.1808  1.2528
   10SAPS  H17R 1270   5.948   5.108   8.203  0.1444 -1.3528  0.3766
   10SAPS  H17S 1271   5.790   5.023   8.210 -0.4342  0.7366 -1.4559
   10SAPS  C218 1272   5.800   5.204   8.339 -0.5479 -0.2116 -0.3018
   10SAPS  H18R 1273   5.692   5.220   8.358 -0.0725 -0.1629  2.9463
   10SAPS  H18S 1274   5.860   5.298   8.336  1.5529 -1.2466  3.1340
   10SAPS  C219 1275   5.852   5.137   8.473  0.6754  0.1028  0.1825
   10SAPS  H19R 1276   5.963   5.132   8.475  0.6389 -0.3829  1.1871
   10SAPS  H19S 1277   5.816   5.032   8.472  1.2962 -0.1243 -1.2910
   10SAPS  C220 1278   5.796   5.196   8.605  0.5073 -0.1773 -0.1320
   10SAPS  H20R 1279   5.826   5.136   8.694 -2.1908  1.3941  1.9662
   10SAPS  H20S 1280   5.686   5.187   8.594  0.2135  0.7931  1.6604
   10SAPS  H20T 1281   5.829   5.301   8.621 -2.0419  0.7229 -0.3595
   10SAPS   C33 1282   5.273   5.904   6.935  0.0307 -0.1908 -0.3919
   10SAPS   H3X 1283   5.172   5.943   6.959  1.2926  2.8928  0.4921
   10SAPS   H3Y 1284   5.307   5.973   6.855 -0.8785 -1.2576 -1.7441
   10SAPS   C34 1285   5.346   5.928   7.073  0.1804  0.1905 -0.4452
   10SAPS   H4X 1286   5.360   6.038   7.077 -3.4414  0.8242 -1.5194
   10SAPS   H4Y 1287   5.445   5.878   7.073 -0.6897 -1.6015 -0.1764
   10SAPS   C35 1288   5.274   5.879   7.200  0.6534 -0.5369 -0.2451
   10SAPS   H5X 1289   5.298   5.771   7.202  3.2860 -0.0369 -0.1940
   10SAPS   H5Y 1290   5.165   5.902   7.197  0.6831 -0.1757  0.7451
   10SAPS   C36 1291   5.339   5.933   7.323  0.2664  0.1663  0.0859
   10SAPS   H6X 1292   5.336   6.044   7.318  2.8975  0.2851 -0.4340
   10SAPS   H6Y 1293   5.447   5.904   7.324  0.6141  1.3785 -0.0456
   10SAPS   C37 1294   5.269   5.889   7.454  0.4493 -0.6808  0.1928
   10SAPS   H7X 1295   5.280   5.778   7.463 -1.1940 -0.9733 -1.0409
   10SAPS   H7Y 1296   5.160   5.905   7.450  0.5462  0.5064  1.3968
   10SAPS   C38 1297   5.326   5.954   7.580  0.0670  1.1341 -0.7465
   10SAPS   H8X 1298   5.318   6.065   7.577  1.6423  1.2582 -0.9050
   10SAPS   H8Y 1299   5.437   5.947   7.574  0.0902  2.2166 -2.1329
   10SAPS   C39 1300   5.271   5.893   7.708 -0.1367  0.5603 -0.4144
   10SAPS   H9X 1301   5.275   5.782   7.710  0.9911  0.5952  0.0547
   10SAPS   H9Y 1302   5.160   5.903   7.713 -0.3035 -0.7605 -1.0713
   10SAPS  C310 1303   5.336   5.936   7.843 -0.3141 -0.4754 -0.0812
   10SAPS  H10X 1304   5.291   6.032   7.873 -0.8881 -0.9561  0.6411
   10SAPS  H10Y 1305   5.444   5.956   7.827 -0.3470 -0.9640 -1.0097
   10SAPS  C311 1306   5.322   5.835   7.956  0.2254 -0.2923  0.7749
   10SAPS  H11X 1307   5.368   5.740   7.921  0.5674 -0.3318  1.3175
   10SAPS  H11Y 1308   5.214   5.812   7.966  0.0501 -0.8827 -1.7264
   10SAPS  C312 1309   5.379   5.881   8.090 -0.8391 -0.7178 -0.3505
   10SAPS  H12X 1310   5.331   5.977   8.119  1.8985  0.8793 -0.7205
   10SAPS  H12Y 1311   5.486   5.901   8.070 -1.2096 -0.1172 -1.8726
   10SAPS  C313 1312   5.365   5.777   8.199  0.3245  0.2216  0.1484
   10SAPS  H13X 1313   5.259   5.766   8.231  0.3844  0.6472  0.4958
   10SAPS  H13Y 1314   5.413   5.825   8.287  1.0994 -0.1884 -0.0377
   10SAPS  C314 1315   5.435   5.637   8.173 -0.0348 -0.6588 -0.9591
   10SAPS  H14X 1316   5.541   5.649   8.141  0.0639 -4.5100 -2.6818
   10SAPS  H14Y 1317   5.383   5.593   8.085  0.1306 -2.6511 -0.1116
   10SAPS  C315 1318   5.401   5.517   8.263 -1.1615 -1.1702  0.3190
   10SAPS  H15X 1319   5.433   5.421   8.218 -3.1635 -0.8250 -2.0736
   10SAPS  H15Y 1320   5.291   5.518   8.279 -1.7223 -2.1556 -2.8233
   10SAPS  C316 1321   5.455   5.540   8.410 -0.4569 -0.4416  0.3619
   10SAPS  H16X 1322   5.414   5.626   8.467  2.4633  0.8386  0.7553
   10SAPS  H16Y 1323   5.563   5.567   8.400 -0.7668  0.5849 -0.4256
   10SAPS  C317 1324   5.456   5.412   8.493 -0.1628  0.4850  0.4184
   10SAPS  H17X 1325   5.546   5.402   8.557  0.8242 -1.6964 -1.2018
   10SAPS  H17Y 1326   5.473   5.327   8.425 -2.3415 -0.8243  1.3981
   10SAPS  C318 1327   5.333   5.390   8.578 -0.3221 -0.1138  0.1527
   10SAPS  H18X 1328   5.345   5.456   8.667 -2.9908 -0.1794  0.6379
   10SAPS  H18Y 1329   5.324   5.285   8.614 -3.0253 -0.2978 -0.8861
   10SAPS  H18Z 1330   5.251   5.410   8.506  1.1340 -3.5062 -2.8033
   11SAPS     N 1331   6.404   1.485   5.813  0.1245 -0.2215 -0.0067
   11SAPS   HN1 1332   6.479   1.534   5.761 -1.6812  2.2938 -0.4177
   11SAPS   HN2 1333   6.365   1.551   5.883 -1.9368 -1.6412  0.2939
   11SAPS   HN3 1334   6.435   1.399   5.863 -2.7412 -1.2889  0.1136
   11SAPS   C12 1335   6.298   1.446   5.714 -0.5829  0.4496  0.0305
   11SAPS  H12A 1336   6.276   1.542   5.671 -3.9745  0.1783  0.8757
   11SAPS   C13 1337   6.352   1.349   5.603  0.6628  0.3225  0.1118
   11SAPS  O13A 1338   6.472   1.305   5.615 -0.4323  0.4647 -0.0681
   11SAPS  O13B 1339   6.275   1.306   5.511  0.0792 -0.2535  0.2248
   11SAPS   C11 1340   6.183   1.378   5.785 -0.0903 -0.5957  0.3218
   11SAPS  H11A 1341   6.221   1.299   5.853  0.8829  1.6907  2.5987
   11SAPS  H11B 1342   6.123   1.337   5.700 -1.1276  2.5717 -0.6300
   11SAPS     P 1343   5.997   1.419   5.942  0.0349  0.0227 -0.1643
   11SAPS   O13 1344   5.917   1.534   6.005  0.3848  0.1974 -0.1232
   11SAPS   O14 1345   5.918   1.323   5.866  0.2690  0.2080  0.7762
   11SAPS   O12 1346   6.104   1.474   5.852 -0.3155  0.5238  0.5493
   11SAPS   O11 1347   6.080   1.342   6.047  0.0983 -0.1259  0.1817
   11SAPS    C1 1348   6.162   1.421   6.139 -0.4533 -0.7340 -0.3236
   11SAPS    HA 1349   6.262   1.451   6.104  0.5243 -1.2032  1.8653
   11SAPS    HB 1350   6.117   1.514   6.181  0.2862 -0.1340 -0.8533
   11SAPS    C2 1351   6.194   1.329   6.263 -0.1328 -0.4506  0.4203
   11SAPS    HS 1352   6.230   1.232   6.224  1.7510 -0.2350  1.4818
   11SAPS   O21 1353   6.069   1.308   6.334  0.3146 -0.1199 -0.4281
   11SAPS   C21 1354   6.058   1.203   6.414  0.0906 -0.4820 -0.3043
   11SAPS   O22 1355   6.137   1.109   6.422 -0.2745 -0.6690  0.2380
   11SAPS   C22 1356   5.933   1.215   6.496  0.8094 -0.2810  0.8118
   11SAPS   H2R 1357   5.888   1.310   6.461  0.5898 -0.2571  1.1445
   11SAPS   H2S 1358   5.865   1.129   6.478 -1.8151  2.0498 -1.3113
   11SAPS    C3 1359   6.311   1.380   6.345 -0.5944  0.1152 -0.9738
   11SAPS    HX 1360   6.273   1.468   6.399  0.2451 -0.5151  0.7084
   11SAPS    HY 1361   6.393   1.403   6.273 -0.8559  1.8764 -0.7386
   11SAPS   O31 1362   6.355   1.281   6.440 -0.6595 -0.8118  0.1922
   11SAPS   C31 1363   6.411   1.325   6.559  0.0947 -0.4211  0.8171
   11SAPS   O32 1364   6.433   1.443   6.580 -0.7724  0.1962  0.1969
   11SAPS   C32 1365   6.426   1.209   6.648 -0.6951  0.5134  0.1181
   11SAPS   H2X 1366   6.427   1.107   6.604  1.7125 -0.0591  1.2892
   11SAPS   H2Y 1367   6.338   1.220   6.715 -2.1035  2.8168 -1.9192
   11SAPS   C23 1368   5.953   1.225   6.655  0.1139 -0.1066  1.0208
   11SAPS   H3R 1369   6.057   1.191   6.674  0.4957  0.5457  0.1839
   11SAPS   H3S 1370   5.881   1.164   6.713  1.6220 -1.6058  1.4025
   11SAPS   C24 1371   5.925   1.368   6.706  0.3620 -0.3602  0.2514
   11SAPS   H4R 1372   5.891   1.354   6.810  1.3481 -2.1668  0.3675
   11SAPS   H4S 1373   5.839   1.414   6.652 -0.4958 -1.4732  0.6334
   11SAPS   C25 1374   6.056   1.451   6.702  0.1129  0.3645  0.0387
   11SAPS   H5R 1375   6.076   1.496   6.604  0.2702  0.4286  0.0992
   11SAPS   C26 1376   6.145   1.476   6.798  0.5600  0.3329 -0.1594
   11SAPS   H6R 1377   6.243   1.517   6.767  1.1140  0.0457  1.1444
   11SAPS   C27 1378   6.145   1.430   6.938 -0.3714 -0.1403  0.3547
   11SAPS   H7R 1379   6.158   1.320   6.936 -3.2803 -0.5661 -1.9665
   11SAPS   H7S 1380   6.051   1.458   6.990  0.4423  0.8559  1.3643
   11SAPS   C28 1381   6.254   1.494   7.020 -0.8134  1.0688 -1.1661
   11SAPS   H8R 1382   6.346   1.510   6.961  0.9379 -2.6558  0.2168
   11SAPS   C29 1383   6.255   1.524   7.153 -0.2038 -0.2799 -0.3360
   11SAPS   H9R 1384   6.344   1.573   7.195 -1.1413 -0.5064  2.1021
   11SAPS  C210 1385   6.139   1.518   7.255 -0.0467  0.3051 -0.1214
   11SAPS  H10R 1386   6.171   1.497   7.359  0.1482  1.7676  0.1432
   11SAPS  H10S 1387   6.075   1.429   7.234 -1.7078  1.1218  1.2411
   11SAPS  C211 1388   6.057   1.643   7.274  0.2392  0.2756 -0.5030
   11SAPS  H11R 1389   5.986   1.682   7.199 -0.6235  0.8516  0.5811
   11SAPS  C212 1390   6.067   1.727   7.379  0.3835  0.4160  0.0172
   11SAPS  H12R 1391   6.012   1.822   7.374 -0.9745 -0.3726 -0.5187
   11SAPS  C213 1392   6.164   1.724   7.494  0.2896 -0.1094  0.3103
   11SAPS  H13R 1393   6.257   1.666   7.478 -0.1989 -1.5608  2.2091
   11SAPS  H13S 1394   6.100   1.657   7.557 -1.6641 -1.0646 -2.4719
   11SAPS  C214 1395   6.205   1.848   7.564 -0.8600 -0.6740 -0.6739
   11SAPS  H14R 1396   6.267   1.917   7.505 -0.8807 -1.6396 -1.8554
   11SAPS  C215 1397   6.162   1.882   7.682  0.6274 -0.3817 -0.4261
   11SAPS  H15R 1398   6.198   1.978   7.723  1.7072 -0.4616 -1.1393
   11SAPS  C216 1399   6.063   1.813   7.776 -0.0404 -0.4925 -0.1688
   11SAPS  H16R 1400   6.042   1.707   7.750 -1.8125 -0.7461  1.9605
   11SAPS  H16S 1401   5.967   1.865   7.758  0.4134  1.7499  3.0157
   11SAPS  C217 1402   6.098   1.827   7.926 -0.1508  0.0921 -0.1822
   11SAPS  H17R 1403   6.013   1.794   7.988  1.0289 -0.3157  1.2890
   11SAPS  H17S 1404   6.104   1.937   7.940  0.7076  0.3250 -1.9723
   11SAPS  C218 1405   6.216   1.760   7.980 -0.3856 -0.0393  0.2350
   11SAPS  H18R 1406   6.303   1.778   7.913 -0.2949 -0.5359  0.2157
   11SAPS  H18S 1407   6.188   1.653   7.988  2.5700 -0.9806 -0.8677
   11SAPS  C219 1408   6.251   1.817   8.124  0.3990 -0.4548  0.0717
   11SAPS  H19R 1409   6.154   1.815   8.179  0.1030 -0.8852 -0.4569
   11SAPS  H19S 1410   6.284   1.919   8.095 -2.6193  0.4341 -0.5961
   11SAPS  C220 1411   6.371   1.760   8.200 -0.4908 -0.0223 -0.6351
   11SAPS  H20R 1412   6.332   1.663   8.239  0.1369  0.8697  2.4395
   11SAPS  H20S 1413   6.406   1.818   8.287 -1.7688 -1.0385  0.6060
   11SAPS  H20T 1414   6.458   1.744   8.132 -0.9407  0.3289 -1.3066
   11SAPS   C33 1415   6.550   1.213   6.732  0.5284 -0.0446 -0.6781
   11SAPS   H3X 1416   6.551   1.317   6.772  1.4244  0.5360 -2.1341
   11SAPS   H3Y 1417   6.649   1.198   6.685  0.0678 -1.4793 -1.2493
   11SAPS   C34 1418   6.547   1.109   6.846  0.7648  0.6080  0.5443
   11SAPS   H4X 1419   6.561   1.014   6.791  3.5414  1.4056 -0.3181
   11SAPS   H4Y 1420   6.449   1.113   6.898  0.3245 -1.0110 -0.0889
   11SAPS   C35 1421   6.658   1.121   6.950 -0.2431 -0.0216  1.0296
   11SAPS   H5X 1422   6.754   1.141   6.899 -0.0203 -0.1678  1.3853
   11SAPS   H5Y 1423   6.664   1.022   7.001 -3.2768 -0.2691  1.1148
   11SAPS   C36 1424   6.626   1.229   7.053 -0.0991 -0.3451 -0.0632
   11SAPS   H6X 1425   6.521   1.219   7.088  0.2538  0.9155  1.4905
   11SAPS   H6Y 1426   6.627   1.329   7.004 -0.7791 -1.0581 -1.6016
   11SAPS   C37 1427   6.721   1.235   7.177  0.1057  0.3623  0.3600
   11SAPS   H7X 1428   6.828   1.240   7.151 -0.3335  1.0441 -1.4330
   11SAPS   H7Y 1429   6.694   1.138   7.225 -3.7734  0.8384 -0.5035
   11SAPS   C38 1430   6.693   1.357   7.270 -0.3022  0.6468 -0.5781
   11SAPS   H8X 1431   6.710   1.455   7.220 -2.4520  1.1401 -0.4405
   11SAPS   H8Y 1432   6.765   1.348   7.355 -0.5243 -1.2750 -0.5506
   11SAPS   C39 1433   6.553   1.355   7.330  0.0813 -0.4768 -0.4384
   11SAPS   H9X 1434   6.546   1.260   7.387  0.8084  0.0216  0.4957
   11SAPS   H9Y 1435   6.471   1.354   7.255 -0.6535 -3.6358  0.2790
   11SAPS  C310 1436   6.514   1.476   7.420  0.2260 -0.2614  0.9631
   11SAPS  H10X 1437   6.404   1.493   7.422 -0.1665 -2.3005 -0.6681
   11SAPS  H10Y 1438   6.566   1.565   7.377  0.5266 -1.6731 -1.8596
   11SAPS  C311 1439   6.577   1.457   7.554  0.2500 -0.2030 -0.7512
   11SAPS  H11X 1440   6.685   1.439   7.570 -0.0987 -1.0364  0.9183
   11SAPS  H11Y 1441   6.529   1.363   7.588 -0.6988  0.9162  1.1828
   11SAPS  C312 1442   6.545   1.576   7.653 -0.0128  0.3551 -0.5431
   11SAPS  H12X 1443   6.435   1.591   7.658 -0.0417 -0.1536  2.1671
   11SAPS  H12Y 1444   6.587   1.668   7.606 -1.1026  0.8450 -0.5906
   11SAPS  C313 1445   6.602   1.560   7.796  0.0453 -0.0798 -0.0466
   11SAPS  H13X 1446   6.613   1.657   7.848 -2.9876 -0.0247  0.7146
   11SAPS  H13Y 1447   6.696   1.502   7.786  0.1933  0.1289  0.1476
   11SAPS  C314 1448   6.509   1.473   7.871  0.4070  0.5493 -0.3789
   11SAPS  H14X 1449   6.499   1.377   7.816 -2.0360  1.8996 -2.5274
   11SAPS  H14Y 1450   6.405   1.511   7.863 -1.1508 -3.1624  0.2295
   11SAPS  C315 1451   6.561   1.451   8.014 -0.0580 -0.2558 -0.3048
   11SAPS  H15X 1452   6.588   1.544   8.067  1.5069 -0.7080 -0.2822
   11SAPS  H15Y 1453   6.652   1.389   8.000  0.6133  0.7692 -0.5871
   11SAPS  C316 1454   6.462   1.372   8.105 -0.4235  0.0563 -0.4094
   11SAPS  H16X 1455   6.437   1.279   8.051  2.2037 -0.1410 -1.4287
   11SAPS  H16Y 1456   6.374   1.429   8.140 -0.0480 -0.3839  1.3835
   11SAPS  C317 1457   6.529   1.314   8.238  0.1437 -0.3234  0.1719
   11SAPS  H17X 1458   6.597   1.392   8.279  1.2962 -0.2491 -1.7611
   11SAPS  H17Y 1459   6.595   1.229   8.212 -1.0352 -1.8475  1.9117
   11SAPS  C318 1460   6.422   1.262   8.333  0.2526  0.0033 -0.4108
   11SAPS  H18X 1461   6.350   1.343   8.359  1.1173 -0.1083  2.7531
   11SAPS  H18Y 1462   6.459   1.211   8.424 -2.0802 -2.9973 -0.9906
   11SAPS  H18Z 1463   6.376   1.176   8.280  1.5887 -0.6974 -0.4738
   12SAPS     N 1464   5.479   2.492   6.015 -0.2511 -0.0568 -0.2636
   12SAPS   HN1 1465   5.458   2.448   6.107  0.6026 -0.4051 -0.2285
   12SAPS   HN2 1466   5.489   2.595   6.025 -0.4185  0.0128 -0.7599
   12SAPS   HN3 1467   5.385   2.472   5.975  0.6006 -0.7082 -2.0369
   12SAPS   C12 1468   5.591   2.428   5.940 -0.1894 -0.2928 -0.6788
   12SAPS  H12A 1469   5.581   2.320   5.939  2.2652 -0.5921 -2.6029
   12SAPS   C13 1470   5.614   2.481   5.800 -0.1769  0.0976 -0.5137
   12SAPS  O13A 1471   5.534   2.563   5.743  0.0382 -0.3620 -0.1592
   12SAPS  O13B 1472   5.707   2.428   5.737 -0.6736  0.7982 -0.2508
   12SAPS   C11 1473   5.725   2.449   6.027 -0.4912 -0.5083  0.1325
   12SAPS  H11A 1474   5.757   2.555   6.016 -0.7537 -0.6474 -2.9480
   12SAPS  H11B 1475   5.795   2.384   5.969  0.4854  1.2547 -0.7462
   12SAPS     P 1476   5.725   2.258   6.202  0.2560 -0.1859  0.0976
   12SAPS   O13 1477   5.609   2.193   6.138  0.5904  0.2755 -0.1773
   12SAPS   O14 1478   5.856   2.198   6.179 -0.3684 -0.3838  0.2582
   12SAPS   O12 1479   5.718   2.412   6.169 -0.1909  0.9962 -0.2046
   12SAPS   O11 1480   5.700   2.256   6.352  0.2205 -0.3112 -0.4641
   12SAPS    C1 1481   5.741   2.367   6.437 -0.3377 -0.4152 -0.6554
   12SAPS    HA 1482   5.837   2.413   6.406 -1.4366  0.6325 -2.7693
   12SAPS    HB 1483   5.664   2.447   6.438 -1.3891 -1.3838  0.9615
   12SAPS    C2 1484   5.756   2.311   6.582  0.7652  0.3910  0.3717
   12SAPS    HS 1485   5.816   2.392   6.629  1.6478 -0.8822  1.5058
   12SAPS   O21 1486   5.832   2.184   6.579  0.0646 -0.1655 -0.0641
   12SAPS   C21 1487   5.899   2.165   6.692 -1.0539 -0.1973  0.2824
   12SAPS   O22 1488   5.908   2.244   6.783  0.2370  0.0071  0.1200
   12SAPS   C22 1489   5.964   2.018   6.700  0.6124 -0.9804 -0.3371
   12SAPS   H2R 1490   5.899   1.955   6.634 -0.3992 -0.7224  0.3829
   12SAPS   H2S 1491   6.061   2.034   6.648  0.0014 -0.6924 -1.4329
   12SAPS    C3 1492   5.617   2.291   6.646  0.1615  0.3511 -0.2124
   12SAPS    HX 1493   5.568   2.203   6.600 -0.8878  0.2992  0.9749
   12SAPS    HY 1494   5.548   2.373   6.615  0.5020  1.4076  1.6650
   12SAPS   O31 1495   5.631   2.286   6.790  0.9059  0.1247  0.0510
   12SAPS   C31 1496   5.593   2.176   6.853  0.5253  0.2525  0.0007
   12SAPS   O32 1497   5.547   2.074   6.801 -0.2787 -0.0825  0.2687
   12SAPS   C32 1498   5.610   2.186   7.004  0.0845 -0.1333 -0.7084
   12SAPS   H2X 1499   5.637   2.293   7.017  2.6443 -0.7752 -0.0987
   12SAPS   H2Y 1500   5.686   2.113   7.040  0.0981  0.5014  0.5978
   12SAPS   C23 1501   5.964   1.960   6.844  0.0534 -0.7036  0.2299
   12SAPS   H3R 1502   5.944   1.851   6.844 -0.1815 -0.6618  0.4550
   12SAPS   H3S 1503   5.889   2.014   6.907  0.5242  0.3296 -0.0626
   12SAPS   C24 1504   6.109   1.993   6.891  1.0275 -0.1385  0.1193
   12SAPS   H4R 1505   6.110   2.104   6.888  0.9954 -0.1615 -1.2386
   12SAPS   H4S 1506   6.180   1.959   6.813  1.5523  2.7122 -0.7613
   12SAPS   C25 1507   6.157   1.936   7.024  0.1840 -0.3483 -0.4126
   12SAPS   H5R 1508   6.181   1.829   7.017 -0.5824 -0.5038 -0.7316
   12SAPS   C26 1509   6.166   2.004   7.140 -0.6201  0.1798 -0.2596
   12SAPS   H6R 1510   6.192   1.944   7.228  1.1322 -1.2012 -1.6134
   12SAPS   C27 1511   6.129   2.153   7.160  0.1552  0.8010  0.0216
   12SAPS   H7R 1512   6.081   2.156   7.260  0.8608  0.1429  0.3924
   12SAPS   H7S 1513   6.061   2.191   7.081 -0.4753  1.0017  0.6481
   12SAPS   C28 1514   6.247   2.236   7.158 -0.2584  0.0056  0.0233
   12SAPS   H8R 1515   6.286   2.258   7.057 -0.5652 -1.5141 -0.4540
   12SAPS   C29 1516   6.314   2.281   7.267  0.3038  0.5095 -0.6807
   12SAPS   H9R 1517   6.398   2.345   7.239 -0.0396  1.1191 -0.3329
   12SAPS  C210 1518   6.280   2.256   7.414  0.9310  0.1016 -0.6232
   12SAPS  H10R 1519   6.372   2.244   7.474  0.4544 -0.3284  0.0287
   12SAPS  H10S 1520   6.259   2.148   7.424  1.7806 -0.1491 -1.4205
   12SAPS  C211 1521   6.177   2.356   7.480  0.2430 -0.1685  0.1148
   12SAPS  H11R 1522   6.082   2.369   7.426  1.2921  0.5962 -1.6659
   12SAPS  C212 1523   6.201   2.431   7.591  0.0426  0.7700  0.2864
   12SAPS  H12R 1524   6.131   2.514   7.606 -1.5389 -0.4941  0.1525
   12SAPS  C213 1525   6.341   2.435   7.655  0.1907 -0.2377 -0.0646
   12SAPS  H13R 1526   6.419   2.453   7.579 -0.1706  0.0328 -0.3751
   12SAPS  H13S 1527   6.368   2.338   7.702  0.7233  0.6130  1.4522
   12SAPS  C214 1528   6.335   2.547   7.759  0.1722 -0.1156  0.0773
   12SAPS  H14R 1529   6.382   2.634   7.710 -1.1802 -1.3854 -3.8597
   12SAPS  C215 1530   6.287   2.529   7.883 -0.1752 -0.0967  0.1100
   12SAPS  H15R 1531   6.295   2.615   7.950  3.2342  0.3520 -0.6923
   12SAPS  C216 1532   6.229   2.402   7.937 -0.3405  0.0913  0.2239
   12SAPS  H16R 1533   6.222   2.322   7.860  2.4931  2.5464 -2.8548
   12SAPS  H16S 1534   6.133   2.429   7.987  0.5102 -1.1889  2.7318
   12SAPS  C217 1535   6.319   2.346   8.063  0.0097 -0.5519 -0.1843
   12SAPS  H17R 1536   6.323   2.420   8.146 -1.3594  0.3897 -0.9247
   12SAPS  H17S 1537   6.421   2.319   8.029  1.6906  2.2642  2.1991
   12SAPS  C218 1538   6.243   2.225   8.120  0.1038 -0.3589 -0.0729
   12SAPS  H18R 1539   6.254   2.148   8.041  1.7464  1.2034 -1.4308
   12SAPS  H18S 1540   6.137   2.253   8.141 -0.9233 -3.6260 -0.3793
   12SAPS  C219 1541   6.299   2.180   8.250  0.2539  0.5136 -0.2922
   12SAPS  H19R 1542   6.241   2.091   8.281 -2.6876  1.7826 -1.7762
   12SAPS  H19S 1543   6.277   2.264   8.319 -1.9849  0.6035 -1.0561
   12SAPS  C220 1544   6.446   2.139   8.252 -0.3629  0.1382 -0.1937
   12SAPS  H20R 1545   6.466   2.086   8.348  0.7278  0.3934 -0.2779
   12SAPS  H20S 1546   6.506   2.232   8.263  1.0885 -0.7981  0.0097
   12SAPS  H20T 1547   6.491   2.089   8.164  0.0052 -0.7407  0.4738
   12SAPS   C33 1548   5.485   2.145   7.082  0.1125 -0.3611 -0.0001
   12SAPS   H3X 1549   5.479   2.035   7.073  0.9022 -0.3471 -0.7617
   12SAPS   H3Y 1550   5.394   2.191   7.037  0.8488  0.6186 -0.5240
   12SAPS   C34 1551   5.512   2.200   7.222 -0.3350 -0.0805  0.7436
   12SAPS   H4X 1552   5.530   2.309   7.215  1.2248 -0.3515 -0.0083
   12SAPS   H4Y 1553   5.607   2.165   7.269  0.6524  3.2933  1.5148
   12SAPS   C35 1554   5.398   2.176   7.325  0.4831 -0.3355 -1.0839
   12SAPS   H5X 1555   5.396   2.068   7.354 -1.2325 -0.2377 -0.6946
   12SAPS   H5Y 1556   5.300   2.215   7.290  0.8496 -1.7073 -3.9140
   12SAPS   C36 1557   5.424   2.233   7.466 -0.1460  0.3115 -0.0965
   12SAPS   H6X 1558   5.437   2.341   7.443 -0.9691 -0.0238 -2.3311
   12SAPS   H6Y 1559   5.522   2.197   7.505 -0.2901 -0.4228 -0.3997
   12SAPS   C37 1560   5.307   2.203   7.550  0.7148 -0.3590 -0.0592
   12SAPS   H7X 1561   5.299   2.094   7.570  0.9340 -0.1709  1.1219
   12SAPS   H7Y 1562   5.220   2.232   7.487  1.2302  0.6707 -0.3062
   12SAPS   C38 1563   5.312   2.286   7.677  0.7386  0.2941 -0.7479
   12SAPS   H8X 1564   5.331   2.390   7.644 -0.2216  0.4532 -0.8226
   12SAPS   H8Y 1565   5.393   2.263   7.749 -0.9211 -1.9928  0.5361
   12SAPS   C39 1566   5.179   2.275   7.756  0.2573  0.4113 -0.7595
   12SAPS   H9X 1567   5.170   2.169   7.787  1.6183  0.7866  1.0418
   12SAPS   H9Y 1568   5.090   2.285   7.690  0.0092 -0.0848 -0.4992
   12SAPS  C310 1569   5.181   2.379   7.870  0.1569  0.3469 -0.0819
   12SAPS  H10X 1570   5.079   2.395   7.912 -0.2387 -4.1776  1.1478
   12SAPS  H10Y 1571   5.205   2.477   7.823  2.1008 -0.5744 -1.0962
   12SAPS  C311 1572   5.272   2.340   7.979  0.1536 -0.0202 -0.6680
   12SAPS  H11X 1573   5.380   2.356   7.957  0.4377 -0.1899  0.5422
   12SAPS  H11Y 1574   5.255   2.234   8.008 -0.4412  0.4515  0.7836
   12SAPS  C312 1575   5.239   2.406   8.119 -0.2168 -0.5117 -0.0115
   12SAPS  H12X 1576   5.134   2.379   8.146  0.3226 -2.2323  0.5031
   12SAPS  H12Y 1577   5.247   2.516   8.104 -1.5945 -0.1095  1.7776
   12SAPS  C313 1578   5.309   2.369   8.247 -0.6468 -0.4881 -0.4326
   12SAPS  H13X 1579   5.251   2.425   8.323  1.6435 -2.3387  2.9050
   12SAPS  H13Y 1580   5.412   2.406   8.262 -0.6845 -1.0934  1.6239
   12SAPS  C314 1581   5.308   2.221   8.291 -0.2832  0.3040 -0.3566
   12SAPS  H14X 1582   5.375   2.170   8.219 -1.8674 -1.6094 -0.5900
   12SAPS  H14Y 1583   5.203   2.184   8.281 -0.2147  0.3368 -1.2742
   12SAPS  C315 1584   5.365   2.194   8.429 -0.0041  0.4218 -0.1448
   12SAPS  H15X 1585   5.303   2.245   8.506  0.6455  1.7839 -0.4997
   12SAPS  H15Y 1586   5.461   2.249   8.433  0.5426 -0.4477 -0.8928
   12SAPS  C316 1587   5.379   2.039   8.456  0.7113  1.0218  0.6294
   12SAPS  H16X 1588   5.428   2.029   8.555 -0.1044  0.1568  0.9590
   12SAPS  H16Y 1589   5.442   1.993   8.377  1.6291 -1.9232  2.8988
   12SAPS  C317 1590   5.242   1.965   8.457 -0.2818 -0.4784  0.3263
   12SAPS  H17X 1591   5.181   1.963   8.364 -1.1934 -1.6725  0.9197
   12SAPS  H17Y 1592   5.181   2.016   8.534  1.2361  2.5373 -0.3255
   12SAPS  C318 1593   5.259   1.823   8.502  0.4136  0.2346  0.2388
   12SAPS  H18X 1594   5.160   1.772   8.507  1.2260 -1.4754 -0.4538
   12SAPS  H18Y 1595   5.300   1.835   8.605  0.8354 -0.4316  0.1525
   12SAPS  H18Z 1596   5.334   1.764   8.445 -3.3312 -2.2299 -2.6638
   13SAPS     N 1597   5.939   0.121   6.227  0.0072  0.1315 -0.3954
   13SAPS   HN1 1598   6.014   0.193   6.229  1.0263 -0.9186  0.5521
   13SAPS   HN2 1599   5.848   0.160   6.258 -0.6908 -3.0565  2.0195
   13SAPS   HN3 1600   5.950   0.059   6.309 -2.5502 -0.5442 -0.4960
   13SAPS   C12 1601   5.927   0.046   6.099 -0.5053 -0.9971  0.5024
   13SAPS  H12A 1602   5.821   0.025   6.101 -0.6242 -0.3873  2.0682
   13SAPS   C13 1603   5.952   0.118   5.964  0.6660 -0.2729 -0.1082
   13SAPS  O13A 1604   5.978   0.242   5.956 -0.3558  0.2199  0.3452
   13SAPS  O13B 1605   5.948   0.051   5.860 -0.7231 -0.1710  0.3561
   13SAPS   C11 1606   6.018  -0.077   6.116  0.6288  0.0363 -0.2003
   13SAPS  H11A 1607   6.124  -0.052   6.136  0.4841 -0.9965  2.2912
   13SAPS  H11B 1608   6.012  -0.131   6.019 -2.6768  0.0014 -0.0762
   13SAPS     P 1609   5.862  -0.264   6.204 -0.0844 -0.2667  0.3500
   13SAPS   O13 1610   5.739  -0.192   6.151 -0.2527  0.4358  0.1956
   13SAPS   O14 1611   5.909  -0.374   6.125 -0.0918 -0.0077  0.2467
   13SAPS   O12 1612   5.977  -0.158   6.226 -0.0708 -0.7074  0.3905
   13SAPS   O11 1613   5.825  -0.317   6.348  0.1833 -0.0755  0.3076
   13SAPS    C1 1614   5.916  -0.311   6.456  0.1433  0.1410  0.4056
   13SAPS    HA 1615   5.979  -0.220   6.456 -0.9444  0.9187 -0.0647
   13SAPS    HB 1616   5.851  -0.320   6.545 -0.3008  1.3286  0.2091
   13SAPS    C2 1617   6.014  -0.430   6.440  0.6925  0.1983 -0.1264
   13SAPS    HS 1618   6.049  -0.430   6.335 -0.1709 -1.0027 -0.4322
   13SAPS   O21 1619   5.949  -0.553   6.486 -0.2467 -0.0618 -0.1540
   13SAPS   C21 1620   5.995  -0.660   6.412  0.4421  0.1576 -0.7585
   13SAPS   O22 1621   6.067  -0.658   6.318 -0.0558 -0.0192 -0.1479
   13SAPS   C22 1622   5.948  -0.794   6.483 -0.1274  0.0615 -0.7897
   13SAPS   H2R 1623   6.025  -0.797   6.563  0.3471 -3.0850 -1.2518
   13SAPS   H2S 1624   5.845  -0.788   6.524  0.0952 -1.5358  0.0665
   13SAPS    C3 1625   6.136  -0.400   6.539  0.3961 -0.3537 -0.2807
   13SAPS    HX 1626   6.191  -0.314   6.496  0.0749  1.2480  2.3496
   13SAPS    HY 1627   6.209  -0.484   6.534 -2.0117 -2.5963  0.1648
   13SAPS   O31 1628   6.093  -0.363   6.671  0.6417 -0.1802 -0.4142
   13SAPS   C31 1629   6.091  -0.459   6.763  1.1090  0.1244 -0.0002
   13SAPS   O32 1630   6.136  -0.569   6.752  0.7629  0.6226  0.2929
   13SAPS   C32 1631   6.024  -0.420   6.894  0.0402 -0.0297  0.2766
   13SAPS   H2X 1632   5.929  -0.477   6.891  0.6973 -1.1628 -2.6608
   13SAPS   H2Y 1633   5.995  -0.313   6.900 -0.1252 -0.0689  0.1776
   13SAPS   C23 1634   5.983  -0.926   6.404  0.2641 -0.3647  0.4946
   13SAPS   H3R 1635   6.087  -0.916   6.365  1.5240  0.5145  3.7574
   13SAPS   H3S 1636   5.911  -0.934   6.320 -1.0300  0.6023  1.4720
   13SAPS   C24 1637   5.974  -1.046   6.497  0.7317 -0.2741 -0.0022
   13SAPS   H4R 1638   6.033  -1.027   6.589 -2.7630  3.0622  1.8473
   13SAPS   H4S 1639   6.009  -1.144   6.458  0.3243 -0.7452  0.7721
   13SAPS   C25 1640   5.831  -1.064   6.545 -0.5063  0.3806  0.1302
   13SAPS   H5R 1641   5.758  -1.076   6.463  0.3555  0.1167 -0.6140
   13SAPS   C26 1642   5.788  -1.070   6.671 -0.7431 -0.2500  0.4411
   13SAPS   H6R 1643   5.682  -1.097   6.676 -0.7953 -0.0559  0.3866
   13SAPS   C27 1644   5.856  -1.069   6.806  0.0243 -0.2562  0.7093
   13SAPS   H7R 1645   5.955  -1.021   6.787  0.1615 -1.4992 -2.2047
   13SAPS   H7S 1646   5.884  -1.172   6.835  1.3546 -0.1828 -0.2340
   13SAPS   C28 1647   5.788  -1.001   6.923  0.0337 -0.2218 -0.3751
   13SAPS   H8R 1648   5.765  -1.067   7.007 -0.0695 -0.4407 -0.5734
   13SAPS   C29 1649   5.769  -0.871   6.952 -0.2653  0.3980 -0.2442
   13SAPS   H9R 1650   5.704  -0.852   7.038  0.7071 -1.9944  1.0914
   13SAPS  C210 1651   5.804  -0.750   6.873  0.4290  0.2457 -0.4029
   13SAPS  H10R 1652   5.872  -0.769   6.787 -0.8672 -0.1095 -1.3791
   13SAPS  H10S 1653   5.858  -0.679   6.939 -0.2489  0.0055  0.4317
   13SAPS  C211 1654   5.685  -0.672   6.817  0.1285 -0.1358  0.1287
   13SAPS  H11R 1655   5.658  -0.679   6.711  3.2950  0.1907 -0.8238
   13SAPS  C212 1656   5.625  -0.584   6.889 -0.0862 -0.0939 -1.0358
   13SAPS  H12R 1657   5.540  -0.529   6.845  0.2037  1.5214  0.3394
   13SAPS  C213 1658   5.649  -0.549   7.034  0.7405  0.0609  0.3519
   13SAPS  H13R 1659   5.725  -0.468   7.046  0.0264  1.1860 -2.1788
   13SAPS  H13S 1660   5.697  -0.633   7.089  0.3025  0.2101  0.9666
   13SAPS  C214 1661   5.521  -0.525   7.109  0.2266  0.1295 -0.5271
   13SAPS  H14R 1662   5.432  -0.524   7.044 -0.1375 -1.5098 -0.0817
   13SAPS  C215 1663   5.513  -0.508   7.241 -0.1436  0.5076  0.3524
   13SAPS  H15R 1664   5.413  -0.482   7.279 -1.3335  1.2155 -2.9188
   13SAPS  C216 1665   5.622  -0.514   7.343 -0.6016  0.2168  0.4025
   13SAPS  H16R 1666   5.602  -0.441   7.424  0.2314  0.1220  0.7025
   13SAPS  H16S 1667   5.720  -0.488   7.299 -0.2304  2.0835  2.2117
   13SAPS  C217 1668   5.631  -0.652   7.397  0.2573 -0.5265  0.0008
   13SAPS  H17R 1669   5.617  -0.733   7.323 -0.4998 -0.2573 -0.1590
   13SAPS  H17S 1670   5.554  -0.655   7.477  0.8727 -0.9864  0.5947
   13SAPS  C218 1671   5.758  -0.669   7.479 -0.1775 -0.3930  0.1131
   13SAPS  H18R 1672   5.771  -0.588   7.555 -0.2644 -0.4187  0.1557
   13SAPS  H18S 1673   5.840  -0.650   7.407  1.1555 -1.8321  1.1968
   13SAPS  C219 1674   5.767  -0.798   7.558  0.9367  0.1171 -0.4508
   13SAPS  H19R 1675   5.689  -0.784   7.635  3.3204  1.7628  1.8534
   13SAPS  H19S 1676   5.861  -0.804   7.617 -0.3738  0.2740  1.7635
   13SAPS  C220 1677   5.746  -0.930   7.477 -0.3208  0.2849  0.1461
   13SAPS  H20R 1678   5.783  -1.015   7.539 -0.6665 -0.8774 -1.1869
   13SAPS  H20S 1679   5.807  -0.917   7.385 -1.5402  0.6379 -0.6392
   13SAPS  H20T 1680   5.638  -0.944   7.454 -0.5906  0.3884  1.2725
   13SAPS   C33 1681   6.116  -0.457   7.008  0.4522 -0.0795  0.1980
   13SAPS   H3X 1682   6.203  -0.388   7.001 -0.9258  2.0507  2.4043
   13SAPS   H3Y 1683   6.163  -0.556   6.993 -0.0706 -0.1253 -1.2400
   13SAPS   C34 1684   6.038  -0.441   7.143  0.1005  0.1210 -0.2766
   13SAPS   H4X 1685   6.097  -0.501   7.215  1.2689  1.2640 -0.2498
   13SAPS   H4Y 1686   5.946  -0.499   7.121  0.6576 -0.1893 -1.9767
   13SAPS   C35 1687   6.019  -0.297   7.189 -0.5857 -0.2319  0.0624
   13SAPS   H5X 1688   5.968  -0.239   7.109 -1.8713  0.8294  1.5905
   13SAPS   H5Y 1689   6.122  -0.259   7.203 -0.1242 -1.4676  0.1084
   13SAPS   C36 1690   5.961  -0.280   7.331  0.6273  0.1774  0.3599
   13SAPS   H6X 1691   5.851  -0.296   7.332  0.6238  0.0798 -0.6927
   13SAPS   H6Y 1692   5.977  -0.172   7.350  1.3165  0.4110 -1.3543
   13SAPS   C37 1693   6.016  -0.372   7.435 -0.1984  0.0942  0.0695
   13SAPS   H7X 1694   6.126  -0.357   7.438 -0.5191  3.6435 -1.3750
   13SAPS   H7Y 1695   5.986  -0.477   7.411  0.1557  0.4535 -2.2094
   13SAPS   C38 1696   5.963  -0.343   7.577 -0.5537  0.2553 -0.1941
   13SAPS   H8X 1697   5.852  -0.354   7.583 -0.4851 -0.7566 -0.6193
   13SAPS   H8Y 1698   5.978  -0.233   7.578  2.8110 -0.0205 -2.8324
   13SAPS   C39 1699   6.048  -0.400   7.687 -0.4339  0.0993  0.1004
   13SAPS   H9X 1700   6.156  -0.379   7.669 -0.6855  1.9414  0.5281
   13SAPS   H9Y 1701   6.041  -0.510   7.678 -1.3963  0.2385 -1.1177
   13SAPS  C310 1702   5.990  -0.372   7.829 -0.2224 -0.2395 -0.0813
   13SAPS  H10X 1703   5.886  -0.412   7.835  1.2421 -4.2501  3.4378
   13SAPS  H10Y 1704   6.010  -0.268   7.860  0.4269 -0.4948  0.3786
   13SAPS  C311 1705   6.069  -0.460   7.932  0.4612 -0.1847  0.0337
   13SAPS  H11X 1706   6.178  -0.444   7.917  0.5945 -1.8293 -1.0900
   13SAPS  H11Y 1707   6.053  -0.568   7.911  0.8158 -0.3314  0.4958
   13SAPS  C312 1708   6.034  -0.427   8.075 -0.0958 -0.3098 -0.3102
   13SAPS  H12X 1709   5.924  -0.438   8.087  0.2449 -2.4543  1.2944
   13SAPS  H12Y 1710   6.057  -0.321   8.100 -2.2898 -0.4064  2.5614
   13SAPS  C313 1711   6.100  -0.515   8.181 -0.1272  0.6719 -0.0938
   13SAPS  H13X 1712   6.207  -0.489   8.175 -0.0582  0.7061  1.1832
   13SAPS  H13Y 1713   6.083  -0.622   8.155  0.1028  0.1945  1.5998
   13SAPS  C314 1714   6.064  -0.486   8.328 -0.4774  0.6872 -0.3698
   13SAPS  H14X 1715   5.958  -0.453   8.326 -0.5212  0.5230 -1.5879
   13SAPS  H14Y 1716   6.115  -0.399   8.374  0.6163 -0.6887  1.1413
   13SAPS  C315 1717   6.090  -0.602   8.420 -0.3395  0.3835 -0.5137
   13SAPS  H15X 1718   6.026  -0.689   8.393 -0.1348  1.2448 -4.3651
   13SAPS  H15Y 1719   6.051  -0.570   8.519 -1.9135  0.6010 -1.1714
   13SAPS  C316 1720   6.237  -0.629   8.452 -0.2226 -0.4539  1.2568
   13SAPS  H16X 1721   6.279  -0.537   8.497  1.0944 -0.7636  0.6935
   13SAPS  H16Y 1722   6.295  -0.639   8.358 -1.5196 -0.8337  0.4766
   13SAPS  C317 1723   6.255  -0.750   8.542 -0.5310 -0.0439  0.7446
   13SAPS  H17X 1724   6.355  -0.793   8.519 -0.9470 -0.5772 -0.1180
   13SAPS  H17Y 1725   6.188  -0.826   8.497  0.7497 -0.1648 -1.0830
   13SAPS  C318 1726   6.247  -0.721   8.695 -0.5547  0.3523  0.4020
   13SAPS  H18X 1727   6.264  -0.812   8.757 -0.5598  0.3083  0.3388
   13SAPS  H18Y 1728   6.144  -0.687   8.717 -0.8742  1.0728 -1.9317
   13SAPS  H18Z 1729   6.324  -0.650   8.731  1.4680 -0.3048 -2.2639
   14SAPS     N 1730   6.565   1.057   5.560  0.0293  0.0413 -0.4799
   14SAPS   HN1 1731   6.509   1.043   5.473  0.4785  2.1998 -1.1725
   14SAPS   HN2 1732   6.538   1.146   5.605 -1.1471 -1.7221  2.6609
   14SAPS   HN3 1733   6.663   1.066   5.527 -0.2763  3.9008 -0.7210
   14SAPS   C12 1734   6.551   0.945   5.658  0.3163  0.0774  0.0976
   14SAPS  H12A 1735   6.449   0.949   5.693  1.0337 -1.6893  2.6179
   14SAPS   C13 1736   6.587   0.803   5.609 -0.1377 -0.2369  1.1317
   14SAPS  O13A 1737   6.639   0.790   5.490  0.8195 -0.0009 -0.6536
   14SAPS  O13B 1738   6.557   0.702   5.677  0.0831 -0.1627 -0.2450
   14SAPS   C11 1739   6.645   0.968   5.785 -0.2381 -0.2542 -0.1303
   14SAPS  H11A 1740   6.748   0.978   5.745 -0.7642  1.5111 -1.1969
   14SAPS  H11B 1741   6.641   0.888   5.862 -0.2331  0.1105  0.2565
   14SAPS     P 1742   6.511   1.134   5.947  0.1593 -0.3071 -0.1196
   14SAPS   O13 1743   6.516   1.286   5.956  0.1669 -0.2183 -0.1764
   14SAPS   O14 1744   6.386   1.088   5.893  0.0073 -0.3774  0.2336
   14SAPS   O12 1745   6.627   1.092   5.850  0.3528 -0.5295  0.0622
   14SAPS   O11 1746   6.561   1.062   6.075  0.1617  0.3928 -0.1485
   14SAPS    C1 1747   6.690   1.001   6.107  0.1393  0.0655  0.4481
   14SAPS    HA 1748   6.682   0.891   6.114 -1.7395  0.2541  2.1332
   14SAPS    HB 1749   6.762   1.031   6.028 -0.6519 -0.4992 -0.5119
   14SAPS    C2 1750   6.739   1.058   6.246  0.7020  0.2202  0.0496
   14SAPS    HS 1751   6.845   1.028   6.256  1.5245  2.7638 -0.2860
   14SAPS   O21 1752   6.665   1.017   6.356 -0.1040 -0.2319  0.0741
   14SAPS   C21 1753   6.685   0.886   6.409 -0.0445  0.5384  0.3640
   14SAPS   O22 1754   6.769   0.810   6.361 -0.5292  0.6667 -0.4260
   14SAPS   C22 1755   6.599   0.866   6.534 -0.2227 -0.3105 -0.3277
   14SAPS   H2R 1756   6.624   0.959   6.590  0.1512 -0.3000 -0.5097
   14SAPS   H2S 1757   6.495   0.872   6.496  0.5768  0.6058 -2.5417
   14SAPS    C3 1758   6.737   1.214   6.245  0.3643 -0.2057 -0.1183
   14SAPS    HX 1759   6.639   1.237   6.198 -0.3472 -2.2535  0.2853
   14SAPS    HY 1760   6.819   1.246   6.178 -0.7134  1.2170 -0.8075
   14SAPS   O31 1761   6.751   1.274   6.376  0.3849 -0.0833 -0.1021
   14SAPS   C31 1762   6.735   1.410   6.364  0.2564 -0.5438 -0.3073
   14SAPS   O32 1763   6.708   1.469   6.259  0.3600  0.3844 -0.0240
   14SAPS   C32 1764   6.751   1.472   6.497 -0.7988 -0.3648 -0.2633
   14SAPS   H2X 1765   6.697   1.422   6.580  0.8008 -0.8248  0.5331
   14SAPS   H2Y 1766   6.739   1.582   6.487 -1.3325 -0.4922 -1.2300
   14SAPS   C23 1767   6.633   0.739   6.609 -0.5610  0.1441 -0.4682
   14SAPS   H3R 1768   6.618   0.645   6.551  2.0610 -0.0601 -0.9057
   14SAPS   H3S 1769   6.552   0.730   6.685  0.6070 -1.8950  0.6244
   14SAPS   C24 1770   6.768   0.739   6.691  0.2791  0.2650  0.0331
   14SAPS   H4R 1771   6.789   0.828   6.754  2.4347  0.3512 -0.7126
   14SAPS   H4S 1772   6.843   0.741   6.609  0.1041 -1.1894 -0.1907
   14SAPS   C25 1773   6.785   0.612   6.764 -0.6526 -0.2283 -0.4645
   14SAPS   H5R 1774   6.746   0.518   6.722 -0.1643  0.0810 -1.6569
   14SAPS   C26 1775   6.837   0.603   6.890  0.5437  0.0264 -0.3467
   14SAPS   H6R 1776   6.831   0.504   6.938  1.8771 -0.9925 -2.1228
   14SAPS   C27 1777   6.892   0.714   6.969 -1.1575 -0.3135 -0.7420
   14SAPS   H7R 1778   6.817   0.793   6.990 -0.0667  0.6897 -0.5064
   14SAPS   H7S 1779   6.964   0.773   6.908 -0.3157  2.3330  2.4957
   14SAPS   C28 1780   6.979   0.670   7.081 -0.7310  0.4289 -0.2768
   14SAPS   H8R 1781   7.070   0.621   7.042  0.0628 -0.3416  2.3506
   14SAPS   C29 1782   6.952   0.695   7.216  0.4054 -0.1042  0.1379
   14SAPS   H9R 1783   7.017   0.645   7.289  2.9705  1.7461 -0.7374
   14SAPS  C210 1784   6.832   0.784   7.262 -0.7861  0.6005 -0.2098
   14SAPS  H10R 1785   6.740   0.722   7.271 -1.5274  1.6807 -0.3092
   14SAPS  H10S 1786   6.808   0.861   7.186 -1.3903 -2.7472 -3.7750
   14SAPS  C211 1787   6.860   0.850   7.392 -0.3446  0.2881  0.6634
   14SAPS  H11R 1788   6.967   0.878   7.394  0.0790 -1.0882 -0.6832
   14SAPS  C212 1789   6.779   0.880   7.492 -0.0020 -0.2243  0.2815
   14SAPS  H12R 1790   6.828   0.938   7.572  1.2856  2.5515 -2.3150
   14SAPS  C213 1791   6.632   0.854   7.518  0.3659  0.1943  0.2096
   14SAPS  H13R 1792   6.600   0.799   7.610  2.6548  2.4421  2.5237
   14SAPS  H13S 1793   6.596   0.787   7.438 -0.1682  0.5859  0.1110
   14SAPS  C214 1794   6.559   0.988   7.505 -0.5270  0.1126 -0.2604
   14SAPS  H14R 1795   6.529   1.010   7.402  0.0822 -1.9790 -0.9342
   14SAPS  C215 1796   6.536   1.077   7.606 -0.1259  0.2291  0.1840
   14SAPS  H15R 1797   6.476   1.166   7.583 -0.6969 -0.0967  0.4094
   14SAPS  C216 1798   6.571   1.056   7.751  0.1828  0.1910 -0.2328
   14SAPS  H16R 1799   6.606   1.148   7.801  0.7416 -0.6606  0.9957
   14SAPS  H16S 1800   6.655   0.983   7.761  0.2737  0.0694 -1.6703
   14SAPS  C217 1801   6.458   1.000   7.839  0.2251 -0.7807  0.2611
   14SAPS  H17R 1802   6.392   0.937   7.775 -1.9789 -0.2341  1.8779
   14SAPS  H17S 1803   6.387   1.083   7.860  0.6351 -0.1668 -0.6941
   14SAPS  C218 1804   6.494   0.935   7.966 -0.4850 -0.0945  0.4814
   14SAPS  H18R 1805   6.543   1.011   8.032  0.0793 -0.6383  0.6973
   14SAPS  H18S 1806   6.565   0.852   7.950  0.3277  1.1021 -2.9027
   14SAPS  C219 1807   6.377   0.889   8.051  0.0915 -0.1574  0.8221
   14SAPS  H19R 1808   6.327   0.808   7.995 -0.9437 -0.8859  2.7038
   14SAPS  H19S 1809   6.309   0.976   8.067 -0.1422 -0.2052  0.1156
   14SAPS  C220 1810   6.408   0.837   8.186  0.7540 -0.1997  0.1457
   14SAPS  H20R 1811   6.313   0.804   8.234  0.8496 -0.8978 -0.1315
   14SAPS  H20S 1812   6.439   0.922   8.251  2.2862 -0.6962  0.1063
   14SAPS  H20T 1813   6.489   0.762   8.205  0.2883 -0.2360  2.2317
   14SAPS   C33 1814   6.888   1.459   6.561  0.7929 -0.4099 -0.2184
   14SAPS   H3X 1815   6.969   1.475   6.487 -1.4028  1.3557 -2.4063
   14SAPS   H3Y 1816   6.906   1.356   6.600  0.5078 -0.3431  0.0924
   14SAPS   C34 1817   6.899   1.555   6.677  0.0308  0.4086 -0.4430
   14SAPS   H4X 1818   6.812   1.548   6.746 -0.4909  0.6747 -1.0570
   14SAPS   H4Y 1819   6.900   1.663   6.652 -0.3710  0.2746 -1.0706
   14SAPS   C35 1820   7.023   1.505   6.759  0.2232  0.0755 -0.7247
   14SAPS   H5X 1821   7.110   1.508   6.691 -0.7485  1.3244 -1.9801
   14SAPS   H5Y 1822   7.004   1.398   6.784  0.4681  0.3445  0.7200
   14SAPS   C36 1823   7.046   1.591   6.886  0.7918  0.3356 -0.7834
   14SAPS   H6X 1824   7.047   1.701   6.871  1.7308  0.4655  0.1212
   14SAPS   H6Y 1825   7.153   1.570   6.909  0.9717  1.2624 -0.7229
   14SAPS   C37 1826   6.966   1.549   7.008  0.0002 -0.1719  0.2317
   14SAPS   H7X 1827   6.946   1.442   7.031  1.4177 -0.3686  0.6262
   14SAPS   H7Y 1828   6.864   1.592   6.997  0.5728  2.0410  2.6257
   14SAPS   C38 1829   7.015   1.626   7.129 -0.3633  0.3621 -0.2011
   14SAPS   H8X 1830   6.995   1.734   7.109 -0.6434  0.3081 -0.2100
   14SAPS   H8Y 1831   7.123   1.606   7.147 -0.3437  1.2704  0.7699
   14SAPS   C39 1832   6.948   1.584   7.260 -0.7424 -0.0844  0.1732
   14SAPS   H9X 1833   6.954   1.475   7.282  0.7976 -0.2083 -0.7352
   14SAPS   H9Y 1834   6.842   1.615   7.249 -1.4505 -1.5301  2.2352
   14SAPS  C310 1835   7.011   1.655   7.378  0.3402 -0.2853  0.5110
   14SAPS  H10X 1836   7.018   1.762   7.350  1.4506 -0.3442  0.5366
   14SAPS  H10Y 1837   7.116   1.626   7.395  1.2208  1.2475 -1.9199
   14SAPS  C311 1838   6.927   1.640   7.503  0.6427  0.1899  1.0382
   14SAPS  H11X 1839   6.906   1.532   7.519  0.2268  0.3252  1.4281
   14SAPS  H11Y 1840   6.832   1.697   7.506  1.0400  0.9448 -0.1935
   14SAPS  C312 1841   7.003   1.677   7.627 -0.8398 -0.2788 -1.0823
   14SAPS  H12X 1842   7.061   1.770   7.611 -0.0997 -0.6630 -0.7100
   14SAPS  H12Y 1843   7.084   1.603   7.648 -2.5434 -3.0329 -3.4260
   14SAPS  C313 1844   6.903   1.685   7.747 -0.2127  0.2396  0.4085
   14SAPS  H13X 1845   6.872   1.579   7.754 -2.0961  0.7168 -0.2138
   14SAPS  H13Y 1846   6.813   1.743   7.717 -0.9423 -0.7409  0.6652
   14SAPS  C314 1847   6.954   1.734   7.885  0.1024 -0.1809 -0.0455
   14SAPS  H14X 1848   6.995   1.835   7.867  2.3988 -1.1072 -0.4048
   14SAPS  H14Y 1849   7.035   1.667   7.921  0.0438  1.0981  2.7301
   14SAPS  C315 1850   6.841   1.730   7.994  0.4575  0.1016  0.4634
   14SAPS  H15X 1851   6.808   1.625   8.007 -1.9279  0.6213 -0.7702
   14SAPS  H15Y 1852   6.753   1.779   7.947 -0.1137 -1.0513  0.3017
   14SAPS  C316 1853   6.871   1.777   8.136  0.4395  0.6230 -1.3599
   14SAPS  H16X 1854   6.929   1.872   8.144 -0.3998  1.0170  0.8373
   14SAPS  H16Y 1855   6.952   1.709   8.170  0.2540  1.0514  0.0219
   14SAPS  C317 1856   6.757   1.769   8.241 -0.3409  0.5847 -0.8183
   14SAPS  H17X 1857   6.703   1.673   8.227 -2.3891  1.6294 -0.4952
   14SAPS  H17Y 1858   6.687   1.855   8.236 -0.8917  0.6265  3.5073
   14SAPS  C318 1859   6.822   1.759   8.383  0.0077 -0.0897  1.4885
   14SAPS  H18X 1860   6.866   1.658   8.397  1.2681 -0.4496 -3.2284
   14SAPS  H18Y 1861   6.733   1.767   8.449 -2.4469  0.4199 -1.6161
   14SAPS  H18Z 1862   6.888   1.843   8.413  0.5694  1.7078 -3.7155
   15SAPS     N 1863   1.891   2.929   6.070 -0.2818  0.3397  0.1688
   15SAPS   HN1 1864   1.944   3.017   6.089 -1.6225  1.1035  0.4536
   15SAPS   HN2 1865   1.960   2.854   6.052 -1.0465 -0.2361 -0.3856
   15SAPS   HN3 1866   1.837   2.938   5.982  1.3151  0.0656 -0.8894
   15SAPS   C12 1867   1.798   2.889   6.183  0.2983 -0.2551 -0.4477
   15SAPS  H12A 1868   1.855   2.898   6.275  0.4660  1.2632 -0.6783
   15SAPS   C13 1869   1.675   2.978   6.202 -0.1795  0.1517 -0.5709
   15SAPS  O13A 1870   1.670   3.095   6.153  0.1500  0.1677 -0.1200
   15SAPS  O13B 1871   1.600   2.952   6.301 -0.4290 -0.2331  0.1770
   15SAPS   C11 1872   1.761   2.743   6.152  0.4793 -1.0717 -0.8277
   15SAPS  H11A 1873   1.700   2.747   6.059  0.0547 -1.7264 -0.5881
   15SAPS  H11B 1874   1.688   2.698   6.224  0.3421 -1.8484 -1.4349
   15SAPS     P 1875   1.844   2.514   6.058 -0.4304 -0.0092  0.1106
   15SAPS   O13 1876   1.719   2.515   5.971 -0.3357  0.2458 -0.2686
   15SAPS   O14 1877   1.971   2.490   5.990 -0.0645  0.9225 -0.2111
   15SAPS   O12 1878   1.864   2.656   6.135 -0.2549  0.1809 -0.4968
   15SAPS   O11 1879   1.827   2.420   6.187  0.0488  0.2843  0.1859
   15SAPS    C1 1880   1.685   2.386   6.215  0.5631 -0.0366  0.1641
   15SAPS    HA 1881   1.616   2.468   6.185  0.1671 -0.0578  0.9948
   15SAPS    HB 1882   1.657   2.299   6.153 -0.1851 -0.6509  1.3355
   15SAPS    C2 1883   1.671   2.327   6.363  0.2735 -0.3073 -0.1438
   15SAPS    HS 1884   1.565   2.318   6.396  0.0046 -4.2789 -1.5075
   15SAPS   O21 1885   1.754   2.397   6.461 -0.6267 -0.2069  0.6969
   15SAPS   C21 1886   1.723   2.527   6.470  0.9588 -0.1774 -0.2524
   15SAPS   O22 1887   1.622   2.581   6.425 -0.3395 -0.4230  0.8904
   15SAPS   C22 1888   1.822   2.593   6.546 -0.4117 -0.1462 -0.1018
   15SAPS   H2R 1889   1.834   2.546   6.646  0.8508 -3.9999 -1.8897
   15SAPS   H2S 1890   1.925   2.585   6.504 -0.7883 -1.6288 -0.7917
   15SAPS    C3 1891   1.715   2.179   6.375 -0.0546 -0.6023  0.0774
   15SAPS    HX 1892   1.819   2.170   6.335 -0.6692  1.4509 -2.1882
   15SAPS    HY 1893   1.665   2.111   6.303 -3.2637  0.7750  0.8504
   15SAPS   O31 1894   1.704   2.128   6.512  0.5337  0.1546 -0.1988
   15SAPS   C31 1895   1.584   2.078   6.558  0.4396  0.2234 -0.0161
   15SAPS   O32 1896   1.475   2.075   6.498 -0.8711  0.4576 -0.0224
   15SAPS   C32 1897   1.621   2.028   6.703 -0.5510  0.7281  0.5860
   15SAPS   H2X 1898   1.718   2.064   6.744  0.5174 -0.8776 -0.4103
   15SAPS   H2Y 1899   1.635   1.919   6.691 -1.0497  0.8586 -1.5687
   15SAPS   C23 1900   1.792   2.739   6.580 -0.4338  0.3373 -0.5584
   15SAPS   H3R 1901   1.690   2.741   6.622 -0.7012 -1.3039 -1.0548
   15SAPS   H3S 1902   1.783   2.785   6.479 -0.2477  0.8100 -0.3588
   15SAPS   C24 1903   1.895   2.802   6.673 -0.2906 -0.8865 -0.1573
   15SAPS   H4R 1904   1.995   2.804   6.624 -0.7336  2.6474 -1.1578
   15SAPS   H4S 1905   1.894   2.737   6.763 -2.0049 -0.2057  0.3514
   15SAPS   C25 1906   1.846   2.942   6.690 -0.2441 -0.2414 -0.4685
   15SAPS   H5R 1907   1.865   3.011   6.607  0.2034  0.2598  0.0424
   15SAPS   C26 1908   1.784   2.992   6.802 -0.5165  0.4025  0.1565
   15SAPS   H6R 1909   1.759   3.099   6.794  0.8135  0.6210 -1.8420
   15SAPS   C27 1910   1.738   2.915   6.923  0.4062 -0.1566 -0.0989
   15SAPS   H7R 1911   1.745   2.805   6.909 -0.3015 -0.5000  1.9122
   15SAPS   H7S 1912   1.630   2.933   6.936  0.1910 -0.5935 -1.1647
   15SAPS   C28 1913   1.820   2.951   7.042  0.5751  0.6049 -0.0012
   15SAPS   H8R 1914   1.927   2.966   7.022  0.4602 -0.0933 -1.1911
   15SAPS   C29 1915   1.772   2.979   7.164  0.5628  0.4250 -0.3934
   15SAPS   H9R 1916   1.844   3.009   7.241 -1.7487  1.2526  1.5850
   15SAPS  C210 1917   1.624   2.966   7.201 -0.5097 -0.0131 -0.2271
   15SAPS  H10R 1918   1.569   3.041   7.140 -0.8623  0.2123  0.3607
   15SAPS  H10S 1919   1.606   3.017   7.298 -2.6393  0.4807 -0.8484
   15SAPS  C211 1920   1.563   2.831   7.201  0.2150  0.1884 -0.3053
   15SAPS  H11R 1921   1.596   2.761   7.123 -1.8197 -1.8775  0.5604
   15SAPS  C212 1922   1.466   2.785   7.282 -0.7894 -0.2328 -0.1164
   15SAPS  H12R 1923   1.433   2.680   7.275 -1.1545 -0.0217 -2.6852
   15SAPS  C213 1924   1.398   2.864   7.391  0.1099 -0.2284 -0.2166
   15SAPS  H13R 1925   1.366   2.966   7.361  0.1567  0.2438  1.2510
   15SAPS  H13S 1926   1.471   2.877   7.474 -1.3689  1.0784  0.9393
   15SAPS  C214 1927   1.280   2.786   7.450  0.2444 -0.6090  0.6126
   15SAPS  H14R 1928   1.183   2.797   7.400 -0.6786  0.6029  2.5157
   15SAPS  C215 1929   1.272   2.716   7.563  0.1758 -0.9750 -0.2229
   15SAPS  H15R 1930   1.183   2.655   7.586 -2.1811  2.2411 -0.1289
   15SAPS  C216 1931   1.385   2.698   7.664 -0.1983  0.1965 -0.1982
   15SAPS  H16R 1932   1.482   2.702   7.610  1.5279 -2.8927  2.3052
   15SAPS  H16S 1933   1.388   2.593   7.699  1.9066  0.9293  2.0758
   15SAPS  C217 1934   1.390   2.795   7.785 -0.2840  0.6590 -0.2126
   15SAPS  H17R 1935   1.293   2.828   7.829 -0.7978 -0.1445 -0.7134
   15SAPS  H17S 1936   1.437   2.890   7.750 -2.8617  1.9237 -0.5340
   15SAPS  C218 1937   1.466   2.734   7.901 -0.1132  0.3815 -0.4611
   15SAPS  H18R 1938   1.484   2.811   7.979 -0.9781  0.0161  0.1159
   15SAPS  H18S 1939   1.560   2.692   7.860  0.1840  1.7284 -1.2158
   15SAPS  C219 1940   1.384   2.619   7.978  0.3129 -0.1557  0.4353
   15SAPS  H19R 1941   1.371   2.531   7.911  0.4804  0.1232  0.0330
   15SAPS  H19S 1942   1.283   2.652   8.011  0.7910 -0.6022  2.5141
   15SAPS  C220 1943   1.462   2.578   8.107 -0.6158 -0.9674  0.0326
   15SAPS  H20R 1944   1.411   2.491   8.153 -0.5397 -1.1687 -0.2637
   15SAPS  H20S 1945   1.461   2.672   8.166 -1.4647 -1.2974  0.5593
   15SAPS  H20T 1946   1.564   2.543   8.084 -0.4659 -1.4329  1.3534
   15SAPS   C33 1947   1.502   2.029   6.802  0.4752  0.3001  0.6398
   15SAPS   H3X 1948   1.418   1.976   6.752  2.4160 -2.8331  0.4157
   15SAPS   H3Y 1949   1.467   2.133   6.820 -1.9039 -0.1203 -1.0778
   15SAPS   C34 1950   1.519   1.952   6.935  0.0375  0.0111 -0.3338
   15SAPS   H4X 1951   1.442   1.991   7.004  0.8676  0.6386  0.2560
   15SAPS   H4Y 1952   1.615   1.980   6.982 -1.2228  2.0244  1.1936
   15SAPS   C35 1953   1.515   1.798   6.921  0.4342 -0.8013  1.1270
   15SAPS   H5X 1954   1.592   1.778   6.844  1.0481  2.0116  0.8989
   15SAPS   H5Y 1955   1.414   1.774   6.881 -0.3644  0.2930  2.3866
   15SAPS   C36 1956   1.549   1.727   7.044 -0.5974  0.2139 -0.0683
   15SAPS   H6X 1957   1.659   1.715   7.052 -0.4694  0.8820 -0.6840
   15SAPS   H6Y 1958   1.511   1.623   7.041  1.6809 -0.6754 -2.0389
   15SAPS   C37 1959   1.504   1.790   7.178 -0.2005  0.9173 -0.4739
   15SAPS   H7X 1960   1.397   1.819   7.175 -0.1969  0.8525 -1.5061
   15SAPS   H7Y 1961   1.560   1.887   7.180  0.3651  0.6050 -1.0750
   15SAPS   C38 1962   1.547   1.698   7.298 -0.3289 -0.3245 -0.3514
   15SAPS   H8X 1963   1.658   1.692   7.303 -0.3864 -0.5781  1.5818
   15SAPS   H8Y 1964   1.515   1.596   7.268 -1.4043 -0.2049  0.3320
   15SAPS   C39 1965   1.474   1.736   7.432  0.0872 -0.4586 -0.0719
   15SAPS   H9X 1966   1.367   1.709   7.424  0.0101 -0.0052 -0.6907
   15SAPS   H9Y 1967   1.470   1.846   7.446  2.2506 -0.4444  0.7653
   15SAPS  C310 1968   1.526   1.651   7.547 -0.3189 -0.5822 -0.0363
   15SAPS  H10X 1969   1.636   1.651   7.558 -0.2279  0.9989 -0.7357
   15SAPS  H10Y 1970   1.496   1.552   7.505  0.6407  0.0880 -2.4610
   15SAPS  C311 1971   1.471   1.699   7.687 -0.0581 -0.0292  0.9366
   15SAPS  H11X 1972   1.361   1.705   7.673  0.0966  2.0736  0.2564
   15SAPS  H11Y 1973   1.504   1.802   7.712 -3.2462  1.0374  1.1471
   15SAPS  C312 1974   1.512   1.602   7.803  0.1021 -1.2822 -0.4130
   15SAPS  H12X 1975   1.621   1.621   7.807 -0.3195  1.3900  0.4354
   15SAPS  H12Y 1976   1.488   1.497   7.775 -2.5634 -0.6879 -0.6284
   15SAPS  C313 1977   1.453   1.633   7.946 -0.3216 -0.8482  0.0710
   15SAPS  H13X 1978   1.342   1.625   7.943 -0.2791 -1.4239 -1.7406
   15SAPS  H13Y 1979   1.473   1.741   7.959  4.1564 -1.6924  2.0182
   15SAPS  C314 1980   1.514   1.547   8.055 -0.0233 -0.0052 -0.1778
   15SAPS  H14X 1981   1.621   1.523   8.035 -0.0269 -0.2297  0.0666
   15SAPS  H14Y 1982   1.459   1.450   8.049  0.8248 -0.4858 -0.4883
   15SAPS  C315 1983   1.495   1.608   8.195 -0.1888 -0.2000 -0.4077
   15SAPS  H15X 1984   1.387   1.633   8.196  0.0349  0.7817  0.3107
   15SAPS  H15Y 1985   1.552   1.703   8.193 -1.0906  0.3677  0.3975
   15SAPS  C316 1986   1.534   1.520   8.313  0.2903 -0.1881  0.2078
   15SAPS  H16X 1987   1.639   1.484   8.303  1.0323  1.7693  0.4582
   15SAPS  H16Y 1988   1.454   1.443   8.319 -0.3522  0.5541  1.5820
   15SAPS  C317 1989   1.536   1.582   8.453 -0.2360  0.6341  0.2756
   15SAPS  H17X 1990   1.598   1.674   8.444  3.1521 -1.2183  2.4158
   15SAPS  H17Y 1991   1.600   1.520   8.520  0.3409  0.7143 -0.1908
   15SAPS  C318 1992   1.398   1.610   8.511  0.3065  0.2788  0.2505
   15SAPS  H18X 1993   1.340   1.517   8.532 -0.9531  0.9357 -0.2044
   15SAPS  H18Y 1994   1.332   1.668   8.443 -2.0835 -0.1371  2.0935
   15SAPS  H18Z 1995   1.395   1.664   8.608  0.6708  0.2991  0.2530
   16SAPS     N 1996   2.480   3.558   6.535  0.0744 -0.7515 -0.2124
   16SAPS   HN1 1997   2.429   3.497   6.468 -0.9572 -1.0550  0.8081
   16SAPS   HN2 1998   2.532   3.507   6.610  2.4013  0.6942 -0.7710
   16SAPS   HN3 1999   2.412   3.608   6.595 -1.6869 -3.4039  0.2002
   16SAPS   C12 2000   2.560   3.654   6.451 -0.9564  0.2063 -0.0109
   16SAPS  H12A 2001   2.637   3.599   6.401 -1.9277 -0.7730 -0.4637
   16SAPS   C13 2002   2.468   3.714   6.337  0.0833  0.7145 -0.2648
   16SAPS  O13A 2003   2.370   3.646   6.295 -0.7040  0.2363  0.0395
   16SAPS  O13B 2004   2.516   3.812   6.278 -0.3664  0.2779  0.6524
   16SAPS   C11 2005   2.630   3.770   6.532  0.3408  0.4674 -0.2815
   16SAPS  H11A 2006   2.552   3.836   6.575  0.4986  0.5905 -0.1791
   16SAPS  H11B 2007   2.695   3.835   6.468 -0.5467  1.5374 -0.1283
   16SAPS     P 2008   2.774   3.798   6.747  0.2105 -0.1136  0.2039
   16SAPS   O13 2009   2.834   3.708   6.848 -0.2411 -0.2522  0.0109
   16SAPS   O14 2010   2.864   3.896   6.683 -0.2640 -0.1372  0.6383
   16SAPS   O12 2011   2.703   3.704   6.635 -0.3453  0.5077 -1.1086
   16SAPS   O11 2012   2.659   3.884   6.807  0.0395  0.5467 -0.2061
   16SAPS    C1 2013   2.550   3.816   6.871 -0.4422  0.0155 -0.4946
   16SAPS    HA 2014   2.453   3.863   6.846 -0.0888  3.0766  3.0158
   16SAPS    HB 2015   2.553   3.708   6.847  2.0182 -0.5815  1.9353
   16SAPS    C2 2016   2.558   3.839   7.028 -0.2940  0.2489  0.0127
   16SAPS    HS 2017   2.650   3.795   7.073 -0.5634  1.5232  1.9262
   16SAPS   O21 2018   2.446   3.781   7.097  0.4186 -0.3118  0.5907
   16SAPS   C21 2019   2.423   3.656   7.101 -0.0825 -0.4362 -0.0930
   16SAPS   O22 2020   2.497   3.566   7.060  0.4482  0.0803  0.2768
   16SAPS   C22 2021   2.299   3.626   7.176 -0.4899  0.7697  0.7985
   16SAPS   H2R 2022   2.254   3.724   7.202 -1.5187  0.6771 -0.5085
   16SAPS   H2S 2023   2.245   3.563   7.102  2.1504 -0.5972 -0.1117
   16SAPS    C3 2024   2.557   3.997   7.047  0.1356  0.1844 -0.7536
   16SAPS    HX 2025   2.464   4.040   7.005  0.2441 -0.4459 -1.6749
   16SAPS    HY 2026   2.641   4.037   6.987 -1.6659  2.1509 -2.1139
   16SAPS   O31 2027   2.559   4.029   7.186 -0.8209 -0.1838  0.0413
   16SAPS   C31 2028   2.686   4.050   7.236  0.4812  0.1358 -0.7939
   16SAPS   O32 2029   2.789   4.038   7.171  0.2099 -0.6576 -0.1408
   16SAPS   C32 2030   2.678   4.101   7.383  0.1046 -0.7049  0.1436
   16SAPS   H2X 2031   2.575   4.094   7.424  0.5261 -1.1447  1.1465
   16SAPS   H2Y 2032   2.705   4.209   7.373 -0.7816 -0.5096 -0.2108
   16SAPS   C23 2033   2.332   3.548   7.303  0.4463 -0.1849 -0.5257
   16SAPS   H3R 2034   2.404   3.464   7.295  1.0796  0.4538 -1.9264
   16SAPS   H3S 2035   2.233   3.508   7.335  0.2894 -0.6339 -1.5176
   16SAPS   C24 2036   2.386   3.638   7.422  0.0415 -0.2468 -0.4142
   16SAPS   H4R 2037   2.319   3.726   7.421 -0.2102 -0.4152  0.6533
   16SAPS   H4S 2038   2.491   3.670   7.406  0.0951 -0.0366  0.3202
   16SAPS   C25 2039   2.379   3.564   7.553  0.3198  0.1934 -0.2247
   16SAPS   H5R 2040   2.436   3.470   7.564 -4.0559 -2.5100  1.8636
   16SAPS   C26 2041   2.309   3.595   7.660 -0.3456  0.1359  0.1500
   16SAPS   H6R 2042   2.297   3.526   7.745 -0.2694  0.8987  0.7907
   16SAPS   C27 2043   2.219   3.716   7.671 -0.3819 -0.0695  0.2155
   16SAPS   H7R 2044   2.278   3.805   7.640 -0.2159  0.8036  2.8065
   16SAPS   H7S 2045   2.202   3.735   7.779  1.2336  1.4683  0.2383
   16SAPS   C28 2046   2.094   3.718   7.590 -0.6257  0.7127  0.6675
   16SAPS   H8R 2047   2.107   3.706   7.481 -1.0050 -0.5029  0.7453
   16SAPS   C29 2048   1.970   3.721   7.630  0.0319 -0.1429  0.8490
   16SAPS   H9R 2049   1.892   3.719   7.552  1.5109  1.6408 -0.8001
   16SAPS  C210 2050   1.926   3.730   7.774 -0.1014  0.1354  0.4186
   16SAPS  H10R 2051   1.837   3.795   7.791  0.1643  0.3728  0.9176
   16SAPS  H10S 2052   1.999   3.789   7.833 -0.5887  0.9432  0.2282
   16SAPS  C211 2053   1.902   3.596   7.840  0.3839  0.1698 -0.1517
   16SAPS  H11R 2054   1.948   3.503   7.805 -0.8562 -0.9765  1.1206
   16SAPS  C212 2055   1.838   3.567   7.954  0.0929  0.0982  0.1313
   16SAPS  H12R 2056   1.846   3.466   7.997  3.3195  0.9227  1.7565
   16SAPS  C213 2057   1.780   3.663   8.051 -0.2289  0.1591  1.0984
   16SAPS  H13R 2058   1.672   3.673   8.027  0.3563  0.1665 -1.8585
   16SAPS  H13S 2059   1.821   3.765   8.034 -0.9455  0.3727  0.6201
   16SAPS  C214 2060   1.804   3.632   8.198 -0.0124 -0.4896  0.2580
   16SAPS  H14R 2061   1.877   3.706   8.235 -1.1812  0.7159  0.2036
   16SAPS  C215 2062   1.747   3.547   8.279 -0.0620 -0.9166 -0.6424
   16SAPS  H15R 2063   1.783   3.541   8.383  0.0193 -2.6531 -0.7403
   16SAPS  C216 2064   1.638   3.446   8.245 -0.0397 -0.2691  0.1723
   16SAPS  H16R 2065   1.630   3.427   8.136  0.4056  0.0065  0.0912
   16SAPS  H16S 2066   1.540   3.476   8.286  1.1619  1.8126  1.7247
   16SAPS  C217 2067   1.675   3.315   8.313  0.2205 -0.5345 -0.9542
   16SAPS  H17R 2068   1.693   3.335   8.421 -0.4669 -2.1657 -0.5030
   16SAPS  H17S 2069   1.772   3.265   8.291  0.2047 -1.6747  1.2691
   16SAPS  C218 2070   1.566   3.215   8.288  0.5077 -0.2695  0.8388
   16SAPS  H18R 2071   1.582   3.181   8.184 -0.3492 -1.1746  0.9842
   16SAPS  H18S 2072   1.470   3.269   8.271  2.1265  1.4149 -5.2120
   16SAPS  C219 2073   1.553   3.099   8.390 -0.2415  0.6708  0.4796
   16SAPS  H19R 2074   1.523   3.152   8.483  0.7206  1.3482  0.4244
   16SAPS  H19S 2075   1.657   3.067   8.411  0.8012  2.8843 -0.8445
   16SAPS  C220 2076   1.457   2.986   8.342  0.5418 -0.2171 -0.5898
   16SAPS  H20R 2077   1.473   2.904   8.416  0.7563 -0.2452 -0.6651
   16SAPS  H20S 2078   1.486   2.941   8.244  1.4984 -2.8126  0.8033
   16SAPS  H20T 2079   1.351   3.018   8.347 -0.7319 -3.8720 -0.8963
   16SAPS   C33 2080   2.774   4.031   7.475 -0.5901  0.6825 -0.3256
   16SAPS   H3X 2081   2.875   4.070   7.450 -0.5527  0.4528 -0.5296
   16SAPS   H3Y 2082   2.776   3.920   7.475  2.1329  0.6830 -0.1500
   16SAPS   C34 2083   2.755   4.066   7.621  0.2453 -0.4310 -0.6391
   16SAPS   H4X 2084   2.755   4.177   7.627 -1.3596 -0.1877 -3.3801
   16SAPS   H4Y 2085   2.838   4.028   7.684 -1.5805 -1.2689  1.4119
   16SAPS   C35 2086   2.627   3.997   7.678 -1.1830 -0.5347 -0.1209
   16SAPS   H5X 2087   2.630   3.896   7.632 -2.9152 -0.4631 -0.4426
   16SAPS   H5Y 2088   2.543   4.061   7.643  0.5062  0.9541 -1.6841
   16SAPS   C36 2089   2.620   3.986   7.834 -1.0880 -0.1425  0.7569
   16SAPS   H6X 2090   2.511   3.971   7.850 -1.1364 -0.1393  0.4334
   16SAPS   H6Y 2091   2.634   4.088   7.875 -1.0709  0.5260 -0.8467
   16SAPS   C37 2092   2.717   3.889   7.907  0.0004 -0.0349 -0.5629
   16SAPS   H7X 2093   2.814   3.943   7.920 -0.4653  0.9944 -1.1941
   16SAPS   H7Y 2094   2.734   3.802   7.841  0.3137 -0.3003 -0.1375
   16SAPS   C38 2095   2.654   3.841   8.039 -0.4758 -0.4539  0.4421
   16SAPS   H8X 2096   2.620   3.923   8.107 -2.3499 -0.7963 -0.0165
   16SAPS   H8Y 2097   2.725   3.776   8.094 -0.4991 -1.4287 -0.6555
   16SAPS   C39 2098   2.539   3.741   8.015  0.8764 -0.2444 -0.0236
   16SAPS   H9X 2099   2.569   3.670   7.935  0.9334 -1.3524  0.9451
   16SAPS   H9Y 2100   2.450   3.800   7.984  0.6254  0.4395  1.8367
   16SAPS  C310 2101   2.498   3.663   8.140 -0.2017  0.6019  0.8066
   16SAPS  H10X 2102   2.398   3.630   8.107  0.0642  0.3565  0.2211
   16SAPS  H10Y 2103   2.483   3.729   8.228 -1.8546  3.6720 -1.5661
   16SAPS  C311 2104   2.577   3.537   8.161 -0.4865  0.2659  0.1406
   16SAPS  H11X 2105   2.669   3.565   8.216 -0.2986 -0.3386  0.1471
   16SAPS  H11Y 2106   2.618   3.491   8.069  0.4619 -2.0633  1.6306
   16SAPS  C312 2107   2.518   3.430   8.252  0.2110 -0.0765  1.2622
   16SAPS  H12X 2108   2.451   3.367   8.190  1.7604 -3.5208  2.8413
   16SAPS  H12Y 2109   2.459   3.486   8.327 -0.5525  0.4263  0.3169
   16SAPS  C313 2110   2.618   3.337   8.323  0.3553  0.2141  0.0970
   16SAPS  H13X 2111   2.665   3.394   8.406 -2.0043 -0.3384  1.8950
   16SAPS  H13Y 2112   2.693   3.316   8.243 -1.6120  0.4643 -1.9036
   16SAPS  C314 2113   2.565   3.209   8.377 -0.3829 -0.7234 -0.7777
   16SAPS  H14X 2114   2.652   3.152   8.415 -1.1612 -0.0399  2.3585
   16SAPS  H14Y 2115   2.503   3.159   8.299 -0.6867 -1.8170  0.1357
   16SAPS  C315 2116   2.474   3.228   8.503 -0.5751 -0.5685  0.1745
   16SAPS  H15X 2117   2.419   3.132   8.517 -1.5281  0.0309  0.5945
   16SAPS  H15Y 2118   2.403   3.310   8.481  0.9686  0.8320  0.2100
   16SAPS  C316 2119   2.546   3.280   8.625 -0.1938 -0.6034 -1.0150
   16SAPS  H16X 2120   2.476   3.291   8.711 -0.0374 -0.7204 -0.8709
   16SAPS  H16Y 2121   2.597   3.378   8.612  0.7775 -0.5379  2.2419
   16SAPS  C317 2122   2.658   3.184   8.674 -0.1924  0.5850  0.0266
   16SAPS  H17X 2123   2.710   3.225   8.764 -1.1498  0.7542  0.5149
   16SAPS  H17Y 2124   2.731   3.179   8.591 -0.1314  0.3736  0.0919
   16SAPS  C318 2125   2.620   3.043   8.727  0.5258  0.4663  0.0256
   16SAPS  H18X 2126   2.704   2.990   8.777  0.1681 -0.4563 -0.3216
   16SAPS  H18Y 2127   2.585   2.980   8.642 -1.5411  2.9596 -1.0874
   16SAPS  H18Z 2128   2.536   3.045   8.799  0.9562 -1.0979  0.6264
   17SAPC     N 2129   5.886   6.035  10.771  0.0111 -1.0109  0.4567
   17SAPC   C12 2130   5.904   6.047  10.620  0.4551  0.4371 -0.7486
   17SAPC  H12A 2131   5.882   6.151  10.603 -1.4755  0.7034  2.4396
   17SAPC  H12B 2132   5.838   5.978  10.570 -0.1352  0.9601 -0.7064
   17SAPC   C13 2133   5.972   6.135  10.842 -0.3447 -1.1418  0.1810
   17SAPC  H13A 2134   5.948   6.143  10.947 -0.9066 -0.7979  0.0325
   17SAPC  H13B 2135   6.078   6.114  10.844  0.2511 -0.0329 -5.0190
   17SAPC  H13C 2136   5.969   6.233  10.796  2.3609  0.1783  2.5109
   17SAPC   C14 2137   5.745   6.055  10.817 -0.8628  0.7452  1.2811
   17SAPC  H14A 2138   5.696   6.149  10.796 -0.5789  0.3159 -1.7324
   17SAPC  H14B 2139   5.682   5.973  10.785  0.2226  0.4980 -0.3241
   17SAPC  H14C 2140   5.733   6.052  10.925 -1.0421  0.4707  1.2560
   17SAPC   C15 2141   5.935   5.898  10.814 -0.4002 -0.4938  0.5439
   17SAPC  H15A 2142   5.923   5.880  10.920 -0.2356 -2.3547  0.2651
   17SAPC  H15B 2143   5.876   5.826  10.760 -0.5975  0.4726 -0.5630
   17SAPC  H15C 2144   6.033   5.875  10.775 -1.0635 -0.2181 -1.3880
   17SAPC   C11 2145   6.040   6.025  10.561  0.1250  0.1747  0.5249
   17SAPC  H11A 2146   6.123   6.077  10.613  1.2406  0.1988 -1.1989
   17SAPC  H11B 2147   6.039   6.058  10.455  0.2502 -0.4228  0.3340
   17SAPC     P 2148   5.965   5.779  10.475 -0.0593 -0.3958  0.4252
   17SAPC   O13 2149   5.915   5.681  10.565  1.0242 -0.2170 -0.8030
   17SAPC   O14 2150   5.865   5.861  10.406 -0.6845 -0.0970 -0.2195
   17SAPC   O12 2151   6.064   5.878  10.561 -0.1203  0.2840  0.6761
   17SAPC   O11 2152   6.060   5.700  10.376 -0.9078  0.2198  0.5020
   17SAPC    C1 2153   6.109   5.774  10.255  0.0922  0.2098 -0.4439
   17SAPC    HA 2154   6.109   5.883  10.274  1.0793  0.0058  0.9075
   17SAPC    HB 2155   6.208   5.733  10.226  1.3507  1.5892  1.5871
   17SAPC    C2 2156   6.017   5.739  10.142 -0.0083  0.5962  0.6955
   17SAPC    HS 2157   5.920   5.790  10.161 -0.0930  0.7091 -0.0131
   17SAPC   O21 2158   5.996   5.597  10.122 -0.3630 -0.3172  0.3181
   17SAPC   C21 2159   5.876   5.549  10.102  0.1465  0.1148  0.3418
   17SAPC   O22 2160   5.772   5.611  10.112 -0.4278  0.0974  0.8403
   17SAPC   C22 2161   5.888   5.408  10.060 -0.5711 -0.1698  0.5368
   17SAPC   H2R 2162   5.982   5.386  10.005  0.6902  0.1188  2.4591
   17SAPC   H2S 2163   5.887   5.353  10.157 -0.8186  0.2381  0.7658
   17SAPC    C3 2164   6.065   5.793  10.004  0.6577  0.3488  0.0937
   17SAPC    HX 2165   6.162   5.744   9.982  1.2931  1.6320 -0.0089
   17SAPC    HY 2166   6.084   5.902   9.999 -0.7851  0.5722 -2.1029
   17SAPC   O31 2167   5.972   5.744   9.908  0.0787 -0.5200  0.1704
   17SAPC   C31 2168   5.860   5.825   9.888  0.7684 -0.9810 -0.2439
   17SAPC   O32 2169   5.832   5.921   9.963  0.3337  0.1508  0.0771
   17SAPC   C32 2170   5.771   5.789   9.769 -0.3113 -0.2810 -0.5110
   17SAPC   H2X 2171   5.791   5.683   9.746  1.5314 -0.1905  0.4598
   17SAPC   H2Y 2172   5.806   5.840   9.677 -1.7862 -1.4832 -1.7875
   17SAPC   C23 2173   5.754   5.358   9.995  0.2965 -0.4298 -0.1324
   17SAPC   H3R 2174   5.660   5.410  10.022  0.5826  0.1041 -0.1559
   17SAPC   H3S 2175   5.753   5.252  10.028  2.8578 -0.5098 -0.0931
   17SAPC   C24 2176   5.772   5.367   9.843 -0.1019 -0.6904 -0.5355
   17SAPC   H4R 2177   5.807   5.471   9.825 -1.4226 -0.2041 -0.3971
   17SAPC   H4S 2178   5.673   5.351   9.797  0.0896 -2.5373 -0.3812
   17SAPC   C25 2179   5.870   5.275   9.778 -0.4209 -0.3994  0.5068
   17SAPC   H5R 2180   5.890   5.199   9.855 -0.9047 -1.7893 -0.6824
   17SAPC   C26 2181   5.951   5.296   9.674 -0.4189 -0.5524  0.0171
   17SAPC   H6R 2182   6.018   5.215   9.642 -0.4019 -0.1565 -1.0034
   17SAPC   C27 2183   5.951   5.418   9.587 -0.0120  0.2719  0.0544
   17SAPC   H7R 2184   5.850   5.464   9.586  0.4605  1.4590 -2.2329
   17SAPC   H7S 2185   5.989   5.385   9.488 -1.5748 -2.0383  0.1613
   17SAPC   C28 2186   6.047   5.519   9.646  0.8685  0.3642 -0.4612
   17SAPC   H8R 2187   6.065   5.517   9.755 -0.7841 -0.3063 -0.1708
   17SAPC   C29 2188   6.086   5.627   9.574 -0.5066 -0.0278 -0.2751
   17SAPC   H9R 2189   6.160   5.696   9.619  1.0582 -0.0999 -2.5758
   17SAPC  C210 2190   6.059   5.650   9.426  0.1097  0.3000 -0.0691
   17SAPC  H10R 2191   6.012   5.561   9.379  3.3863 -1.1719 -0.8179
   17SAPC  H10S 2192   6.153   5.670   9.370  1.7678 -0.7534  2.2024
   17SAPC  C211 2193   5.967   5.764   9.410 -0.4219 -0.3638  0.4128
   17SAPC  H11R 2194   6.005   5.856   9.457 -0.9779 -0.6263  1.4058
   17SAPC  C212 2195   5.851   5.767   9.349  0.5213  0.8527  0.0660
   17SAPC  H12R 2196   5.802   5.864   9.370  1.2186  0.7295  2.7137
   17SAPC  C213 2197   5.780   5.657   9.273  0.3186  0.2169 -0.2334
   17SAPC  H13R 2198   5.841   5.564   9.267  0.0875  0.0494  0.0025
   17SAPC  H13S 2199   5.773   5.675   9.163  0.8626  0.6180 -0.2078
   17SAPC  C214 2200   5.655   5.619   9.339  0.0709 -0.5471 -0.7273
   17SAPC  H14R 2201   5.663   5.536   9.411 -0.3613 -0.6111 -0.7503
   17SAPC  C215 2202   5.532   5.662   9.316 -0.0899  0.3479 -0.7779
   17SAPC  H15R 2203   5.460   5.624   9.390  0.6734 -0.8759 -0.6313
   17SAPC  C216 2204   5.482   5.764   9.223 -0.4320  0.2224 -0.4157
   17SAPC  H16R 2205   5.548   5.854   9.216 -0.0356 -0.1152 -1.0341
   17SAPC  H16S 2206   5.392   5.816   9.262  0.9653  3.1446 -0.7754
   17SAPC  C217 2207   5.442   5.703   9.083  0.2218 -0.1660  0.0518
   17SAPC  H17R 2208   5.356   5.636   9.101  0.8267 -1.0775 -0.3799
   17SAPC  H17S 2209   5.525   5.640   9.043 -0.1587 -0.0298 -0.9764
   17SAPC  C218 2210   5.392   5.809   8.980  0.0064  0.6578  0.6163
   17SAPC  H18R 2211   5.460   5.894   8.964 -1.8177  2.0192 -0.2863
   17SAPC  H18S 2212   5.293   5.842   9.020 -0.9288 -1.4546  0.2003
   17SAPC  C219 2213   5.371   5.728   8.838  0.8083 -0.1283 -0.5776
   17SAPC  H19R 2214   5.293   5.651   8.853  2.6381 -1.8641  0.6551
   17SAPC  H19S 2215   5.468   5.674   8.824  1.3025  0.5563  0.1165
   17SAPC  C220 2216   5.337   5.824   8.724 -0.0748 -0.7023  0.0360
   17SAPC  H20R 2217   5.308   5.762   8.636  2.4826 -1.9425 -0.0294
   17SAPC  H20S 2218   5.432   5.879   8.707 -0.3242 -0.4556 -0.5844
   17SAPC  H20T 2219   5.259   5.899   8.746  2.0140  0.6666  3.8177
   17SAPC   C33 2220   5.629   5.816   9.797 -0.2171 -0.3851  0.1934
   17SAPC   H3X 2221   5.619   5.927   9.800 -1.7997 -0.5155  0.7881
   17SAPC   H3Y 2222   5.599   5.760   9.887  2.1493  0.6057  1.6815
   17SAPC   C34 2223   5.544   5.780   9.662 -0.5746  0.3932 -0.4416
   17SAPC   H4X 2224   5.527   5.670   9.665 -0.2256  0.3416 -0.3540
   17SAPC   H4Y 2225   5.604   5.798   9.571 -1.3908 -0.7076 -1.2289
   17SAPC   C35 2226   5.416   5.849   9.644 -0.2811  0.3166  0.0176
   17SAPC   H5X 2227   5.351   5.815   9.728  2.3648 -2.3900  1.1684
   17SAPC   H5Y 2228   5.359   5.815   9.555  0.3795 -3.2575  0.8086
   17SAPC   C36 2229   5.441   6.003   9.643 -0.2705 -0.3177  0.6389
   17SAPC   H6X 2230   5.531   6.021   9.579  1.1909 -1.8743  2.1568
   17SAPC   H6Y 2231   5.467   6.043   9.743 -0.2040  1.2741  0.0283
   17SAPC   C37 2232   5.319   6.073   9.582  0.4349 -0.2254  0.2248
   17SAPC   H7X 2233   5.226   6.056   9.641  0.6992 -0.5660  0.5471
   17SAPC   H7Y 2234   5.294   6.016   9.489 -0.7918 -1.4988  1.2942
   17SAPC   C38 2235   5.330   6.225   9.573 -0.7370 -0.0739  0.0249
   17SAPC   H8X 2236   5.421   6.249   9.514 -0.6300  2.7041  1.1671
   17SAPC   H8Y 2237   5.349   6.260   9.676  1.2474 -1.2159  0.0955
   17SAPC   C39 2238   5.213   6.304   9.512 -0.1153 -0.3768  0.2338
   17SAPC   H9X 2239   5.115   6.274   9.554  0.0381 -2.2356 -0.6844
   17SAPC   H9Y 2240   5.202   6.286   9.403 -0.4402  2.0622 -0.2037
   17SAPC  C310 2241   5.233   6.453   9.545  0.3066  0.8161 -0.1060
   17SAPC  H10X 2242   5.326   6.495   9.501  1.1759 -1.9572 -1.1609
   17SAPC  H10Y 2243   5.256   6.454   9.654  1.8858 -1.9358 -0.3182
   17SAPC  C311 2244   5.111   6.539   9.510 -0.2314  0.6461  0.8499
   17SAPC  H11X 2245   5.031   6.524   9.585 -0.9889  1.8715  0.2991
   17SAPC  H11Y 2246   5.061   6.502   9.418 -1.4875  2.6145  0.6949
   17SAPC  C312 2247   5.128   6.689   9.504  0.2414  0.1241 -0.5931
   17SAPC  H12X 2248   5.177   6.709   9.407  0.0624 -0.8381 -0.8939
   17SAPC  H12Y 2249   5.181   6.731   9.592 -1.6608  0.3189  0.5297
   17SAPC  C313 2250   4.987   6.755   9.504  0.1070 -0.3728  0.1095
   17SAPC  H13X 2251   4.920   6.698   9.572 -1.7703  1.3388 -0.1808
   17SAPC  H13Y 2252   4.952   6.752   9.399 -0.1064 -0.7392  0.1884
   17SAPC  C314 2253   4.985   6.896   9.559 -0.0358  0.5002 -0.4340
   17SAPC  H14X 2254   5.023   6.898   9.664 -0.8766 -1.5350 -0.0329
   17SAPC  H14Y 2255   4.884   6.941   9.564  1.2003  3.3653  0.8735
   17SAPC  C315 2256   5.070   6.997   9.479  0.2454 -0.5974 -0.2689
   17SAPC  H15X 2257   5.056   6.961   9.375 -1.6493  0.2669 -0.3577
   17SAPC  H15Y 2258   5.179   6.990   9.500  0.1993  0.3327  0.3558
   17SAPC  C316 2259   5.009   7.142   9.480 -0.2482  0.3080 -0.3547
   17SAPC  H16X 2260   4.997   7.171   9.586 -1.7759 -1.4871  0.0217
   17SAPC  H16Y 2261   4.905   7.127   9.444 -0.8278 -0.1712  1.4126
   17SAPC  C317 2262   5.074   7.254   9.390  0.4661 -0.6266  1.0141
   17SAPC  H17X 2263   5.166   7.285   9.444  1.3629  0.2795 -0.9670
   17SAPC  H17Y 2264   5.005   7.341   9.397  0.0047 -0.8951  0.0251
   17SAPC  C318 2265   5.108   7.208   9.251  0.2746 -0.0481  0.3099
   17SAPC  H18X 2266   5.189   7.277   9.219 -0.9536  1.3030 -0.0198
   17SAPC  H18Y 2267   5.153   7.108   9.237 -2.1540 -1.3658  1.3450
   17SAPC  H18Z 2268   5.019   7.220   9.186  2.0685  2.7673 -1.8454
   18SAPC     N 2269   6.471   6.175  10.533  0.2336 -0.2526  0.2701
   18SAPC   C12 2270   6.609   6.137  10.478 -0.1993  0.0834  0.7064
   18SAPC  H12A 2271   6.612   6.169  10.375  0.9306 -2.8766 -0.2767
   18SAPC  H12B 2272   6.613   6.029  10.470 -0.1069  0.2120 -1.5779
   18SAPC   C13 2273   6.359   6.102  10.460  0.1389 -0.0995 -0.4330
   18SAPC  H13A 2274   6.386   6.124  10.357 -2.3979  1.6395 -0.8306
   18SAPC  H13B 2275   6.358   5.995  10.475 -0.9470  0.1894  1.8540
   18SAPC  H13C 2276   6.265   6.137  10.499  0.5116 -0.0535  0.4396
   18SAPC   C14 2277   6.445   6.140  10.676 -0.6570 -0.5710  0.0823
   18SAPC  H14A 2278   6.361   6.193  10.719 -2.0348 -2.7152  0.1789
   18SAPC  H14B 2279   6.422   6.036  10.696 -0.3505 -0.5417  0.5936
   18SAPC  H14C 2280   6.520   6.175  10.746 -0.7714  0.2216 -0.1812
   18SAPC   C15 2281   6.443   6.320  10.506  0.2035  0.0286  0.2615
   18SAPC  H15A 2282   6.476   6.346  10.406  2.2803 -0.0911  0.8889
   18SAPC  H15B 2283   6.336   6.334  10.507  0.4155  1.9291  0.0871
   18SAPC  H15C 2284   6.497   6.381  10.576 -0.5523  1.7950 -0.6145
   18SAPC   C11 2285   6.736   6.191  10.546  1.0570 -0.0332 -0.8841
   18SAPC  H11A 2286   6.835   6.156  10.511  1.0076 -1.5969  0.4067
   18SAPC  H11B 2287   6.725   6.156  10.651  0.1034  1.6842 -0.3704
   18SAPC     P 2288   6.853   6.416  10.610 -0.0218  0.3800  0.4736
   18SAPC   O13 2289   6.854   6.385  10.758 -0.1406 -1.0443 -0.5640
   18SAPC   O14 2290   6.970   6.379  10.529  0.3429  0.1060  0.3966
   18SAPC   O12 2291   6.731   6.336  10.548  0.1041  0.0841  0.0185
   18SAPC   O11 2292   6.826   6.565  10.577 -0.2688 -0.7825 -0.3879
   18SAPC    C1 2293   6.708   6.622  10.529  0.5127 -0.9350  0.3770
   18SAPC    HA 2294   6.620   6.589  10.589  1.1311  0.1034  1.9286
   18SAPC    HB 2295   6.708   6.728  10.563  0.2602 -0.9218  0.3381
   18SAPC    C2 2296   6.685   6.629  10.373 -0.2984 -0.1438  0.3045
   18SAPC    HS 2297   6.678   6.522  10.343 -0.4774 -0.3357  0.9893
   18SAPC   O21 2298   6.785   6.710  10.312 -0.7787 -0.1752  0.0752
   18SAPC   C21 2299   6.870   6.635  10.236 -0.2519  0.7263 -0.3065
   18SAPC   O22 2300   6.871   6.514  10.221 -0.3428  0.4164 -0.5209
   18SAPC   C22 2301   6.974   6.720  10.169  0.4248  0.4949 -0.8454
   18SAPC   H2R 2302   7.005   6.790  10.250  0.3055 -1.8936  1.4325
   18SAPC   H2S 2303   7.061   6.662  10.131  0.0106 -0.9537  0.3163
   18SAPC    C3 2304   6.544   6.684  10.333  0.2764 -0.3769  0.3654
   18SAPC    HX 2305   6.524   6.789  10.362 -3.3026 -0.8562  0.0460
   18SAPC    HY 2306   6.463   6.635  10.391  0.2924  0.3495  1.0127
   18SAPC   O31 2307   6.528   6.687  10.192  0.1346  0.4604  0.4942
   18SAPC   C31 2308   6.468   6.578  10.143 -0.4911  0.2602 -0.5158
   18SAPC   O32 2309   6.435   6.480  10.211 -0.2512 -0.1803  0.0687
   18SAPC   C32 2310   6.456   6.587   9.989  0.2099 -0.1039  0.2942
   18SAPC   H2X 2311   6.432   6.695   9.974 -2.7303 -0.3118  2.4828
   18SAPC   H2Y 2312   6.379   6.519   9.946  0.8630  0.9573 -2.8404
   18SAPC   C23 2313   6.920   6.813  10.056  0.5854 -0.0499 -0.9334
   18SAPC   H3R 2314   6.866   6.897  10.104  1.7245 -0.5469  1.3827
   18SAPC   H3S 2315   6.843   6.760   9.997 -0.5892 -0.3322  0.7847
   18SAPC   C24 2316   7.035   6.865   9.969  0.4244 -0.8701  0.0519
   18SAPC   H4R 2317   7.110   6.787   9.945 -0.8393 -2.3372  0.7107
   18SAPC   H4S 2318   7.092   6.928  10.040 -1.0850 -0.9018  1.3554
   18SAPC   C25 2319   6.974   6.950   9.855  0.0963  0.2371  0.0966
   18SAPC   H5R 2320   6.914   7.028   9.904  0.1537 -1.1449  2.5240
   18SAPC   C26 2321   6.987   6.949   9.718  0.4709 -0.0985  0.2373
   18SAPC   H6R 2322   6.938   7.026   9.658  1.3678 -0.6702 -1.2748
   18SAPC   C27 2323   7.072   6.849   9.645  0.5012  0.0526  0.5728
   18SAPC   H7R 2324   7.136   6.794   9.717  0.1438  0.0880  0.9256
   18SAPC   H7S 2325   7.138   6.907   9.578  0.0186 -1.6867 -1.4977
   18SAPC   C28 2326   6.983   6.764   9.566  0.1240 -0.0176 -0.1012
   18SAPC   H8R 2327   6.928   6.694   9.631  0.1719 -0.4615 -0.5329
   18SAPC   C29 2328   6.959   6.777   9.433  0.0975 -0.1033 -1.1034
   18SAPC   H9R 2329   6.883   6.714   9.384 -0.3751  0.0704 -0.5961
   18SAPC  C210 2330   7.025   6.884   9.338  0.8385 -0.0242  0.8047
   18SAPC  H10R 2331   7.023   6.856   9.231 -2.9040  2.1186  0.1448
   18SAPC  H10S 2332   7.135   6.876   9.355  1.2592  2.5188 -0.3540
   18SAPC  C211 2333   6.973   7.025   9.358  0.4066  0.1272  0.0761
   18SAPC  H11R 2334   6.940   7.051   9.459  0.1195 -1.0998  0.3104
   18SAPC  C212 2335   6.969   7.118   9.263 -0.7022 -0.5795  0.4185
   18SAPC  H12R 2336   6.955   7.221   9.300  1.6740 -0.0115 -0.0983
   18SAPC  C213 2337   7.010   7.110   9.116 -0.3255  0.1659  0.0209
   18SAPC  H13R 2338   6.987   7.205   9.063  0.5481  0.9117  0.9450
   18SAPC  H13S 2339   6.962   7.024   9.063 -2.0876  0.0429  1.7263
   18SAPC  C214 2340   7.158   7.085   9.098 -0.6559 -0.4584 -0.1449
   18SAPC  H14R 2341   7.200   7.028   9.182 -1.1781 -0.1533  0.3217
   18SAPC  C215 2342   7.243   7.118   8.993  0.2251 -0.9549  0.1816
   18SAPC  H15R 2343   7.343   7.072   8.995  1.0600  0.5345 -2.5420
   18SAPC  C216 2344   7.200   7.180   8.861 -0.1319 -0.2231 -0.0987
   18SAPC  H16R 2345   7.203   7.291   8.867 -1.3549 -0.2533  2.7114
   18SAPC  H16S 2346   7.098   7.152   8.825  0.0075 -0.7206 -0.1013
   18SAPC  C217 2347   7.314   7.147   8.754  0.2323 -0.0769 -0.7469
   18SAPC  H17R 2348   7.416   7.136   8.796 -0.2594  1.2864  0.9538
   18SAPC  H17S 2349   7.312   7.234   8.684  2.4372 -0.1886 -1.0072
   18SAPC  C218 2350   7.289   7.019   8.681  0.3366  0.2956  0.3322
   18SAPC  H18R 2351   7.379   6.993   8.621 -1.5608 -4.2128 -1.0183
   18SAPC  H18S 2352   7.206   7.027   8.607 -0.8494 -0.3818  1.5433
   18SAPC  C219 2353   7.265   6.890   8.765 -0.1795 -0.6608 -0.7002
   18SAPC  H19R 2354   7.166   6.895   8.816 -0.3201 -2.1344 -0.7716
   18SAPC  H19S 2355   7.345   6.890   8.841  0.4204  2.1703 -1.2145
   18SAPC  C220 2356   7.265   6.771   8.675  0.1783 -0.1874 -0.8142
   18SAPC  H20R 2357   7.218   6.798   8.578  1.9550  1.7460 -1.2104
   18SAPC  H20S 2358   7.216   6.682   8.720  2.4510 -0.5377  1.1694
   18SAPC  H20T 2359   7.369   6.735   8.657  0.7642  0.8228  0.4125
   18SAPC   C33 2360   6.591   6.570   9.917  0.6722  0.1994 -0.8785
   18SAPC   H3X 2361   6.634   6.470   9.939  1.4923  0.1858 -2.3895
   18SAPC   H3Y 2362   6.657   6.652   9.952  0.0991 -0.6401  2.5131
   18SAPC   C34 2363   6.556   6.575   9.766 -0.4659  0.3439  0.1440
   18SAPC   H4X 2364   6.490   6.660   9.742 -0.7217  0.0494 -0.1962
   18SAPC   H4Y 2365   6.496   6.482   9.756 -1.5025  1.0377 -0.1313
   18SAPC   C35 2366   6.686   6.562   9.687  0.4802  0.4364 -0.2594
   18SAPC   H5X 2367   6.759   6.496   9.738 -2.5257 -0.9024  2.6357
   18SAPC   H5Y 2368   6.721   6.667   9.672  2.3089  0.0684  1.0703
   18SAPC   C36 2369   6.667   6.484   9.558 -0.0566  0.2979  0.9286
   18SAPC   H6X 2370   6.623   6.389   9.595 -1.2667  0.7239  0.6262
   18SAPC   H6Y 2371   6.768   6.468   9.513  0.2907 -0.9087  2.0549
   18SAPC   C37 2372   6.578   6.543   9.450  0.1213 -0.3270  0.1240
   18SAPC   H7X 2373   6.644   6.627   9.421  1.5659 -0.5177  2.5476
   18SAPC   H7Y 2374   6.485   6.585   9.495 -0.1530  2.1281 -2.4626
   18SAPC   C38 2375   6.531   6.453   9.332 -0.4340 -0.9249 -0.2034
   18SAPC   H8X 2376   6.473   6.364   9.364  2.4505 -3.1865 -0.8901
   18SAPC   H8Y 2377   6.621   6.415   9.280 -0.3867  0.3349 -1.0923
   18SAPC   C39 2378   6.457   6.544   9.231  0.1100 -0.5677 -0.6557
   18SAPC   H9X 2379   6.525   6.608   9.171 -0.9850  1.0795 -0.1848
   18SAPC   H9Y 2380   6.383   6.606   9.284  1.9165  0.1055  1.2052
   18SAPC  C310 2381   6.379   6.452   9.136 -0.1374  0.2974  0.4819
   18SAPC  H10X 2382   6.328   6.365   9.183 -2.0660  0.1095 -1.7511
   18SAPC  H10Y 2383   6.457   6.401   9.075  1.4307 -1.2853  3.6089
   18SAPC  C311 2384   6.273   6.525   9.055  0.0861  0.3397  1.0919
   18SAPC  H11X 2385   6.203   6.577   9.124  0.3462 -0.7015  2.1729
   18SAPC  H11Y 2386   6.214   6.449   8.998  0.6872 -0.1699  1.1394
   18SAPC  C312 2387   6.330   6.640   8.973 -0.1652 -0.0922  0.4952
   18SAPC  H12X 2388   6.420   6.600   8.921  0.5950 -0.4332  2.0013
   18SAPC  H12Y 2389   6.353   6.729   9.035 -0.9201  1.8752 -1.8859
   18SAPC  C313 2390   6.239   6.683   8.859  0.2651  0.8716 -0.8713
   18SAPC  H13X 2391   6.149   6.727   8.908  0.5315  0.4549  0.0029
   18SAPC  H13Y 2392   6.191   6.598   8.805  0.6682  0.7094 -0.9775
   18SAPC  C314 2393   6.303   6.793   8.778 -0.0869  0.1822  0.7383
   18SAPC  H14X 2394   6.413   6.779   8.781 -0.3786 -2.5335  1.0307
   18SAPC  H14Y 2395   6.277   6.885   8.834 -1.4375  0.7138 -0.6888
   18SAPC  C315 2396   6.237   6.814   8.640 -1.1870  0.7018 -0.1886
   18SAPC  H15X 2397   6.136   6.847   8.672 -0.5815  1.6810  0.7823
   18SAPC  H15Y 2398   6.234   6.716   8.587  0.8763  1.3986 -1.7288
   18SAPC  C316 2399   6.301   6.923   8.554 -0.0575  0.2927  0.2270
   18SAPC  H16X 2400   6.395   6.884   8.509  0.3888  1.1543  0.3942
   18SAPC  H16Y 2401   6.320   7.011   8.619  0.1901 -0.0733  0.6612
   18SAPC  C317 2402   6.209   6.966   8.434  0.3287  0.3367  0.5976
   18SAPC  H17X 2403   6.121   7.021   8.473  1.6085  2.0045  1.2441
   18SAPC  H17Y 2404   6.180   6.873   8.380 -0.0970 -0.4888  2.1868
   18SAPC  C318 2405   6.280   7.040   8.321  0.0843 -0.8244 -0.3868
   18SAPC  H18X 2406   6.376   7.006   8.279 -0.2821 -1.0628 -1.0476
   18SAPC  H18Y 2407   6.293   7.139   8.370 -1.2151 -1.1652  0.7248
   18SAPC  H18Z 2408   6.207   7.053   8.238  0.7086  0.6366 -0.7382
   19SAPC     N 2409   5.433   3.077  10.762 -0.4155 -0.1178 -0.2757
   19SAPC   C12 2410   5.498   2.955  10.695 -0.8215 -0.1550 -0.2769
   19SAPC  H12A 2411   5.429   2.901  10.631 -0.2687 -2.4269  0.9288
   19SAPC  H12B 2412   5.537   2.890  10.772 -2.8658  0.1431  1.1189
   19SAPC   C13 2413   5.370   3.171  10.652  0.7523 -0.5393 -0.3634
   19SAPC  H13A 2414   5.309   3.118  10.580 -0.7629 -1.0261  1.1965
   19SAPC  H13B 2415   5.298   3.241  10.694  0.6876 -1.6594  1.5271
   19SAPC  H13C 2416   5.449   3.224  10.602  2.2413 -1.8813  0.4804
   19SAPC   C14 2417   5.328   3.029  10.860  0.2833  0.4311 -0.5618
   19SAPC  H14A 2418   5.294   3.122  10.902  1.5751 -0.7185  3.4373
   19SAPC  H14B 2419   5.246   2.977  10.812 -0.5154 -0.0399  1.2302
   19SAPC  H14C 2420   5.369   2.974  10.943 -1.0617  1.2622  0.6979
   19SAPC   C15 2421   5.536   3.152  10.852  0.0255 -0.3469  0.8661
   19SAPC  H15A 2422   5.622   3.183  10.796 -0.5615  1.3879  0.8883
   19SAPC  H15B 2423   5.491   3.229  10.913 -1.3760 -0.7623  0.4045
   19SAPC  H15C 2424   5.583   3.085  10.922  0.8126 -0.2310  0.4570
   19SAPC   C11 2425   5.628   2.983  10.606 -0.1492  0.4284 -0.1940
   19SAPC  H11A 2426   5.593   3.054  10.528 -0.8182  0.7410  0.3716
   19SAPC  H11B 2427   5.652   2.893  10.546  0.5391  0.1398  0.4986
   19SAPC     P 2428   5.808   2.934  10.790  0.2129  0.6744 -0.1941
   19SAPC   O13 2429   5.803   3.001  10.919  0.6770  0.1152 -0.5638
   19SAPC   O14 2430   5.754   2.796  10.784  0.4045 -0.1287  0.1595
   19SAPC   O12 2431   5.742   3.028  10.679  1.2370  0.4834 -0.0173
   19SAPC   O11 2432   5.954   2.925  10.730 -0.0867  0.3375 -0.2188
   19SAPC    C1 2433   6.005   2.995  10.622 -0.3655  0.1352  0.1983
   19SAPC    HA 2434   6.002   3.104  10.645  0.1157 -0.2043  2.0707
   19SAPC    HB 2435   6.111   2.967  10.610 -0.4027  0.3249 -0.6201
   19SAPC    C2 2436   5.961   2.940  10.481  0.9729 -0.2381 -0.7953
   19SAPC    HS 2437   5.862   2.985  10.460  0.5884  0.1444  1.5767
   19SAPC   O21 2438   5.952   2.803  10.488  0.6202  0.3655 -0.7258
   19SAPC   C21 2439   5.876   2.732  10.403 -0.1589 -0.6511 -0.3916
   19SAPC   O22 2440   5.784   2.776  10.341 -0.1651 -0.4453  0.5294
   19SAPC   C22 2441   5.922   2.586  10.410  0.3832 -0.6524 -0.1173
   19SAPC   H2R 2442   6.033   2.585  10.406  0.4433  1.7998 -0.4279
   19SAPC   H2S 2443   5.878   2.557  10.508 -3.4363  2.2867 -0.7277
   19SAPC    C3 2444   6.068   2.987  10.379  0.5967 -0.5633 -0.9720
   19SAPC    HX 2445   6.161   2.935  10.409  0.3149 -1.3285 -1.3693
   19SAPC    HY 2446   6.098   3.093  10.385 -2.3929  0.2944  1.9879
   19SAPC   O31 2447   6.037   2.945  10.250 -0.2410  0.5577 -0.1431
   19SAPC   C31 2448   5.945   3.015  10.185 -0.3077  0.0657  1.0822
   19SAPC   O32 2449   5.896   3.115  10.231 -0.2940 -0.4620 -0.3951
   19SAPC   C32 2450   5.914   2.952  10.050 -0.8478 -0.0375 -0.6559
   19SAPC   H2X 2451   5.913   2.842  10.063  0.9018  0.0760  1.0139
   19SAPC   H2Y 2452   5.997   2.985   9.985 -1.9378  0.7698 -1.6864
   19SAPC   C23 2453   5.857   2.498  10.298 -0.0098 -0.7035  0.7849
   19SAPC   H3R 2454   5.752   2.535  10.300  0.3855  0.4864  0.5287
   19SAPC   H3S 2455   5.865   2.391  10.328  2.1106 -1.1426 -1.0153
   19SAPC   C24 2456   5.914   2.519  10.156 -0.3307  0.0465  0.1461
   19SAPC   H4R 2457   6.023   2.501  10.147 -0.7572 -2.7450 -0.1466
   19SAPC   H4S 2458   5.893   2.626  10.133  0.1774  0.7077  2.4785
   19SAPC   C25 2459   5.841   2.418  10.068 -0.0633  0.0314  0.5694
   19SAPC   H5R 2460   5.851   2.314  10.102  0.9010 -0.0997 -0.0930
   19SAPC   C26 2461   5.777   2.447   9.956  0.9937  0.1342 -0.3973
   19SAPC   H6R 2462   5.720   2.363   9.914  1.4827  0.2588 -1.3294
   19SAPC   C27 2463   5.746   2.577   9.892  0.7279 -0.9975 -0.1762
   19SAPC   H7R 2464   5.833   2.647   9.893  1.0057 -1.2617 -2.1169
   19SAPC   H7S 2465   5.660   2.624   9.945 -0.0676 -0.1130 -2.1478
   19SAPC   C28 2466   5.698   2.570   9.748  0.1080 -0.1114 -0.4713
   19SAPC   H8R 2467   5.602   2.621   9.733  1.7621  2.8980 -1.8404
   19SAPC   C29 2468   5.744   2.508   9.634  0.2372 -0.1275 -0.5703
   19SAPC   H9R 2469   5.679   2.517   9.546  0.4273 -1.6614 -0.8776
   19SAPC  C210 2470   5.874   2.424   9.615  0.0344 -0.1614 -0.4869
   19SAPC  H10R 2471   5.852   2.315   9.615 -1.6345  0.0856  2.0930
   19SAPC  H10S 2472   5.937   2.441   9.705  0.6359 -0.5472 -0.8296
   19SAPC  C211 2473   5.942   2.450   9.482 -0.1951  0.3485 -0.1337
   19SAPC  H11R 2474   6.004   2.541   9.482  1.7787 -0.9354  0.3927
   19SAPC  C212 2475   5.958   2.367   9.376  0.2170 -0.0292 -0.3199
   19SAPC  H12R 2476   6.016   2.405   9.290  1.2955 -1.1645 -0.1337
   19SAPC  C213 2477   5.910   2.228   9.358 -0.0953 -0.6764 -0.4240
   19SAPC  H13R 2478   5.826   2.212   9.287 -0.5499 -1.4577  0.2746
   19SAPC  H13S 2479   5.868   2.188   9.453  2.0142 -2.0950 -0.0250
   19SAPC  C214 2480   6.016   2.137   9.315 -0.3320  0.1862  0.0863
   19SAPC  H14R 2481   6.101   2.145   9.384  2.2914  1.6131 -3.0311
   19SAPC  C215 2482   6.010   2.033   9.232  0.2363  0.6906 -0.1469
   19SAPC  H15R 2483   6.100   1.972   9.214 -0.5073  0.0501 -2.0028
   19SAPC  C216 2484   5.893   1.985   9.152  0.3541  0.5535  0.4556
   19SAPC  H16R 2485   5.805   1.968   9.218  0.9966  0.1528  1.2371
   19SAPC  H16S 2486   5.910   1.896   9.087  2.6043  1.8901 -0.9291
   19SAPC  C217 2487   5.856   2.094   9.046 -0.9550  0.0062  0.9227
   19SAPC  H17R 2488   5.927   2.073   8.963 -1.6988  0.4313  0.1587
   19SAPC  H17S 2489   5.879   2.201   9.067 -0.1297 -0.0037  0.1600
   19SAPC  C218 2490   5.718   2.072   8.986  0.2673  0.7314 -0.7604
   19SAPC  H18R 2491   5.642   2.139   9.032 -0.6590 -0.5328 -0.3873
   19SAPC  H18S 2492   5.696   1.965   9.009  4.2978 -0.0476  0.2169
   19SAPC  C219 2493   5.718   2.111   8.837 -0.0418  0.3300  0.0266
   19SAPC  H19R 2494   5.793   2.055   8.777 -1.5710  1.5854 -3.3478
   19SAPC  H19S 2495   5.762   2.213   8.848 -1.9347  1.1141  0.7391
   19SAPC  C220 2496   5.592   2.105   8.757 -0.3048  0.1877  0.3280
   19SAPC  H20R 2497   5.545   2.005   8.751 -2.2806  0.8612  2.5524
   19SAPC  H20S 2498   5.600   2.143   8.653 -0.1035 -1.3904 -0.2635
   19SAPC  H20T 2499   5.518   2.178   8.798 -3.3599 -0.8269 -2.8721
   19SAPC   C33 2500   5.781   3.012   9.993  0.0142  0.4500  0.0191
   19SAPC   H3X 2501   5.807   3.117   9.967 -0.8160  0.9732  1.1853
   19SAPC   H3Y 2502   5.705   3.024  10.073 -0.5349  0.2050 -0.4628
   19SAPC   C34 2503   5.735   2.929   9.875 -0.3500 -0.1176 -0.5963
   19SAPC   H4X 2504   5.669   2.846   9.907  0.9760 -0.3230  1.8540
   19SAPC   H4Y 2505   5.832   2.883   9.849 -0.5672 -0.3455 -0.9967
   19SAPC   C35 2506   5.681   3.005   9.755  0.0410  0.0503 -0.9771
   19SAPC   H5X 2507   5.765   3.070   9.726  1.8198 -0.6827  2.0551
   19SAPC   H5Y 2508   5.596   3.070   9.787  0.7743  0.8454 -0.6237
   19SAPC   C36 2509   5.637   2.904   9.644 -0.0736  0.0854  0.4878
   19SAPC   H6X 2510   5.563   2.828   9.678  0.5332 -0.2007  1.2091
   19SAPC   H6Y 2511   5.731   2.852   9.617  0.5366  1.4732 -0.1500
   19SAPC   C37 2512   5.591   2.976   9.515 -0.4248 -0.5505  0.4740
   19SAPC   H7X 2513   5.674   3.043   9.481 -1.6031  0.9102  0.3896
   19SAPC   H7Y 2514   5.502   3.035   9.545 -0.3948 -0.2345 -0.0355
   19SAPC   C38 2515   5.558   2.888   9.403 -0.2762 -0.7014 -0.7154
   19SAPC   H8X 2516   5.522   2.944   9.314  1.4006 -0.6460 -1.3955
   19SAPC   H8Y 2517   5.464   2.837   9.434 -0.7217  0.9333  0.8024
   19SAPC   C39 2518   5.674   2.801   9.352 -0.2524 -0.5290 -0.3568
   19SAPC   H9X 2519   5.720   2.756   9.442  0.9768 -0.9039 -1.1493
   19SAPC   H9Y 2520   5.753   2.872   9.317  0.8296 -0.0978  2.6729
   19SAPC  C310 2521   5.635   2.690   9.256 -0.8243  0.1081 -0.0397
   19SAPC  H10X 2522   5.594   2.748   9.170  0.6823  1.1653 -0.0715
   19SAPC  H10Y 2523   5.547   2.642   9.305 -0.7910  0.8617  0.7842
   19SAPC  C311 2524   5.743   2.596   9.201 -0.4342  0.1018  0.0317
   19SAPC  H11X 2525   5.791   2.562   9.296  2.9352  2.5742 -0.6170
   19SAPC  H11Y 2526   5.818   2.648   9.139 -0.8415  1.3965  0.6008
   19SAPC  C312 2527   5.678   2.473   9.127  0.3391 -0.3846  0.1166
   19SAPC  H12X 2528   5.620   2.414   9.201  0.1871 -3.5681 -2.2922
   19SAPC  H12Y 2529   5.753   2.395   9.098  1.7013  1.3336 -1.2164
   19SAPC  C313 2530   5.604   2.509   8.994  0.2591 -0.1443 -0.1761
   19SAPC  H13X 2531   5.523   2.584   8.992 -0.2808 -0.6848  0.7590
   19SAPC  H13Y 2532   5.568   2.414   8.949  0.0369 -0.5749  0.8860
   19SAPC  C314 2533   5.705   2.564   8.888 -0.3621 -0.1650 -0.5274
   19SAPC  H14X 2534   5.789   2.496   8.862 -0.6718 -0.2827 -1.2505
   19SAPC  H14Y 2535   5.750   2.653   8.937  1.0900 -0.6201 -0.9617
   19SAPC  C315 2536   5.634   2.611   8.761  0.2128 -0.0786  0.4148
   19SAPC  H15X 2537   5.710   2.668   8.704 -2.0193  0.6241 -2.0607
   19SAPC  H15Y 2538   5.563   2.693   8.784 -0.6149 -0.5964 -0.2156
   19SAPC  C316 2539   5.559   2.505   8.685  0.5330  0.4064 -0.3036
   19SAPC  H16X 2540   5.508   2.441   8.760  0.2435 -1.6701 -2.1610
   19SAPC  H16Y 2541   5.633   2.445   8.628  2.2303  1.2656  0.8936
   19SAPC  C317 2542   5.472   2.566   8.580 -0.1648  0.3136 -0.5232
   19SAPC  H17X 2543   5.396   2.639   8.614 -1.1144  0.3091 -2.5039
   19SAPC  H17Y 2544   5.410   2.484   8.537 -0.9204  1.2907 -1.3440
   19SAPC  C318 2545   5.555   2.623   8.463  0.0532 -0.3485  0.4679
   19SAPC  H18X 2546   5.495   2.657   8.376  0.0524 -1.5010  0.0115
   19SAPC  H18Y 2547   5.616   2.540   8.422 -1.8673 -2.0725  0.9295
   19SAPC  H18Z 2548   5.620   2.711   8.486  0.9544 -0.8399 -0.1728
   20SAPC     N 2549   6.353   5.418  11.279  0.5838 -0.7542  0.3791
   20SAPC   C12 2550   6.452   5.452  11.164 -0.4063 -0.6767  0.3384
   20SAPC  H12A 2551   6.543   5.395  11.178 -0.4400 -1.0262 -0.7282
   20SAPC  H12B 2552   6.485   5.554  11.175  0.8268 -0.7251 -2.2917
   20SAPC   C13 2553   6.245   5.523  11.274 -0.4696 -0.5796 -0.8551
   20SAPC  H13A 2554   6.173   5.518  11.193 -0.9358 -0.0227 -0.4899
   20SAPC  H13B 2555   6.182   5.514  11.362  1.3916 -2.0256  0.4156
   20SAPC  H13C 2556   6.289   5.621  11.284 -0.9034 -0.4612  0.0007
   20SAPC   C14 2557   6.286   5.285  11.275 -0.2395 -0.5353  0.2868
   20SAPC  H14A 2558   6.214   5.274  11.356 -1.7231  0.5031 -0.8459
   20SAPC  H14B 2559   6.240   5.274  11.178  1.8663 -0.2823 -0.7742
   20SAPC  H14C 2560   6.354   5.202  11.289 -1.8859 -1.6372  2.6330
   20SAPC   C15 2561   6.423   5.441  11.413 -0.0182 -0.3369 -0.7401
   20SAPC  H15A 2562   6.495   5.363  11.430  0.5613  0.1096 -1.0981
   20SAPC  H15B 2563   6.474   5.536  11.410 -2.0729  0.8138 -1.1258
   20SAPC  H15C 2564   6.353   5.450  11.495  0.3474 -0.0307 -0.4592
   20SAPC   C11 2565   6.405   5.429  11.013  0.0623 -0.3963 -0.0597
   20SAPC  H11A 2566   6.475   5.482  10.944 -1.2660  1.5740  0.0117
   20SAPC  H11B 2567   6.308   5.483  11.006  0.0974 -0.1116  1.4771
   20SAPC     P 2568   6.487   5.204  10.905  0.2358  0.3190  0.4402
   20SAPC   O13 2569   6.621   5.194  10.968 -0.0844 -0.3274  0.0411
   20SAPC   O14 2570   6.421   5.079  10.862  0.0632  0.4721 -0.4253
   20SAPC   O12 2571   6.387   5.285  10.998 -0.4335  0.1679  0.7255
   20SAPC   O11 2572   6.496   5.309  10.781  0.5066  0.8169 -0.1478
   20SAPC    C1 2573   6.613   5.359  10.727 -0.0127  0.1985 -1.1327
   20SAPC    HA 2574   6.623   5.469  10.729  2.5375  0.0238  1.2837
   20SAPC    HB 2575   6.698   5.319  10.786 -1.7940 -0.5229  1.0578
   20SAPC    C2 2576   6.631   5.315  10.571  0.1451 -0.7458 -0.6544
   20SAPC    HS 2577   6.534   5.338  10.522  0.3012 -1.2116 -1.1969
   20SAPC   O21 2578   6.674   5.180  10.550 -0.7589  0.1841 -0.3088
   20SAPC   C21 2579   6.574   5.093  10.529 -0.3265 -0.4656  0.1140
   20SAPC   O22 2580   6.454   5.113  10.523 -0.4159  0.0479  0.1046
   20SAPC   C22 2581   6.639   4.952  10.509 -0.0270 -0.2815 -0.6706
   20SAPC   H2R 2582   6.709   4.940  10.594  0.5400  1.9284 -0.7638
   20SAPC   H2S 2583   6.550   4.887  10.522  0.2729 -0.4398  0.6563
   20SAPC    C3 2584   6.726   5.414  10.505  0.1945  0.6281  0.2643
   20SAPC    HX 2585   6.819   5.425  10.564  0.8645  3.9163 -1.2269
   20SAPC    HY 2586   6.688   5.518  10.498  1.4103  1.2469  2.1623
   20SAPC   O31 2587   6.755   5.378  10.367  0.2503  0.1290  0.2489
   20SAPC   C31 2588   6.866   5.310  10.337 -0.5613  0.3067 -0.1213
   20SAPC   O32 2589   6.954   5.284  10.421  0.1625 -0.1614  0.2942
   20SAPC   C32 2590   6.874   5.284  10.195  0.0236 -0.4427  0.1822
   20SAPC   H2X 2591   6.924   5.374  10.155  1.1156 -1.1766 -0.1594
   20SAPC   H2Y 2592   6.775   5.274  10.146  0.0822 -1.9166  0.3025
   20SAPC   C23 2593   6.707   4.905  10.374 -0.0565  1.3664 -0.7696
   20SAPC   H3R 2594   6.782   4.983  10.347  1.4096  0.5144  0.6243
   20SAPC   H3S 2595   6.624   4.909  10.301 -1.2325 -0.7725  0.3635
   20SAPC   C24 2596   6.773   4.761  10.394  0.8713 -1.2697  0.4472
   20SAPC   H4R 2597   6.810   4.760  10.499 -2.3094  2.2842  1.8379
   20SAPC   H4S 2598   6.865   4.760  10.331  0.2105  1.4548 -0.6848
   20SAPC   C25 2599   6.683   4.640  10.375 -0.0289  0.0461  0.1908
   20SAPC   H5R 2600   6.597   4.633  10.442 -0.8305 -0.4016 -0.8669
   20SAPC   C26 2601   6.696   4.546  10.280  0.4112 -0.4420  0.4971
   20SAPC   H6R 2602   6.624   4.462  10.275 -0.3244  0.2277 -2.4729
   20SAPC   C27 2603   6.808   4.539  10.178 -0.1680 -0.2573  0.5065
   20SAPC   H7R 2604   6.902   4.567  10.231 -0.7799 -1.4331  2.2872
   20SAPC   H7S 2605   6.790   4.614  10.098  0.3433  0.8261  1.3827
   20SAPC   C28 2606   6.843   4.406  10.115 -0.4073  0.3083  0.1646
   20SAPC   H8R 2607   6.905   4.343  10.180 -1.8268  2.5586  4.0371
   20SAPC   C29 2608   6.820   4.366   9.989 -0.2239 -0.1812  0.3944
   20SAPC   H9R 2609   6.859   4.268   9.957 -0.3756 -0.1642  0.1574
   20SAPC  C210 2610   6.741   4.439   9.888  0.3342 -0.6334 -0.0752
   20SAPC  H10R 2611   6.686   4.525   9.932  1.9567 -0.4405  1.7092
   20SAPC  H10S 2612   6.663   4.371   9.849  0.5187 -1.8446  1.5595
   20SAPC  C211 2613   6.828   4.499   9.777  0.9201  0.1399  0.0485
   20SAPC  H11R 2614   6.927   4.520   9.819  0.1420 -0.3574  2.2268
   20SAPC  C212 2615   6.798   4.517   9.649  0.3910 -0.1375 -0.3689
   20SAPC  H12R 2616   6.887   4.530   9.585  0.2085 -1.8499 -1.0176
   20SAPC  C213 2617   6.671   4.492   9.572  0.1277  0.3021 -0.6112
   20SAPC  H13R 2618   6.641   4.588   9.524  0.9595  1.7452  1.6062
   20SAPC  H13S 2619   6.592   4.464   9.645  1.8289 -0.6622  0.9346
   20SAPC  C214 2620   6.699   4.385   9.465  0.4869  0.0352 -0.0476
   20SAPC  H14R 2621   6.746   4.296   9.510 -0.3917  1.1204  3.3354
   20SAPC  C215 2622   6.665   4.386   9.335 -0.5840  0.4553  0.4106
   20SAPC  H15R 2623   6.689   4.306   9.263  2.1793  0.2919  1.3649
   20SAPC  C216 2624   6.591   4.506   9.265 -0.2080 -0.2322  0.0770
   20SAPC  H16R 2625   6.664   4.590   9.254  1.3709 -1.7351 -1.6813
   20SAPC  H16S 2626   6.507   4.548   9.324 -1.2173  0.8893 -2.0485
   20SAPC  C217 2627   6.513   4.443   9.150 -0.8205 -0.1143  0.2046
   20SAPC  H17R 2628   6.444   4.365   9.189 -0.4171 -0.6859 -0.1943
   20SAPC  H17S 2629   6.576   4.379   9.085  1.6110 -0.8733  3.0905
   20SAPC  C218 2630   6.428   4.548   9.070 -0.2458  0.3879 -0.1398
   20SAPC  H18R 2631   6.497   4.608   9.006  1.0070 -0.9579 -0.0851
   20SAPC  H18S 2632   6.369   4.614   9.139 -0.1156 -1.5827  1.9687
   20SAPC  C219 2633   6.321   4.477   8.978 -0.6002  0.2514  0.4958
   20SAPC  H19R 2634   6.247   4.557   8.958 -0.5750  0.4032  0.9973
   20SAPC  H19S 2635   6.258   4.404   9.034  0.1074 -0.1472  0.7819
   20SAPC  C220 2636   6.368   4.414   8.840 -0.3266 -0.0545 -0.2234
   20SAPC  H20R 2637   6.409   4.490   8.771 -0.3695 -0.1760 -0.3816
   20SAPC  H20S 2638   6.283   4.366   8.787  1.2219 -0.9389 -2.0037
   20SAPC  H20T 2639   6.448   4.341   8.868  0.6448  0.6337 -1.1307
   20SAPC   C33 2640   6.946   5.152  10.155  0.2032  0.2811  0.0091
   20SAPC   H3X 2641   6.916   5.061  10.210  0.3137  0.0146 -0.3701
   20SAPC   H3Y 2642   7.051   5.160  10.191  0.1442  3.7949 -0.2485
   20SAPC   C34 2643   6.921   5.116  10.006 -0.6639 -0.0820 -0.2450
   20SAPC   H4X 2644   7.009   5.061   9.966 -0.4497  1.3057 -1.8026
   20SAPC   H4Y 2645   6.918   5.208   9.944 -2.0068 -0.3226 -0.5650
   20SAPC   C35 2646   6.799   5.014   9.985 -0.2361 -0.0893 -0.3808
   20SAPC   H5X 2647   6.708   5.077   9.984 -0.5246 -0.4874 -2.2130
   20SAPC   H5Y 2648   6.802   4.941  10.069 -0.0294  1.8028  1.3272
   20SAPC   C36 2649   6.810   4.930   9.860  0.2720  0.0069  0.0423
   20SAPC   H6X 2650   6.737   4.846   9.868  2.4435 -1.9718  0.0586
   20SAPC   H6Y 2651   6.907   4.877   9.856 -1.6197 -3.8884  0.4474
   20SAPC   C37 2652   6.813   5.015   9.735  0.2460  0.2068  0.4848
   20SAPC   H7X 2653   6.894   5.091   9.734  2.7162 -2.2771 -0.2682
   20SAPC   H7Y 2654   6.713   5.061   9.723 -0.5164 -1.0732  1.6404
   20SAPC   C38 2655   6.845   4.927   9.604 -0.7157 -0.1922 -0.6904
   20SAPC   H8X 2656   6.784   4.835   9.599  1.0351 -1.3386 -3.6285
   20SAPC   H8Y 2657   6.950   4.891   9.611 -1.0933 -1.4843 -1.3832
   20SAPC   C39 2658   6.816   5.007   9.486 -0.0200  0.3299  0.2468
   20SAPC   H9X 2659   6.842   5.115   9.480 -0.5132  0.3683 -2.3933
   20SAPC   H9Y 2660   6.709   5.009   9.458  0.7141  3.1793 -2.9312
   20SAPC  C310 2661   6.880   4.946   9.358 -0.0132 -0.5978  1.1221
   20SAPC  H10X 2662   6.854   4.839   9.367  0.1348 -0.6961  0.4086
   20SAPC  H10Y 2663   6.991   4.941   9.363  0.3506  0.4695 -2.9550
   20SAPC  C311 2664   6.816   4.987   9.228 -0.5706 -0.1323 -0.1281
   20SAPC  H11X 2665   6.848   5.089   9.195  1.5050 -0.8769 -0.5517
   20SAPC  H11Y 2666   6.706   4.986   9.241 -0.7324  0.0418 -1.2930
   20SAPC  C312 2667   6.846   4.882   9.119 -0.0636  0.2790  0.1094
   20SAPC  H12X 2668   6.824   4.781   9.159 -0.3156 -0.0594 -0.8546
   20SAPC  H12Y 2669   6.946   4.885   9.071 -0.7681  0.4654 -1.4047
   20SAPC  C313 2670   6.756   4.897   8.993 -0.2119 -0.7511 -0.2915
   20SAPC  H13X 2671   6.649   4.914   9.018  0.0582  1.6833 -0.5416
   20SAPC  H13Y 2672   6.750   4.808   8.927 -3.5694  0.1677 -1.4192
   20SAPC  C314 2673   6.793   5.015   8.900 -0.2430 -0.1188 -0.5056
   20SAPC  H14X 2674   6.903   5.024   8.883  0.4020  0.6152  3.1448
   20SAPC  H14Y 2675   6.776   5.112   8.949  1.0227  0.1711 -0.5891
   20SAPC  C315 2676   6.723   5.001   8.763  0.1605 -0.2366  0.1527
   20SAPC  H15X 2677   6.743   4.901   8.718 -0.2148 -0.8005  1.1917
   20SAPC  H15Y 2678   6.789   5.066   8.703  1.1556 -0.1874  1.2649
   20SAPC  C316 2679   6.579   5.048   8.760 -0.0193  0.4873  0.3188
   20SAPC  H16X 2680   6.582   5.156   8.788  0.8290 -0.0888  2.6818
   20SAPC  H16Y 2681   6.521   4.982   8.827 -1.6920  0.0661 -1.4516
   20SAPC  C317 2682   6.519   5.024   8.619  0.1648  0.4504  0.1865
   20SAPC  H17X 2683   6.413   5.055   8.632  0.0549  0.7163 -1.2398
   20SAPC  H17Y 2684   6.532   4.917   8.595 -1.4165  0.6512 -1.7513
   20SAPC  C318 2685   6.587   5.094   8.497 -0.3841  0.5363 -0.4252
   20SAPC  H18X 2686   6.544   5.055   8.402 -1.5403 -2.1982  1.1076
   20SAPC  H18Y 2687   6.695   5.067   8.504 -0.5054 -0.2116 -1.2042
   20SAPC  H18Z 2688   6.565   5.201   8.518 -2.0468  0.5429 -1.9554
   21SAPC     N 2689   4.978   1.794  11.275 -0.7432 -0.0909  0.1302
   21SAPC   C12 2690   4.975   1.741  11.128  0.2967  0.2955 -0.8717
   21SAPC  H12A 2691   4.880   1.758  11.081  0.1241  1.1878 -0.2385
   21SAPC  H12B 2692   4.976   1.634  11.138  0.6234  0.3174 -0.6246
   21SAPC   C13 2693   5.101   1.755  11.346 -0.6499 -0.4510  0.0633
   21SAPC  H13A 2694   5.104   1.770  11.453  0.7620  1.2936 -0.1746
   21SAPC  H13B 2695   5.124   1.653  11.317 -0.1121  0.4558 -3.0614
   21SAPC  H13C 2696   5.189   1.813  11.322 -0.4294 -0.7030  0.2433
   21SAPC   C14 2697   4.959   1.951  11.265 -0.2802  0.7075 -0.6642
   21SAPC  H14A 2698   4.976   2.000  11.359 -0.0907 -0.9344  0.1872
   21SAPC  H14B 2699   5.022   1.990  11.187  1.3821  0.2045  0.3849
   21SAPC  H14C 2700   4.860   1.968  11.225 -0.4952 -1.0961 -1.0051
   21SAPC   C15 2701   4.854   1.748  11.352 -0.3730 -0.0005 -0.8966
   21SAPC  H15A 2702   4.763   1.768  11.298 -1.2153  1.2163  0.8615
   21SAPC  H15B 2703   4.859   1.643  11.373  0.0002 -0.2709 -2.2513
   21SAPC  H15C 2704   4.846   1.800  11.447  0.5514  0.5172 -1.0854
   21SAPC   C11 2705   5.081   1.785  11.023  0.5544 -0.6707 -0.3204
   21SAPC  H11A 2706   5.061   1.714  10.940 -2.4300  0.0036 -0.2849
   21SAPC  H11B 2707   5.181   1.778  11.071  0.1882  1.3190  0.8299
   21SAPC     P 2708   4.931   1.943  10.874 -0.3166  0.0691  0.2224
   21SAPC   O13 2709   4.935   1.840  10.769 -0.3009 -0.2783 -0.7864
   21SAPC   O14 2710   4.812   1.944  10.956  0.1326  0.3656 -0.2534
   21SAPC   O12 2711   5.048   1.920  10.981  0.7589 -0.6026  0.5466
   21SAPC   O11 2712   4.941   2.089  10.813 -0.2698  0.3236 -0.2211
   21SAPC    C1 2713   5.065   2.157  10.842 -0.1773 -0.1713 -0.4258
   21SAPC    HA 2714   5.079   2.179  10.950 -0.5776  1.7471 -0.7354
   21SAPC    HB 2715   5.153   2.093  10.818 -0.4523 -1.1548  1.0569
   21SAPC    C2 2716   5.085   2.276  10.757 -0.1733 -0.7409 -0.1338
   21SAPC    HS 2717   5.012   2.356  10.778 -0.0522 -0.2595 -1.4442
   21SAPC   O21 2718   5.081   2.227  10.617 -0.0607  0.5919  0.0687
   21SAPC   C21 2719   5.005   2.297  10.548 -0.2675 -0.0581 -0.2566
   21SAPC   O22 2720   4.948   2.403  10.577  0.4562  0.2383 -0.1424
   21SAPC   C22 2721   5.012   2.236  10.408  0.7375 -0.2350 -0.2214
   21SAPC   H2R 2722   4.966   2.301  10.331 -1.3267 -1.5001 -0.1206
   21SAPC   H2S 2723   5.121   2.232  10.386  0.6683  0.9746 -0.9113
   21SAPC    C3 2724   5.221   2.349  10.779 -0.7621 -1.1198 -0.2069
   21SAPC    HX 2725   5.242   2.364  10.887  0.6101  1.5389 -0.7630
   21SAPC    HY 2726   5.198   2.454  10.754  0.1532 -0.6001  1.0035
   21SAPC   O31 2727   5.335   2.294  10.707 -0.1397  0.3719 -0.0498
   21SAPC   C31 2728   5.353   2.340  10.581  0.0464  0.1236 -0.1363
   21SAPC   O32 2729   5.290   2.430  10.533  0.0725 -0.3262 -0.6616
   21SAPC   C32 2730   5.451   2.249  10.499 -0.1805 -0.1332 -0.2883
   21SAPC   H2X 2731   5.413   2.147  10.520  0.6439 -0.1944  1.0292
   21SAPC   H2Y 2732   5.545   2.248  10.558 -0.2982 -2.4448 -0.0536
   21SAPC   C23 2733   4.955   2.094  10.400  0.0515  0.1433  0.4987
   21SAPC   H3R 2734   4.845   2.103  10.415  0.1830 -0.0128  1.6767
   21SAPC   H3S 2735   5.009   2.035  10.477  3.4025  0.1433 -1.6207
   21SAPC   C24 2736   4.979   2.023  10.256 -1.1458  0.4762 -0.4344
   21SAPC   H4R 2737   4.939   1.921  10.273 -2.6432  1.3927  2.1201
   21SAPC   H4S 2738   5.090   2.026  10.244 -1.1282 -0.4958 -0.5468
   21SAPC   C25 2739   4.911   2.092  10.140  0.4565  0.0997  0.9611
   21SAPC   H5R 2740   4.854   2.185  10.158  0.0787 -0.0966  0.7899
   21SAPC   C26 2741   4.922   2.043  10.013 -0.3946  0.1420  0.0078
   21SAPC   H6R 2742   4.865   2.088   9.930 -2.8965  0.5974  1.8762
   21SAPC   C27 2743   5.010   1.922   9.975  0.4190 -0.2449 -0.5350
   21SAPC   H7R 2744   4.938   1.842   9.949 -0.3547 -0.9514  3.1411
   21SAPC   H7S 2745   5.065   1.886  10.065  0.8111 -0.9897 -1.0687
   21SAPC   C28 2746   5.109   1.962   9.872 -0.1686  0.1735  0.2006
   21SAPC   H8R 2747   5.184   2.037   9.900  1.7781 -1.0776 -1.4258
   21SAPC   C29 2748   5.109   1.919   9.745 -0.9150 -0.6654  0.0308
   21SAPC   H9R 2749   5.197   1.942   9.682 -0.7814  0.8780  0.7477
   21SAPC  C210 2750   5.010   1.830   9.673 -0.3237  0.0547  0.0506
   21SAPC  H10R 2751   4.976   1.747   9.738  0.0054 -1.0528 -1.1263
   21SAPC  H10S 2752   5.065   1.787   9.586  0.5179 -0.6183  0.8874
   21SAPC  C211 2753   4.899   1.927   9.652 -0.0648  0.2609 -0.6026
   21SAPC  H11R 2754   4.872   1.989   9.738  0.2056  1.6784 -1.4985
   21SAPC  C212 2755   4.830   1.952   9.538 -0.2737 -0.3747  0.1883
   21SAPC  H12R 2756   4.752   2.029   9.531 -0.8373 -0.8743  0.8531
   21SAPC  C213 2757   4.857   1.892   9.400 -0.0585  0.5351 -0.6932
   21SAPC  H13R 2758   4.777   1.816   9.388  0.6371 -0.2429 -0.4859
   21SAPC  H13S 2759   4.948   1.829   9.406 -1.2628 -1.1069  2.8995
   21SAPC  C214 2760   4.853   1.996   9.290 -0.6522  0.0073 -0.0335
   21SAPC  H14R 2761   4.882   2.098   9.321  1.9259 -1.5198  3.2706
   21SAPC  C215 2762   4.816   1.970   9.168 -0.2089  0.5393  0.4344
   21SAPC  H15R 2763   4.821   2.037   9.081 -0.6786  0.4065  0.2969
   21SAPC  C216 2764   4.768   1.828   9.124 -0.0416  0.4226  0.8272
   21SAPC  H16R 2765   4.657   1.828   9.122 -0.1500  3.3308 -2.7221
   21SAPC  H16S 2766   4.805   1.736   9.174 -1.4592 -1.5218 -1.4406
   21SAPC  C217 2767   4.812   1.803   8.975  0.6677 -0.5971  0.7772
   21SAPC  H17R 2768   4.923   1.797   8.972  0.6076 -1.5653 -0.4814
   21SAPC  H17S 2769   4.783   1.890   8.912  0.5472 -0.4218  1.0702
   21SAPC  C218 2770   4.737   1.691   8.904  0.5546  0.0820  0.3054
   21SAPC  H18R 2771   4.630   1.715   8.886  0.7386  0.9019  0.2418
   21SAPC  H18S 2772   4.753   1.601   8.967  2.9244  0.3461  0.2017
   21SAPC  C219 2773   4.800   1.639   8.778 -0.3812  0.4120  0.7243
   21SAPC  H19R 2774   4.881   1.566   8.798  0.3634  0.8630 -0.5570
   21SAPC  H19S 2775   4.843   1.717   8.712 -0.3539 -1.0851 -1.0940
   21SAPC  C220 2776   4.687   1.571   8.700  0.0354  1.2963  0.3027
   21SAPC  H20R 2777   4.610   1.648   8.677 -1.7110 -0.5411 -0.2966
   21SAPC  H20S 2778   4.649   1.496   8.772  0.0689  1.5264  0.5630
   21SAPC  H20T 2779   4.701   1.520   8.603  0.3227 -1.8843  1.8853
   21SAPC   C33 2780   5.470   2.272  10.349  0.5624  1.3020  0.8670
   21SAPC   H3X 2781   5.505   2.375  10.326  0.1815  1.4479  0.9175
   21SAPC   H3Y 2782   5.367   2.279  10.305  0.6722  3.2264  0.7936
   21SAPC   C34 2783   5.550   2.162  10.271  0.5316 -0.0284  1.2615
   21SAPC   H4X 2784   5.535   2.065  10.321  2.7988 -0.4327  1.2674
   21SAPC   H4Y 2785   5.658   2.182  10.291  0.7973 -0.4933  0.3175
   21SAPC   C35 2786   5.513   2.160  10.119 -0.2190  0.2804  0.0518
   21SAPC   H5X 2787   5.513   2.265  10.085  1.4980  0.0874 -0.6790
   21SAPC   H5Y 2788   5.408   2.127  10.106  0.1214 -2.0877  2.3118
   21SAPC   C36 2789   5.599   2.079  10.013 -0.1332 -0.0228 -0.4497
   21SAPC   H6X 2790   5.592   1.970  10.033  0.1383 -0.5402 -2.8051
   21SAPC   H6Y 2791   5.700   2.114  10.043 -0.2287 -0.4994  0.4540
   21SAPC   C37 2792   5.563   2.106   9.866  0.6304 -0.4154 -0.1634
   21SAPC   H7X 2793   5.596   2.210   9.844  2.1370 -0.3357  2.1121
   21SAPC   H7Y 2794   5.456   2.102   9.838  0.5319  2.9077 -0.6546
   21SAPC   C38 2795   5.644   2.023   9.769  0.4442 -0.4180 -0.1370
   21SAPC   H8X 2796   5.624   1.918   9.802  2.1618 -0.2249  1.7139
   21SAPC   H8Y 2797   5.751   2.031   9.800  0.4007  0.1278 -0.1245
   21SAPC   C39 2798   5.622   2.040   9.619 -0.0392  0.0127  0.6618
   21SAPC   H9X 2799   5.686   1.968   9.563 -2.5897 -0.5691 -1.7608
   21SAPC   H9Y 2800   5.655   2.142   9.592  2.1241 -0.4893  1.2628
   21SAPC  C310 2801   5.482   1.993   9.573 -0.9500 -0.5989  0.4219
   21SAPC  H10X 2802   5.403   2.051   9.626 -1.3858 -2.1446  1.5321
   21SAPC  H10Y 2803   5.466   1.889   9.607 -0.5403 -1.4126 -1.7251
   21SAPC  C311 2804   5.463   1.985   9.420  0.3326 -0.5614  0.4810
   21SAPC  H11X 2805   5.530   1.907   9.378 -0.3876 -1.0600  0.2212
   21SAPC  H11Y 2806   5.498   2.081   9.376  1.3468  0.1234  2.6712
   21SAPC  C312 2807   5.314   1.959   9.386 -0.3774 -0.2663 -0.2393
   21SAPC  H12X 2808   5.253   2.018   9.457  2.6853  1.8423  0.8645
   21SAPC  H12Y 2809   5.297   1.852   9.406 -0.4404 -0.5160 -1.5060
   21SAPC  C313 2810   5.284   1.983   9.237 -0.1988  0.2353  0.1578
   21SAPC  H13X 2811   5.368   2.036   9.187  0.5533 -1.3343 -0.2892
   21SAPC  H13Y 2812   5.205   2.060   9.224  0.2265  0.4796 -1.0947
   21SAPC  C314 2813   5.251   1.863   9.156 -0.2605  0.4086  0.1970
   21SAPC  H14X 2814   5.157   1.823   9.201  0.0228 -0.9247 -0.3389
   21SAPC  H14Y 2815   5.329   1.786   9.175  0.2187  0.7080 -0.5279
   21SAPC  C315 2816   5.225   1.886   9.007 -0.5284  0.2160 -0.0540
   21SAPC  H15X 2817   5.311   1.945   8.968  0.2809 -0.4398  0.6835
   21SAPC  H15Y 2818   5.144   1.958   8.983  0.8379  2.3026  1.2248
   21SAPC  C316 2819   5.223   1.755   8.922  0.1464  0.1234  0.0245
   21SAPC  H16X 2820   5.319   1.748   8.867 -0.4359  2.3705 -1.4191
   21SAPC  H16Y 2821   5.156   1.773   8.835  2.1591 -1.4138 -1.9735
   21SAPC  C317 2822   5.184   1.620   8.989 -0.8084 -0.0866  0.1341
   21SAPC  H17X 2823   5.086   1.640   9.036 -0.0961 -1.8816  2.5808
   21SAPC  H17Y 2824   5.258   1.594   9.068 -1.6462 -0.4047  0.8295
   21SAPC  C318 2825   5.176   1.510   8.885 -0.4576  0.1449  0.4891
   21SAPC  H18X 2826   5.129   1.415   8.918 -0.0575  0.3537  1.7164
   21SAPC  H18Y 2827   5.278   1.490   8.845  0.0885 -0.2476  2.0121
   21SAPC  H18Z 2828   5.122   1.545   8.794  1.0843 -0.9813 -0.9321
   22SAPC     N 2829   3.841   6.273  10.875  0.1991 -0.0261 -0.0471
   22SAPC   C12 2830   3.894   6.371  10.983  0.2716  0.2819  1.1681
   22SAPC  H12A 2831   3.937   6.308  11.059  1.7189  0.0541  0.2130
   22SAPC  H12B 2832   3.811   6.422  11.029  0.4235 -0.3345  2.1660
   22SAPC   C13 2833   3.752   6.173  10.938 -0.1786  0.4799 -0.1181
   22SAPC  H13A 2834   3.807   6.128  11.020  2.4010  1.1435 -1.3504
   22SAPC  H13B 2835   3.663   6.218  10.979  0.0417  0.3755  0.4766
   22SAPC  H13C 2836   3.727   6.097  10.865  1.1485 -0.8985  0.8010
   22SAPC   C14 2837   3.764   6.340  10.762  0.0290 -0.2715  0.4650
   22SAPC  H14A 2838   3.749   6.278  10.675  0.8988 -0.9022  0.7373
   22SAPC  H14B 2839   3.668   6.378  10.792  0.3424  0.9018  0.0253
   22SAPC  H14C 2840   3.823   6.423  10.727 -1.0339  1.3874  2.4169
   22SAPC   C15 2841   3.953   6.193  10.813  0.1394 -0.4335  0.1865
   22SAPC  H15A 2842   4.006   6.137  10.888 -1.4474 -1.6775  0.4433
   22SAPC  H15B 2843   3.926   6.110  10.749  0.2601 -1.6552  1.6714
   22SAPC  H15C 2844   4.027   6.253  10.762  1.6514 -3.2545 -1.2085
   22SAPC   C11 2845   4.000   6.465  10.934 -0.4967 -0.1627  0.0946
   22SAPC  H11A 2846   4.011   6.553  11.000 -0.9049 -0.9401  1.2341
   22SAPC  H11B 2847   3.967   6.505  10.836 -1.0240  1.8755  1.0428
   22SAPC     P 2848   4.234   6.461  10.835 -0.7777 -0.3663  0.2121
   22SAPC   O13 2849   4.213   6.611  10.828  1.1577 -0.4785  0.0559
   22SAPC   O14 2850   4.363   6.422  10.891 -0.2777  0.2837  0.3393
   22SAPC   O12 2851   4.124   6.398  10.922 -0.1862 -0.3964  0.0257
   22SAPC   O11 2852   4.208   6.392  10.696  0.0888  0.3965 -0.2273
   22SAPC    C1 2853   4.294   6.297  10.629 -0.2310  0.2444 -0.3745
   22SAPC    HA 2854   4.332   6.233  10.711 -3.5934  0.0288  1.1797
   22SAPC    HB 2855   4.231   6.239  10.557 -0.0436  0.2878 -0.5759
   22SAPC    C2 2856   4.406   6.376  10.557 -0.2503 -0.2898 -0.2434
   22SAPC    HS 2857   4.459   6.441  10.630  2.0334 -1.2540 -0.9453
   22SAPC   O21 2858   4.346   6.472  10.468 -0.2952  0.9547  0.3394
   22SAPC   C21 2859   4.416   6.562  10.404 -0.6311 -0.6873 -0.1189
   22SAPC   O22 2860   4.533   6.586  10.423  0.3075  0.1414 -0.6650
   22SAPC   C22 2861   4.332   6.649  10.308  0.5742 -0.5741  0.2269
   22SAPC   H2R 2862   4.225   6.621  10.320  1.3162 -3.0080  2.0352
   22SAPC   H2S 2863   4.353   6.750  10.350 -1.2884 -1.5375  3.8523
   22SAPC    C3 2864   4.490   6.271  10.497 -0.5385 -0.0418  0.3695
   22SAPC    HX 2865   4.511   6.197  10.578 -0.3347 -1.2401 -0.7411
   22SAPC    HY 2866   4.588   6.311  10.463  0.0615 -1.2534  0.6128
   22SAPC   O31 2867   4.429   6.197  10.385  0.0729 -0.2666 -0.1953
   22SAPC   C31 2868   4.499   6.211  10.272 -0.0824  0.7635 -0.2585
   22SAPC   O32 2869   4.603   6.269  10.256  0.2691 -0.8590  0.1621
   22SAPC   C32 2870   4.433   6.136  10.160  0.1141  0.3258 -0.0399
   22SAPC   H2X 2871   4.346   6.190  10.118 -0.7752 -0.2219  1.0259
   22SAPC   H2Y 2872   4.391   6.048  10.212  0.0854 -0.2859 -1.0885
   22SAPC   C23 2873   4.367   6.651  10.158  0.1125  0.3125  0.3921
   22SAPC   H3R 2874   4.478   6.656  10.154  0.1143  2.5835  1.5564
   22SAPC   H3S 2875   4.324   6.743  10.113 -1.1809 -0.4235  0.0679
   22SAPC   C24 2876   4.302   6.537  10.084  1.0037 -0.0821 -0.2300
   22SAPC   H4R 2877   4.192   6.550  10.094  1.1724  0.7446  0.6603
   22SAPC   H4S 2878   4.326   6.439  10.131  1.9844  0.7058  0.9703
   22SAPC   C25 2879   4.356   6.526   9.944 -0.2009 -1.5259 -0.4383
   22SAPC   H5R 2880   4.454   6.476   9.934  0.9356  0.5272 -0.0256
   22SAPC   C26 2881   4.293   6.568   9.837 -0.7353  0.8136  0.4929
   22SAPC   H6R 2882   4.339   6.552   9.738 -2.4028 -0.6784 -0.0867
   22SAPC   C27 2883   4.154   6.632   9.820  0.7149 -0.4473 -0.3781
   22SAPC   H7R 2884   4.140   6.704   9.904 -1.8331 -1.5114  0.2113
   22SAPC   H7S 2885   4.072   6.557   9.827 -0.3916  0.7329 -0.3381
   22SAPC   C28 2886   4.133   6.709   9.693  0.3174 -0.2397 -0.3470
   22SAPC   H8R 2887   4.176   6.811   9.688  1.2644 -0.4908  1.7803
   22SAPC   C29 2888   4.074   6.652   9.582  0.1042 -0.5243  0.0746
   22SAPC   H9R 2889   4.066   6.706   9.486  1.3871 -1.0344 -0.3313
   22SAPC  C210 2890   4.010   6.516   9.581  0.5295 -0.1310 -0.2334
   22SAPC  H10R 2891   3.903   6.530   9.553  0.3526  1.9381  1.2406
   22SAPC  H10S 2892   4.002   6.478   9.685 -2.3454  0.9067  0.0032
   22SAPC  C211 2893   4.088   6.425   9.491 -0.6097 -0.8067  0.6692
   22SAPC  H11R 2894   4.178   6.377   9.533 -1.5073 -2.5545  0.6707
   22SAPC  C212 2895   4.062   6.397   9.358  0.2580  0.2016  1.2487
   22SAPC  H12R 2896   4.127   6.339   9.292  0.0179  0.0309  1.1619
   22SAPC  C213 2897   3.940   6.460   9.281 -0.1627  0.0216 -0.5634
   22SAPC  H13R 2898   3.900   6.550   9.333 -1.4145  0.0044 -1.4352
   22SAPC  H13S 2899   3.862   6.382   9.291 -0.1086  0.1378  1.0445
   22SAPC  C214 2900   3.961   6.501   9.133  0.0343 -0.0926 -0.0621
   22SAPC  H14R 2901   3.883   6.474   9.060  0.8589  2.4162 -2.0106
   22SAPC  C215 2902   4.051   6.580   9.079 -0.2104 -0.8111 -0.4442
   22SAPC  H15R 2903   4.039   6.600   8.971 -1.5296 -3.2182 -0.8073
   22SAPC  C216 2904   4.160   6.653   9.147 -0.7186 -0.2131  0.9401
   22SAPC  H16R 2905   4.255   6.600   9.127 -1.4940 -1.6394  0.8543
   22SAPC  H16S 2906   4.144   6.656   9.257  0.8770 -3.1946  1.3477
   22SAPC  C217 2907   4.160   6.806   9.101 -0.5797  0.6042  0.2272
   22SAPC  H17R 2908   4.196   6.866   9.187 -1.4346  1.1742  0.1982
   22SAPC  H17S 2909   4.057   6.844   9.086 -0.0619  1.6033 -0.9616
   22SAPC  C218 2910   4.242   6.835   8.974 -0.4313 -0.4909  0.1050
   22SAPC  H18R 2911   4.209   6.774   8.887 -1.4924  0.1973 -0.0025
   22SAPC  H18S 2912   4.350   6.822   8.996  0.7049  3.7552 -1.8162
   22SAPC  C219 2913   4.231   6.984   8.935  0.8022  0.0105 -0.6150
   22SAPC  H19R 2914   4.282   7.050   9.008  0.2120 -1.1204  0.8755
   22SAPC  H19S 2915   4.123   7.006   8.951  0.7442 -2.2635  3.3601
   22SAPC  C220 2916   4.279   7.029   8.794  0.1108  0.3078 -0.5722
   22SAPC  H20R 2917   4.389   7.015   8.782  0.2224  0.8923 -0.2718
   22SAPC  H20S 2918   4.245   7.131   8.767 -0.9502  0.2788  0.5572
   22SAPC  H20T 2919   4.234   6.960   8.720  1.4625  1.4553 -2.5771
   22SAPC   C33 2920   4.516   6.105  10.032 -0.1497  0.4368 -0.1498
   22SAPC   H3X 2921   4.610   6.050  10.057 -1.0493  0.0158  2.7248
   22SAPC   H3Y 2922   4.545   6.208  10.003  0.6486 -0.2383 -1.8743
   22SAPC   C34 2923   4.434   6.045   9.918  0.1620  0.2578  0.0106
   22SAPC   H4X 2924   4.329   6.082   9.917 -0.7709 -2.1809 -0.1923
   22SAPC   H4Y 2925   4.434   5.934   9.928 -0.2292 -0.0501 -2.7207
   22SAPC   C35 2926   4.486   6.063   9.776 -0.0965  0.0338  0.2855
   22SAPC   H5X 2927   4.596   6.045   9.784  0.1128  1.5650  1.6382
   22SAPC   H5Y 2928   4.473   6.172   9.759 -0.1050  0.5135  2.8848
   22SAPC   C36 2929   4.418   5.960   9.679 -0.2138 -0.2364 -0.0604
   22SAPC   H6X 2930   4.310   5.985   9.682 -0.4444 -1.1944 -0.2895
   22SAPC   H6Y 2931   4.435   5.856   9.714 -0.9077 -1.0625 -2.0874
   22SAPC   C37 2932   4.484   5.957   9.536  0.5760  0.3617 -0.4400
   22SAPC   H7X 2933   4.593   5.948   9.552  0.7515  0.8052 -1.3897
   22SAPC   H7Y 2934   4.464   6.052   9.484 -2.5235 -0.2953 -0.6420
   22SAPC   C38 2935   4.434   5.836   9.456 -0.4273 -0.6967 -0.6669
   22SAPC   H8X 2936   4.329   5.860   9.431 -1.0669  0.9131  2.8868
   22SAPC   H8Y 2937   4.437   5.739   9.511  2.4951 -0.0370  0.5471
   22SAPC   C39 2938   4.519   5.835   9.326  0.3683 -0.2745 -0.7406
   22SAPC   H9X 2939   4.624   5.843   9.362 -0.4823 -2.2961  2.6634
   22SAPC   H9Y 2940   4.492   5.920   9.260  1.4856  0.0689 -0.7842
   22SAPC  C310 2941   4.506   5.705   9.252  0.1741  0.0998  0.3621
   22SAPC  H10X 2942   4.403   5.705   9.209 -0.9206  1.4626  2.8250
   22SAPC  H10Y 2943   4.505   5.614   9.315  0.2739 -0.0492  0.1527
   22SAPC  C311 2944   4.628   5.669   9.167 -0.5254 -0.6408  0.0036
   22SAPC  H11X 2945   4.608   5.574   9.113  1.3293 -2.2290  1.9298
   22SAPC  H11Y 2946   4.721   5.650   9.225  0.9381 -0.4883 -2.1732
   22SAPC  C312 2947   4.665   5.783   9.065  0.1008  0.3702  0.1156
   22SAPC  H12X 2948   4.698   5.874   9.119  0.7668  2.3554 -3.3212
   22SAPC  H12Y 2949   4.574   5.818   9.013  1.2701  1.2699 -1.4332
   22SAPC  C313 2950   4.779   5.737   8.969  0.1401 -0.7279  0.1622
   22SAPC  H13X 2951   4.746   5.651   8.906 -0.4574 -0.3562 -0.0494
   22SAPC  H13Y 2952   4.869   5.696   9.018  0.2520  0.9335  1.4094
   22SAPC  C314 2953   4.825   5.851   8.873  0.0030 -0.0037 -0.0025
   22SAPC  H14X 2954   4.880   5.919   8.942 -1.2151  2.5673 -1.3864
   22SAPC  H14Y 2955   4.732   5.900   8.837 -2.0229 -1.4281  2.9679
   22SAPC  C315 2956   4.924   5.808   8.762  0.2655  0.2074  0.0115
   22SAPC  H15X 2957   5.005   5.757   8.819 -0.1580 -0.4936 -0.0191
   22SAPC  H15Y 2958   4.952   5.902   8.709  0.7757  0.0939  0.0709
   22SAPC  C316 2959   4.864   5.719   8.650  0.1819  1.2061  0.4401
   22SAPC  H16X 2960   4.811   5.790   8.583  0.4452  0.5236 -0.5059
   22SAPC  H16Y 2961   4.788   5.651   8.695  0.5384 -0.1894 -0.9942
   22SAPC  C317 2962   4.974   5.638   8.574 -0.3741  0.5155  0.2866
   22SAPC  H17X 2963   5.059   5.624   8.644 -1.1608 -0.6106  1.0461
   22SAPC  H17Y 2964   5.012   5.703   8.492  0.8124  1.4761  1.5685
   22SAPC  C318 2965   4.933   5.506   8.520  0.0053 -0.2791  0.6453
   22SAPC  H18X 2966   4.918   5.428   8.597 -2.4002 -0.1208  0.4269
   22SAPC  H18Y 2967   5.019   5.462   8.466 -0.8862 -1.7810  0.3722
   22SAPC  H18Z 2968   4.848   5.509   8.448  0.7238 -0.2163 -0.2115
   23SAPC     N 2969   6.220   1.407  10.631 -0.1381  0.4821  0.7101
   23SAPC   C12 2970   6.351   1.388  10.562  0.4490 -0.1387  0.1524
   23SAPC  H12A 2971   6.334   1.400  10.456 -0.8995 -1.7631  0.1485
   23SAPC  H12B 2972   6.367   1.285  10.589 -0.5126  0.1945  2.1861
   23SAPC   C13 2973   6.122   1.341  10.541  0.1014  0.3531 -0.8738
   23SAPC  H13A 2974   6.145   1.239  10.516 -2.4428 -0.3199 -0.7478
   23SAPC  H13B 2975   6.028   1.335  10.595  2.1322 -0.6033  2.9778
   23SAPC  H13C 2976   6.113   1.396  10.449  0.3723  1.7292 -0.1166
   23SAPC   C14 2977   6.239   1.331  10.759  0.5375 -0.3650 -0.0326
   23SAPC  H14A 2978   6.276   1.236  10.726 -2.4647 -3.0191  3.4760
   23SAPC  H14B 2979   6.310   1.377  10.826  1.6244 -1.6763 -0.2680
   23SAPC  H14C 2980   6.152   1.297  10.814  0.9207 -2.3160 -0.5909
   23SAPC   C15 2981   6.180   1.549  10.659 -0.1186 -0.4236 -0.2227
   23SAPC  H15A 2982   6.256   1.597  10.719  1.3594 -0.0713 -2.2692
   23SAPC  H15B 2983   6.168   1.612  10.572  0.0836  0.9175  0.6863
   23SAPC  H15C 2984   6.085   1.556  10.711  0.3762 -1.2195  0.8270
   23SAPC   C11 2985   6.476   1.471  10.603 -0.3188  0.4970  0.4954
   23SAPC  H11A 2986   6.447   1.575  10.580 -0.7083  0.1960 -0.4366
   23SAPC  H11B 2987   6.555   1.443  10.530 -1.1153 -1.1677  0.2236
   23SAPC     P 2988   6.644   1.355  10.785 -0.2551 -0.1930 -0.4453
   23SAPC   O13 2989   6.738   1.443  10.857  0.4157 -0.4010 -0.2765
   23SAPC   O14 2990   6.590   1.244  10.863 -0.4346  0.3505 -0.6874
   23SAPC   O12 2991   6.522   1.448  10.743  0.0355  0.5290  0.3970
   23SAPC   O11 2992   6.718   1.295  10.656 -0.1819  0.5710 -0.1014
   23SAPC    C1 2993   6.847   1.341  10.609  0.0011 -0.6465  0.8952
   23SAPC    HA 2994   6.887   1.426  10.668 -0.4794  0.0676  0.2117
   23SAPC    HB 2995   6.928   1.267  10.624 -1.5408 -1.8930  3.9118
   23SAPC    C2 2996   6.836   1.383  10.459  0.0863  0.0902  0.3951
   23SAPC    HS 2997   6.938   1.369  10.418 -0.1202 -0.5122  0.0796
   23SAPC   O21 2998   6.788   1.516  10.437 -0.4035 -0.5026  0.6553
   23SAPC   C21 2999   6.873   1.614  10.478 -0.7022 -0.1080  0.8263
   23SAPC   O22 3000   6.992   1.601  10.510 -0.2179  0.0712  0.4524
   23SAPC   C22 3001   6.811   1.755  10.463  0.0803  0.5968  0.2442
   23SAPC   H2R 3002   6.702   1.740  10.448  0.2225 -1.6459  1.0660
   23SAPC   H2S 3003   6.843   1.802  10.558 -1.8337 -0.8133  1.6478
   23SAPC    C3 3004   6.753   1.283  10.376 -0.4487 -0.0485 -0.4632
   23SAPC    HX 3005   6.655   1.269  10.425  1.7540 -1.8743  3.9395
   23SAPC    HY 3006   6.814   1.190  10.384  2.6359  1.6209 -2.3407
   23SAPC   O31 3007   6.759   1.306  10.233  0.1027 -0.4528 -0.3047
   23SAPC   C31 3008   6.657   1.362  10.180 -1.0775 -0.4430  0.9094
   23SAPC   O32 3009   6.554   1.392  10.232 -0.1347 -0.6498  0.0909
   23SAPC   C32 3010   6.702   1.408  10.036 -0.3785  0.8859  0.9023
   23SAPC   H2X 3011   6.716   1.324   9.966 -1.8859 -0.5350  2.2064
   23SAPC   H2Y 3012   6.803   1.453  10.036  0.1178 -0.2086  0.2627
   23SAPC   C23 3013   6.864   1.841  10.346 -0.0514  0.5343  1.0914
   23SAPC   H3R 3014   6.975   1.836  10.346 -0.0459  0.5890  1.6257
   23SAPC   H3S 3015   6.842   1.947  10.371  2.1571  1.0175  1.1083
   23SAPC   C24 3016   6.813   1.799  10.198  0.4082 -0.7447 -0.8536
   23SAPC   H4R 3017   6.850   1.694  10.189 -0.6445 -1.1966 -0.1316
   23SAPC   H4S 3018   6.863   1.859  10.119 -1.3026 -1.1300 -2.2806
   23SAPC   C25 3019   6.670   1.816  10.183 -0.4529 -0.5552 -0.6281
   23SAPC   H5R 3020   6.612   1.738  10.235 -0.6021 -0.9398 -1.3545
   23SAPC   C26 3021   6.601   1.902  10.099 -0.0396 -0.1282 -0.2988
   23SAPC   H6R 3022   6.492   1.896  10.081 -0.1261 -0.5118  0.3379
   23SAPC   C27 3023   6.670   1.998  10.014  0.4243  0.4628  0.5444
   23SAPC   H7R 3024   6.742   2.054  10.077 -0.6564  1.0110  1.3367
   23SAPC   H7S 3025   6.610   2.086   9.984  0.4902 -0.0348 -1.1536
   23SAPC   C28 3026   6.740   1.940   9.894  0.0917 -0.3346 -0.2997
   23SAPC   H8R 3027   6.825   1.877   9.925  1.9493  1.5061 -1.4083
   23SAPC   C29 3028   6.714   1.959   9.761  0.2518  0.3443 -0.1597
   23SAPC   H9R 3029   6.772   1.900   9.689  1.2694  1.4975 -0.3275
   23SAPC  C210 3030   6.594   2.045   9.711 -0.3882 -0.0041 -0.3605
   23SAPC  H10R 3031   6.614   2.153   9.699 -2.0569  0.5453  1.4100
   23SAPC  H10S 3032   6.514   2.044   9.787 -0.6508  4.0729 -0.3660
   23SAPC  C211 3033   6.544   1.983   9.587 -0.4121  0.1454 -0.2989
   23SAPC  H11R 3034   6.616   2.003   9.506  0.0781  3.5819  0.8357
   23SAPC  C212 3035   6.424   1.925   9.567  0.1376 -0.7678 -0.6529
   23SAPC  H12R 3036   6.396   1.895   9.465 -1.9127  0.0546 -0.3841
   23SAPC  C213 3037   6.313   1.918   9.665 -0.0639  0.4299 -0.6599
   23SAPC  H13R 3038   6.355   1.882   9.762 -2.0079 -0.2392 -0.0218
   23SAPC  H13S 3039   6.255   1.830   9.631 -0.5950  0.1531  0.8775
   23SAPC  C214 3040   6.228   2.040   9.698  0.7543  0.9095  0.2773
   23SAPC  H14R 3041   6.264   2.135   9.656 -1.4782  1.8592  0.3615
   23SAPC  C215 3042   6.118   2.050   9.777 -0.3624  0.3707  0.2819
   23SAPC  H15R 3043   6.062   2.143   9.795  0.0962  0.8057 -0.4703
   23SAPC  C216 3044   6.070   1.931   9.853  0.3393 -0.3561 -0.2978
   23SAPC  H16R 3045   6.120   1.839   9.816  1.9214  0.9675 -1.6292
   23SAPC  H16S 3046   5.959   1.927   9.848  0.3246  0.7363 -1.8892
   23SAPC  C217 3047   6.105   1.948   9.998 -0.5762 -0.2452 -0.7473
   23SAPC  H17R 3048   6.215   1.957  10.006 -0.7285 -0.0763  2.2803
   23SAPC  H17S 3049   6.067   1.856  10.049  1.0759 -0.4335  0.2097
   23SAPC  C218 3050   6.047   2.063  10.078  0.0884  0.5413  0.5605
   23SAPC  H18R 3051   5.946   2.045  10.120 -0.1019 -0.2306 -0.1943
   23SAPC  H18S 3052   6.041   2.153  10.013  0.3992 -1.0486 -1.8015
   23SAPC  C219 3053   6.135   2.078  10.203  0.2037 -0.0220 -0.9904
   23SAPC  H19R 3054   6.239   2.090  10.165  0.3736 -0.6902 -0.7492
   23SAPC  H19S 3055   6.142   1.982  10.258  3.2243  0.2369 -0.7213
   23SAPC  C220 3056   6.100   2.197  10.292 -0.1921  0.6571  0.6014
   23SAPC  H20R 3057   6.101   2.288  10.228  1.5704  1.5571  1.8194
   23SAPC  H20S 3058   6.171   2.215  10.375 -0.7411  2.7559  0.6610
   23SAPC  H20T 3059   6.003   2.190  10.346 -1.2303  1.9018 -1.0000
   23SAPC   C33 3060   6.596   1.505   9.968 -0.5102  1.0165 -1.2655
   23SAPC   H3X 3061   6.610   1.604  10.017  0.4338 -0.9143  2.7532
   23SAPC   H3Y 3062   6.499   1.461   9.997  0.6316 -2.0162 -1.7230
   23SAPC   C34 3063   6.610   1.505   9.815  0.1582  0.2326 -0.3445
   23SAPC   H4X 3064   6.535   1.582   9.784  0.1949  0.6560  0.5823
   23SAPC   H4Y 3065   6.583   1.405   9.774  1.4419 -0.2187 -0.1244
   23SAPC   C35 3066   6.752   1.539   9.771 -0.9731  0.2754  0.2967
   23SAPC   H5X 3067   6.821   1.461   9.810 -0.2225 -0.2474 -1.8918
   23SAPC   H5Y 3068   6.770   1.644   9.801 -1.2260  0.4684 -0.2063
   23SAPC   C36 3069   6.764   1.534   9.617 -0.6281 -0.0238 -0.9599
   23SAPC   H6X 3070   6.750   1.426   9.592  0.8203 -0.8241  1.4208
   23SAPC   H6Y 3071   6.865   1.572   9.589 -1.2363  2.6389  0.1833
   23SAPC   C37 3072   6.659   1.611   9.538 -0.7170  0.6841 -0.4626
   23SAPC   H7X 3073   6.653   1.710   9.589  2.3609  0.1911  1.1132
   23SAPC   H7Y 3074   6.558   1.565   9.531 -0.0718 -0.5429 -4.1254
   23SAPC   C38 3075   6.704   1.668   9.399 -0.2751  0.3725 -0.3093
   23SAPC   H8X 3076   6.810   1.635   9.386 -0.2351 -1.2751  3.1705
   23SAPC   H8Y 3077   6.700   1.779   9.405  3.4656  0.8859 -3.0893
   23SAPC   C39 3078   6.619   1.620   9.281  0.1913  0.5515 -0.4128
   23SAPC   H9X 3079   6.519   1.665   9.298  0.7573  1.9438 -0.6595
   23SAPC   H9Y 3080   6.600   1.511   9.297 -0.6488  1.0026  2.1372
   23SAPC  C310 3081   6.667   1.641   9.140  0.0527  0.1175 -0.1637
   23SAPC  H10X 3082   6.594   1.579   9.084  1.1568  0.0708 -1.6344
   23SAPC  H10Y 3083   6.756   1.577   9.126  0.3118  0.1839  1.0743
   23SAPC  C311 3084   6.680   1.777   9.076 -0.1877 -0.2973 -0.2831
   23SAPC  H11X 3085   6.719   1.774   8.972 -1.2340  1.4249 -0.7842
   23SAPC  H11Y 3086   6.745   1.847   9.134 -0.8565  0.1992 -0.1105
   23SAPC  C312 3087   6.544   1.860   9.078  0.8794 -0.0117  0.2675
   23SAPC  H12X 3088   6.556   1.960   9.029 -1.0678 -0.4747 -1.2732
   23SAPC  H12Y 3089   6.513   1.875   9.184 -0.2281  2.2650 -0.2969
   23SAPC  C313 3090   6.422   1.797   8.999  0.4473  0.0945 -0.1509
   23SAPC  H13X 3091   6.324   1.850   9.006  0.0159 -0.3936 -1.9042
   23SAPC  H13Y 3092   6.404   1.697   9.044 -1.1899  0.3348 -0.1887
   23SAPC  C314 3093   6.450   1.775   8.842  0.4294 -0.2988 -0.8087
   23SAPC  H14X 3094   6.518   1.690   8.823 -0.9353 -1.5481 -0.3222
   23SAPC  H14Y 3095   6.507   1.866   8.814 -0.2463  0.8332  1.2595
   23SAPC  C315 3096   6.322   1.734   8.778  0.2816 -0.3971  0.4619
   23SAPC  H15X 3097   6.237   1.754   8.848  0.7475 -1.1263  1.2601
   23SAPC  H15Y 3098   6.320   1.624   8.758  1.5239 -0.4544  0.6263
   23SAPC  C316 3099   6.291   1.815   8.646 -0.4262 -0.3021  0.0405
   23SAPC  H16X 3100   6.374   1.783   8.579  1.5637  0.8036  1.8636
   23SAPC  H16Y 3101   6.290   1.924   8.667 -1.3883 -0.3767  0.4341
   23SAPC  C317 3102   6.161   1.784   8.584 -0.0867 -0.4063  0.2431
   23SAPC  H17X 3103   6.137   1.678   8.605 -2.4394 -0.4847 -2.2730
   23SAPC  H17Y 3104   6.154   1.795   8.474 -1.9040  0.7715  0.4252
   23SAPC  C318 3105   6.053   1.867   8.654  0.9637  0.1420  0.3387
   23SAPC  H18X 3106   6.052   1.857   8.765 -2.5351  0.3650  0.4377
   23SAPC  H18Y 3107   5.950   1.841   8.624  0.9141 -1.5039  1.7304
   23SAPC  H18Z 3108   6.069   1.971   8.618  1.2656 -0.3157 -0.8991
   24SAPC     N 3109   2.740   2.353  11.189 -0.6557 -0.1562 -0.3288
   24SAPC   C12 3110   2.619   2.279  11.137 -0.6040 -0.4513  0.0217
   24SAPC  H12A 3111   2.537   2.286  11.208 -0.4097  1.6196  0.0949
   24SAPC  H12B 3112   2.648   2.175  11.136  0.9200 -0.0462 -0.8230
   24SAPC   C13 3113   2.845   2.339  11.082 -0.0716 -0.7961 -0.2254
   24SAPC  H13A 3114   2.896   2.244  11.073 -0.0144 -0.7529 -0.3650
   24SAPC  H13B 3115   2.811   2.373  10.985  0.3932 -1.9555 -0.8105
   24SAPC  H13C 3116   2.929   2.395  11.122 -1.0165 -0.1743  0.9351
   24SAPC   C14 3117   2.718   2.495  11.203  0.0832 -0.6703 -0.6964
   24SAPC  H14A 3118   2.703   2.544  11.108  2.4544  3.0091  0.6238
   24SAPC  H14B 3119   2.629   2.504  11.264  1.6301  0.4684  1.5088
   24SAPC  H14C 3120   2.805   2.538  11.250  0.0935 -1.7541  0.3105
   24SAPC   C15 3121   2.795   2.287  11.313  0.6044 -0.1183  0.5568
   24SAPC  H15A 3122   2.708   2.290  11.376 -1.9780 -0.4227 -2.7097
   24SAPC  H15B 3123   2.821   2.183  11.298  0.8939 -0.3690  2.5335
   24SAPC  H15C 3124   2.875   2.344  11.356  0.8644  0.4141 -0.5858
   24SAPC   C11 3125   2.578   2.317  10.984  0.1647 -0.2228 -0.4160
   24SAPC  H11A 3126   2.493   2.247  10.974  0.3797 -0.2243 -2.7822
   24SAPC  H11B 3127   2.648   2.282  10.904  0.0717 -2.3399  0.3599
   24SAPC     P 3128   2.407   2.505  11.034  0.1945  0.1386 -0.2925
   24SAPC   O13 3129   2.366   2.408  11.135 -0.1017 -0.3192  0.0933
   24SAPC   O14 3130   2.437   2.645  11.076  0.0986  0.3250  0.2184
   24SAPC   O12 3131   2.533   2.451  10.962  0.5024 -0.3902 -0.2311
   24SAPC   O11 3132   2.283   2.511  10.927 -0.3394  0.4511  0.0605
   24SAPC    C1 3133   2.255   2.387  10.860  0.2045  0.3955 -0.4026
   24SAPC    HA 3134   2.282   2.300  10.924 -0.0826  0.8419  0.3461
   24SAPC    HB 3135   2.145   2.374  10.853  0.0745  0.2980  1.2942
   24SAPC    C2 3136   2.292   2.384  10.705 -0.3038 -0.0848 -0.0275
   24SAPC    HS 3137   2.402   2.395  10.711 -0.2226 -0.1527 -1.2402
   24SAPC   O21 3138   2.221   2.490  10.640 -1.0135 -0.4016 -0.1321
   24SAPC   C21 3139   2.299   2.553  10.554  0.3785  0.2092  0.1291
   24SAPC   O22 3140   2.416   2.530  10.521 -0.2144 -0.4342  0.5070
   24SAPC   C22 3141   2.207   2.647  10.475 -0.9480  0.5616  0.0416
   24SAPC   H2R 3142   2.115   2.668  10.534 -1.6211  1.3585 -1.2624
   24SAPC   H2S 3143   2.259   2.745  10.472 -2.3567  1.3192 -2.7803
   24SAPC    C3 3144   2.257   2.239  10.657  0.5644 -0.0709  0.3083
   24SAPC    HX 3145   2.150   2.221  10.680 -0.2968  3.5938 -0.1565
   24SAPC    HY 3146   2.322   2.164  10.707 -0.3826 -1.8360 -1.0126
   24SAPC   O31 3147   2.302   2.225  10.516 -0.3413  0.4257  0.2280
   24SAPC   C31 3148   2.209   2.233  10.423  0.4261  0.1816  0.2252
   24SAPC   O32 3149   2.089   2.254  10.444  0.2155  0.0176 -0.2268
   24SAPC   C32 3150   2.268   2.217  10.286  0.5588 -0.2047 -0.1011
   24SAPC   H2X 3151   2.315   2.116  10.290 -0.1243 -0.5017  0.8477
   24SAPC   H2Y 3152   2.342   2.299  10.272  1.7978 -1.2151  0.2947
   24SAPC   C23 3153   2.179   2.622  10.325  0.6962 -0.0094  0.5644
   24SAPC   H3R 3154   2.111   2.706  10.300  1.4456  0.9641  1.6508
   24SAPC   H3S 3155   2.120   2.536  10.288 -0.3621  1.7993 -2.3864
   24SAPC   C24 3156   2.310   2.622  10.244  0.3056  0.1295 -0.1461
   24SAPC   H4R 3157   2.281   2.583  10.144 -0.4064  0.0697  0.0772
   24SAPC   H4S 3158   2.385   2.552  10.287 -1.4123 -0.6850  1.6933
   24SAPC   C25 3159   2.371   2.753  10.240 -0.0998 -0.4179  0.1979
   24SAPC   H5R 3160   2.394   2.805  10.334  0.1561 -2.1890  1.1546
   24SAPC   C26 3161   2.407   2.822  10.131  0.1766  0.0492 -0.0441
   24SAPC   H6R 3162   2.439   2.927  10.141  0.6082  0.0256 -1.0820
   24SAPC   C27 3163   2.392   2.784   9.985 -0.2240  0.1486 -0.3605
   24SAPC   H7R 3164   2.415   2.678   9.960 -2.0543  0.1480 -2.4061
   24SAPC   H7S 3165   2.460   2.847   9.924  1.8120  0.2546  1.8604
   24SAPC   C28 3166   2.256   2.787   9.918  0.0542  0.0943 -0.3926
   24SAPC   H8R 3167   2.171   2.828   9.973  0.2237  0.3170 -0.2924
   24SAPC   C29 3168   2.241   2.759   9.785  0.3009 -0.3032  0.5773
   24SAPC   H9R 3169   2.141   2.769   9.741  0.1569 -2.3255  0.3455
   24SAPC  C210 3170   2.352   2.724   9.690 -0.1418  0.9361  0.7404
   24SAPC  H10R 3171   2.323   2.636   9.628  1.3698  1.5920 -0.9886
   24SAPC  H10S 3172   2.439   2.680   9.742  0.0646  1.0000  0.4502
   24SAPC  C211 3173   2.392   2.843   9.607  0.0794 -0.1117 -0.4492
   24SAPC  H11R 3174   2.401   2.939   9.659 -1.6555 -0.1980  0.0694
   24SAPC  C212 3175   2.405   2.841   9.476  0.4575  0.0961  0.9411
   24SAPC  H12R 3176   2.443   2.928   9.419 -0.7673  0.2060  0.2468
   24SAPC  C213 3177   2.376   2.725   9.382 -0.0071  1.0195 -0.1554
   24SAPC  H13R 3178   2.273   2.689   9.405  1.1088 -0.1838  3.8236
   24SAPC  H13S 3179   2.435   2.631   9.390 -0.8775  0.4508 -0.2637
   24SAPC  C214 3180   2.373   2.754   9.235  0.0590 -0.5308  0.4252
   24SAPC  H14R 3181   2.394   2.665   9.174  0.2185  0.4506 -1.0200
   24SAPC  C215 3182   2.348   2.866   9.164 -0.3238 -0.1060  1.0439
   24SAPC  H15R 3183   2.375   2.862   9.058  2.8981 -0.8430  1.7738
   24SAPC  C216 3184   2.300   3.005   9.207 -0.4472  0.2378  0.7130
   24SAPC  H16R 3185   2.381   3.037   9.275  1.4472 -0.0400 -1.3198
   24SAPC  H16S 3186   2.206   3.004   9.266  1.3513  2.5105  3.8847
   24SAPC  C217 3187   2.288   3.098   9.081 -0.5214 -0.2905 -0.6929
   24SAPC  H17R 3188   2.385   3.097   9.026 -0.3584  0.5773 -0.4333
   24SAPC  H17S 3189   2.278   3.207   9.101  0.5764 -0.4045  0.6051
   24SAPC  C218 3190   2.180   3.054   8.987 -0.0845  1.2064 -0.2092
   24SAPC  H18R 3191   2.092   2.999   9.028 -1.3500  1.5391 -2.3265
   24SAPC  H18S 3192   2.228   2.978   8.922 -0.0241  1.8826 -0.9534
   24SAPC  C219 3193   2.120   3.156   8.893  0.3014 -0.5262 -0.1734
   24SAPC  H19R 3194   2.028   3.204   8.933  1.4357  1.7314 -0.0843
   24SAPC  H19S 3195   2.081   3.099   8.806  1.8613 -2.1513  0.1374
   24SAPC  C220 3196   2.223   3.252   8.848 -0.4119 -0.7239  0.4138
   24SAPC  H20R 3197   2.317   3.200   8.820  1.3308  2.1804  0.4430
   24SAPC  H20S 3198   2.236   3.328   8.928 -0.9755 -2.2931  2.0869
   24SAPC  H20T 3199   2.209   3.316   8.759  3.3877 -1.4062 -0.8145
   24SAPC   C33 3200   2.174   2.246  10.170  0.2070  0.1028  0.3599
   24SAPC   H3X 3201   2.120   2.341  10.189  0.9274  1.3275 -3.0333
   24SAPC   H3Y 3202   2.105   2.160  10.176 -0.6338  0.8604  2.2331
   24SAPC   C34 3203   2.245   2.257  10.036 -0.6899 -0.6461 -0.0154
   24SAPC   H4X 3204   2.301   2.163  10.019 -0.0178  0.0244 -1.7581
   24SAPC   H4Y 3205   2.315   2.342  10.026  0.6719 -1.7422 -0.0070
   24SAPC   C35 3206   2.149   2.252   9.915 -0.1384  1.4440 -0.9954
   24SAPC   H5X 3207   2.092   2.348   9.918  0.8956  2.0405  1.3096
   24SAPC   H5Y 3208   2.077   2.169   9.927  1.0353  0.4325 -0.7204
   24SAPC   C36 3209   2.214   2.234   9.780 -0.5476 -0.1998 -0.0521
   24SAPC   H6X 3210   2.302   2.301   9.770 -1.0370  0.3109 -1.1610
   24SAPC   H6Y 3211   2.144   2.261   9.698  0.3716  0.4266 -0.6625
   24SAPC   C37 3212   2.251   2.088   9.748  0.3889 -0.1362 -0.0744
   24SAPC   H7X 3213   2.157   2.029   9.744 -1.1118  2.1302 -0.2444
   24SAPC   H7Y 3214   2.300   2.039   9.834  0.0481 -1.0790 -0.4071
   24SAPC   C38 3215   2.324   2.071   9.624  0.4355 -0.4973  0.7503
   24SAPC   H8X 3216   2.427   2.103   9.653  0.6892 -1.9444  1.5376
   24SAPC   H8Y 3217   2.273   2.144   9.557  1.0481  0.2778  1.1122
   24SAPC   C39 3218   2.325   1.931   9.554 -0.3787 -0.6913 -0.5890
   24SAPC   H9X 3219   2.354   1.852   9.627  0.2731  0.1199  0.0476
   24SAPC   H9Y 3220   2.392   1.929   9.465  2.8857 -3.1854  1.6769
   24SAPC  C310 3221   2.179   1.885   9.507 -0.1801  0.1168  0.5910
   24SAPC  H10X 3222   2.115   1.860   9.595 -1.8936 -1.2699 -0.9685
   24SAPC  H10Y 3223   2.199   1.794   9.448  2.0676  0.3013  0.9885
   24SAPC  C311 3224   2.114   1.989   9.408  0.3075 -0.1621  0.0669
   24SAPC  H11X 3225   2.182   2.029   9.329 -0.6356  0.4500 -0.4649
   24SAPC  H11Y 3226   2.065   2.068   9.469  1.5681 -0.0809  1.0162
   24SAPC  C312 3227   2.010   1.910   9.327 -0.1903  0.1804  0.9473
   24SAPC  H12X 3228   1.946   1.858   9.401 -0.9007 -0.9477 -0.4104
   24SAPC  H12Y 3229   2.056   1.822   9.278 -0.2432  1.9087 -2.5100
   24SAPC  C313 3230   1.920   2.000   9.238  0.3554  0.5096  0.5287
   24SAPC  H13X 3231   1.986   2.059   9.171 -1.6837  1.7842 -0.4901
   24SAPC  H13Y 3232   1.867   2.074   9.302 -0.2743  0.3336  0.2192
   24SAPC  C314 3233   1.814   1.917   9.162  0.5299  0.0648  0.2720
   24SAPC  H14X 3234   1.734   1.990   9.141 -3.2864 -3.0208  2.6942
   24SAPC  H14Y 3235   1.762   1.839   9.221 -1.1667  0.7570 -0.2546
   24SAPC  C315 3236   1.873   1.841   9.044 -0.0448 -0.6834 -0.1473
   24SAPC  H15X 3237   1.961   1.777   9.069  2.2896  2.1387 -0.6064
   24SAPC  H15Y 3238   1.903   1.917   8.970 -0.1161 -1.6030 -1.1442
   24SAPC  C316 3239   1.765   1.760   8.972  0.2994 -0.6230 -0.0520
   24SAPC  H16X 3240   1.675   1.817   8.943  0.8384  0.3717  0.1848
   24SAPC  H16Y 3241   1.715   1.691   9.043  1.9721 -0.5868  1.2292
   24SAPC  C317 3242   1.815   1.680   8.854 -0.4825 -0.2860 -0.6653
   24SAPC  H17X 3243   1.893   1.610   8.889  0.3018  1.1990  0.6724
   24SAPC  H17Y 3244   1.869   1.748   8.785 -0.1546 -2.3847 -2.6013
   24SAPC  C318 3245   1.706   1.613   8.781 -0.0555  0.8478 -0.1273
   24SAPC  H18X 3246   1.620   1.677   8.753 -1.0010 -0.1922  0.3171
   24SAPC  H18Y 3247   1.678   1.522   8.838 -0.4075  1.3572  0.5215
   24SAPC  H18Z 3248   1.749   1.581   8.683  0.9489 -0.0864  0.5926
   25SAPC     N 3249   4.746   1.781   5.758  0.0931 -0.0318 -0.0801
   25SAPC   C12 3250   4.713   1.692   5.879  0.0111 -0.5420 -0.3703
   25SAPC  H12A 3251   4.738   1.588   5.862  1.4077 -0.3818  0.4692
   25SAPC  H12B 3252   4.606   1.695   5.889  0.1627  0.6156  1.3318
   25SAPC   C13 3253   4.684   1.919   5.777 -0.2643  1.1643 -0.3912
   25SAPC  H13A 3254   4.695   1.968   5.872 -0.3361 -0.0302  0.2547
   25SAPC  H13B 3255   4.727   1.996   5.714  0.4558  0.7378 -0.4418
   25SAPC  H13C 3256   4.582   1.900   5.747 -0.3090 -0.3114  0.5545
   25SAPC   C14 3257   4.896   1.798   5.742  0.2946 -0.3705 -0.0121
   25SAPC  H14A 3258   4.913   1.868   5.662 -1.9788 -1.7654 -1.8345
   25SAPC  H14B 3259   4.941   1.830   5.835  1.1413  0.6312 -0.7459
   25SAPC  H14C 3260   4.938   1.705   5.706  1.3379 -0.0711  0.3721
   25SAPC   C15 3261   4.703   1.716   5.635  0.6411 -0.6163  0.2716
   25SAPC  H15A 3262   4.724   1.771   5.544 -2.5913  2.6769  1.3088
   25SAPC  H15B 3263   4.735   1.613   5.624  0.3497 -0.6110 -0.7963
   25SAPC  H15C 3264   4.597   1.700   5.646  0.3747 -1.0341 -2.2291
   25SAPC   C11 3265   4.777   1.738   6.015 -0.4024 -0.5064 -0.3988
   25SAPC  H11A 3266   4.735   1.670   6.093 -0.5850 -0.7668 -0.7222
   25SAPC  H11B 3267   4.741   1.840   6.041 -2.1485 -0.9285 -0.9749
   25SAPC     P 3268   4.990   1.592   6.037 -0.0016  0.0824  0.1708
   25SAPC   O13 3269   4.899   1.478   6.013  0.3867 -0.4934  0.2578
   25SAPC   O14 3270   5.116   1.586   5.955  0.0347 -0.8300  0.0296
   25SAPC   O12 3271   4.917   1.725   6.020 -0.9628  0.7732 -0.6658
   25SAPC   O11 3272   5.028   1.597   6.191 -0.0501 -0.3064  0.0751
   25SAPC    C1 3273   5.086   1.717   6.243  0.2326  0.2372 -0.1721
   25SAPC    HA 3274   5.100   1.799   6.169 -1.4901  1.5835  0.9177
   25SAPC    HB 3275   5.014   1.752   6.320 -0.2433 -1.8360  0.3676
   25SAPC    C2 3276   5.228   1.686   6.302  0.0941 -0.0957 -0.0890
   25SAPC    HS 3277   5.270   1.623   6.220  1.2844  0.6451 -0.0713
   25SAPC   O21 3278   5.206   1.605   6.424 -0.3712 -0.2248 -0.2870
   25SAPC   C21 3279   5.310   1.523   6.460 -0.3627 -0.2052  1.0315
   25SAPC   O22 3280   5.414   1.513   6.397  0.0538 -0.3733  0.5376
   25SAPC   C22 3281   5.287   1.488   6.599  0.7246 -0.5247  0.4826
   25SAPC   H2R 3282   5.373   1.425   6.629  0.5984  0.4685  3.2557
   25SAPC   H2S 3283   5.293   1.580   6.662 -1.6492 -0.9450  1.4115
   25SAPC    C3 3284   5.320   1.805   6.317 -0.5570 -0.5057  0.1992
   25SAPC    HX 3285   5.350   1.867   6.229 -0.0726  1.0280  1.4008
   25SAPC    HY 3286   5.416   1.770   6.361 -1.1821  0.1735  2.2160
   25SAPC   O31 3287   5.262   1.903   6.405  0.6055 -0.2014 -0.5050
   25SAPC   C31 3288   5.280   1.898   6.544  0.1586  0.2706 -0.0626
   25SAPC   O32 3289   5.341   1.808   6.599 -0.0029 -0.7778 -0.2734
   25SAPC   C32 3290   5.208   2.022   6.606  0.0229 -0.2210 -0.7555
   25SAPC   H2X 3291   5.105   2.016   6.565  0.1515  1.6979 -1.4842
   25SAPC   H2Y 3292   5.258   2.118   6.579  2.2629 -0.2921  2.5530
   25SAPC   C23 3293   5.155   1.411   6.628 -0.4842 -0.2086  0.4978
   25SAPC   H3R 3294   5.169   1.308   6.587 -2.3245 -0.0951 -0.5438
   25SAPC   H3S 3295   5.063   1.456   6.586 -0.6367  0.1021  1.1619
   25SAPC   C24 3296   5.128   1.392   6.774 -0.1339 -0.2478  0.2918
   25SAPC   H4R 3297   5.100   1.486   6.826 -1.5568  0.4649 -1.6464
   25SAPC   H4S 3298   5.222   1.346   6.811 -0.7661 -1.4562  0.4551
   25SAPC   C25 3299   5.020   1.292   6.794  0.2230 -0.6020 -0.5885
   25SAPC   H5R 3300   4.951   1.281   6.709  1.1920  1.7675 -1.7732
   25SAPC   C26 3301   5.002   1.217   6.904  0.3922  0.0137  0.1282
   25SAPC   H6R 3302   4.938   1.128   6.894 -2.3855  1.7903  0.9027
   25SAPC   C27 3303   5.087   1.224   7.029  0.0367 -0.9128 -0.5939
   25SAPC   H7R 3304   5.169   1.298   7.017  0.5577 -1.3157  0.4202
   25SAPC   H7S 3305   5.137   1.126   7.045 -0.0207 -0.8582 -0.0608
   25SAPC   C28 3306   4.991   1.260   7.143  0.1990  0.4670  0.4056
   25SAPC   H8R 3307   4.893   1.214   7.125  0.8346 -0.9107  0.3153
   25SAPC   C29 3308   5.016   1.341   7.246  0.3478 -0.2968  0.0995
   25SAPC   H9R 3309   4.931   1.371   7.308  0.4789 -2.2895  1.3630
   25SAPC  C210 3310   5.142   1.416   7.277 -0.2044 -0.4726 -0.4302
   25SAPC  H10R 3311   5.196   1.456   7.188 -0.1007 -2.6215 -1.3926
   25SAPC  H10S 3312   5.219   1.353   7.327  1.4581  2.2227  0.6227
   25SAPC  C211 3313   5.129   1.524   7.379  0.1340  0.1216 -1.0598
   25SAPC  H11R 3314   5.123   1.625   7.335  0.6190  0.4672 -0.3475
   25SAPC  C212 3315   5.121   1.506   7.509 -0.0999  0.3669  0.0014
   25SAPC  H12R 3316   5.131   1.590   7.579 -0.2761  0.1223  0.3269
   25SAPC  C213 3317   5.125   1.373   7.579  0.2291  0.2298  0.1280
   25SAPC  H13R 3318   5.215   1.360   7.641 -0.3429 -1.9942  0.5851
   25SAPC  H13S 3319   5.145   1.295   7.503  4.2822 -0.2690  1.4966
   25SAPC  C214 3320   5.008   1.348   7.668  0.1286  0.7998  0.9113
   25SAPC  H14R 3321   4.931   1.273   7.643 -2.2783  3.1715  0.8139
   25SAPC  C215 3322   4.989   1.398   7.789 -0.0720 -0.5271  0.5295
   25SAPC  H15R 3323   4.888   1.380   7.828 -1.2965 -0.1126 -2.2239
   25SAPC  C216 3324   5.071   1.496   7.866 -0.5615  0.3236  0.9673
   25SAPC  H16R 3325   5.090   1.575   7.791  2.1191 -1.2682 -0.2063
   25SAPC  H16S 3326   5.172   1.450   7.876 -0.4113  0.4095 -0.0905
   25SAPC  C217 3327   5.015   1.540   7.997  0.6210 -0.4013 -0.9523
   25SAPC  H17R 3328   4.979   1.457   8.061 -1.5142  0.6130 -0.7237
   25SAPC  H17S 3329   4.917   1.589   7.978 -0.6728 -2.0871  0.9472
   25SAPC  C218 3330   5.112   1.641   8.067  0.7646  0.2304  0.3434
   25SAPC  H18R 3331   5.121   1.729   8.000  1.8336 -0.9417 -1.1203
   25SAPC  H18S 3332   5.203   1.577   8.070 -0.3648 -1.4309  0.7757
   25SAPC  C219 3333   5.077   1.671   8.225 -0.0725  0.7998  0.4140
   25SAPC  H19R 3334   4.983   1.731   8.229 -0.2845  0.3910  2.9768
   25SAPC  H19S 3335   5.144   1.751   8.263  2.3044 -0.0383 -1.7219
   25SAPC  C220 3336   5.060   1.558   8.327 -0.3636 -0.8701  0.4965
   25SAPC  H20R 3337   5.162   1.523   8.355 -0.0729 -0.6931 -0.3072
   25SAPC  H20S 3338   5.014   1.467   8.284 -1.6063 -0.4889  0.9896
   25SAPC  H20T 3339   5.014   1.591   8.422  1.0338  2.8104  0.0612
   25SAPC   C33 3340   5.202   2.017   6.761 -0.5018  0.1420 -0.0804
   25SAPC   H3X 3341   5.173   2.115   6.804  0.7761  0.2081  0.6726
   25SAPC   H3Y 3342   5.298   2.008   6.816 -2.2884 -2.7888  2.9468
   25SAPC   C34 3343   5.103   1.915   6.811  0.0332 -0.3781  0.1358
   25SAPC   H4X 3344   5.134   1.832   6.744 -1.5149  0.5711 -1.8735
   25SAPC   H4Y 3345   5.002   1.948   6.778  0.5481 -0.5331 -1.6992
   25SAPC   C35 3346   5.122   1.876   6.957  0.6619 -0.2084 -0.6422
   25SAPC   H5X 3347   5.230   1.896   6.974  1.0789  0.6198 -3.7168
   25SAPC   H5Y 3348   5.104   1.769   6.981  2.9448 -0.3238  0.9435
   25SAPC   C36 3349   5.032   1.957   7.053 -0.7339 -0.4323  0.1744
   25SAPC   H6X 3350   4.926   1.924   7.046 -1.0497  0.6678 -0.3743
   25SAPC   H6Y 3351   5.038   2.066   7.033  2.9248 -0.6723 -0.8948
   25SAPC   C37 3352   5.085   1.931   7.195 -0.2362  0.2626  0.1974
   25SAPC   H7X 3353   5.174   1.994   7.213 -0.4351  0.1382  1.7092
   25SAPC   H7Y 3354   5.115   1.825   7.210  2.1130  0.8241 -0.2142
   25SAPC   C38 3355   4.977   1.975   7.300  0.2007  0.1169 -0.0992
   25SAPC   H8X 3356   4.890   1.911   7.272 -0.5144  0.8787  0.3583
   25SAPC   H8Y 3357   4.953   2.082   7.282  1.6841  0.4967  0.0705
   25SAPC   C39 3358   5.013   1.933   7.444  0.1642 -0.5851 -0.3096
   25SAPC   H9X 3359   5.104   1.991   7.468 -0.4140  1.1365 -2.0217
   25SAPC   H9Y 3360   5.030   1.824   7.452  1.5702 -0.4149 -0.8069
   25SAPC  C310 3361   4.894   1.973   7.534 -0.5704 -0.0841  0.1990
   25SAPC  H10X 3362   4.802   1.914   7.518  0.6946 -2.2508  0.5180
   25SAPC  H10Y 3363   4.883   2.081   7.509 -1.4404 -0.5143 -1.3877
   25SAPC  C311 3364   4.939   1.946   7.680  0.1380 -0.6889  0.6102
   25SAPC  H11X 3365   5.047   1.973   7.678  0.1706 -0.7352 -2.2113
   25SAPC  H11Y 3366   4.927   1.838   7.699 -0.3420 -1.0969 -1.7188
   25SAPC  C312 3367   4.875   2.037   7.784 -0.4187 -0.4911 -0.1704
   25SAPC  H12X 3368   4.770   2.002   7.791 -0.2531 -0.6635  2.2911
   25SAPC  H12Y 3369   4.871   2.142   7.748 -0.5969 -0.7415 -0.8921
   25SAPC  C313 3370   4.941   2.020   7.920 -0.1897  0.3004  0.3815
   25SAPC  H13X 3371   5.048   2.047   7.914 -0.1890  0.3001  0.3865
   25SAPC  H13Y 3372   4.925   1.919   7.962  0.7149 -0.4285 -0.9755
   25SAPC  C314 3373   4.880   2.118   8.022 -0.1925  0.5993  0.3783
   25SAPC  H14X 3374   4.773   2.091   8.006  0.1113  0.2892 -1.2189
   25SAPC  H14Y 3375   4.894   2.225   7.997 -0.8622  0.8625  1.0698
   25SAPC  C315 3376   4.926   2.080   8.168  0.6192  0.5563  0.6747
   25SAPC  H15X 3377   5.024   2.130   8.184  1.1718 -0.1058 -0.5716
   25SAPC  H15Y 3378   4.942   1.970   8.161  0.6932  0.6146 -0.2057
   25SAPC  C316 3379   4.834   2.127   8.277  0.6067  0.4106 -0.0683
   25SAPC  H16X 3380   4.737   2.075   8.266  0.1486  0.5741  2.5288
   25SAPC  H16Y 3381   4.820   2.237   8.265 -1.9037  0.0771 -0.6044
   25SAPC  C317 3382   4.889   2.106   8.417  0.1114  0.2330 -0.6780
   25SAPC  H17X 3383   4.977   2.172   8.435 -1.8945  3.4276 -1.7374
   25SAPC  H17Y 3384   4.912   2.000   8.440 -1.4038 -0.3429 -1.6394
   25SAPC  C318 3385   4.791   2.166   8.521  0.5671  0.6372  0.5113
   25SAPC  H18X 3386   4.856   2.200   8.604  1.5504 -0.8819  0.4099
   25SAPC  H18Y 3387   4.710   2.097   8.554 -0.2390  0.0476 -2.3655
   25SAPC  H18Z 3388   4.750   2.254   8.466  0.8994  0.5234  0.0752
   26SAPC     N 3389   4.704   2.863   6.315 -0.0301  0.5742 -0.0456
   26SAPC   C12 3390   4.795   2.813   6.432 -0.2774 -0.8427  0.0222
   26SAPC  H12A 3391   4.770   2.709   6.450 -2.9673 -0.1871  0.5759
   26SAPC  H12B 3392   4.786   2.867   6.525  1.1176  0.8742 -0.7811
   26SAPC   C13 3393   4.739   2.787   6.191 -0.3515 -0.2859  0.0655
   26SAPC  H13A 3394   4.701   2.836   6.103  1.9850 -0.1421 -0.9524
   26SAPC  H13B 3395   4.846   2.775   6.183 -0.3920 -1.1796  0.6824
   26SAPC  H13C 3396   4.688   2.692   6.199 -2.2271  0.7533  1.0359
   26SAPC   C14 3397   4.560   2.834   6.342  0.5207 -0.2853 -0.4068
   26SAPC  H14A 3398   4.506   2.874   6.258  2.6287  0.8143 -1.3225
   26SAPC  H14B 3399   4.526   2.732   6.352 -1.4431  0.3420 -0.4122
   26SAPC  H14C 3400   4.538   2.876   6.439  4.5427 -2.2025  1.5607
   26SAPC   C15 3401   4.720   3.014   6.295  0.1070  0.2739  0.3144
   26SAPC  H15A 3402   4.816   3.050   6.261 -0.8686  3.3048  0.4104
   26SAPC  H15B 3403   4.636   3.036   6.230 -0.4539 -3.6701 -0.5433
   26SAPC  H15C 3404   4.701   3.069   6.386  0.6185  0.3047  0.4045
   26SAPC   C11 3405   4.951   2.813   6.429 -0.2188  0.5375  0.5461
   26SAPC  H11A 3406   4.985   2.762   6.522  2.2067 -0.1254 -0.6124
   26SAPC  H11B 3407   4.992   2.916   6.439  0.0774  0.6498 -1.4611
   26SAPC     P 3408   5.051   2.605   6.293 -0.2506 -0.1707  0.3956
   26SAPC   O13 3409   4.956   2.518   6.374  0.0519 -0.7145  0.3579
   26SAPC   O14 3410   5.066   2.571   6.151  0.0660  0.4717 -0.3803
   26SAPC   O12 3411   5.003   2.755   6.305  0.0088  0.3822  0.4494
   26SAPC   O11 3412   5.195   2.617   6.358  0.4479  0.2879 -0.1156
   26SAPC    C1 3413   5.289   2.721   6.343 -0.4396  0.4364  0.1141
   26SAPC    HA 3414   5.341   2.713   6.245 -0.1140  0.8598  0.2473
   26SAPC    HB 3415   5.255   2.823   6.372  1.8647  1.1228  0.5945
   26SAPC    C2 3416   5.397   2.688   6.450  0.3153  0.3394  0.1249
   26SAPC    HS 3417   5.433   2.586   6.425  0.0455  0.2670  0.0282
   26SAPC   O21 3418   5.335   2.691   6.578  0.7285 -0.3451 -0.3278
   26SAPC   C21 3419   5.281   2.579   6.627  0.0235  0.2179  0.6029
   26SAPC   O22 3420   5.307   2.465   6.590 -0.2908 -0.5228  0.3876
   26SAPC   C22 3421   5.190   2.616   6.744  0.2055  0.3084 -0.4042
   26SAPC   H2R 3422   5.244   2.677   6.819 -0.2245  1.1575 -0.7753
   26SAPC   H2S 3423   5.108   2.685   6.715 -1.7183 -1.3256  0.8222
   26SAPC    C3 3424   5.528   2.774   6.440  0.2431 -0.1403  0.0257
   26SAPC    HX 3425   5.501   2.882   6.434 -0.2334 -0.3334 -2.8195
   26SAPC    HY 3426   5.571   2.753   6.339  0.0756 -0.4642  0.0216
   26SAPC   O31 3427   5.637   2.746   6.532 -0.6885  0.3731  0.6947
   26SAPC   C31 3428   5.621   2.802   6.651 -0.1919  0.3007  0.0594
   26SAPC   O32 3429   5.531   2.878   6.679  0.3341  0.5842 -0.3179
   26SAPC   C32 3430   5.726   2.740   6.752  0.3937 -0.1150  0.0448
   26SAPC   H2X 3431   5.824   2.779   6.716  1.1022  1.0072  2.9341
   26SAPC   H2Y 3432   5.736   2.631   6.736  1.1444 -0.4043  2.2500
   26SAPC   C23 3433   5.124   2.493   6.824  0.5588 -0.0088 -0.3057
   26SAPC   H3R 3434   5.076   2.423   6.753  1.0218 -1.8563  1.1066
   26SAPC   H3S 3435   5.037   2.524   6.885 -1.2440  0.0087 -2.7358
   26SAPC   C24 3436   5.211   2.414   6.915  0.1415 -0.5707 -0.2239
   26SAPC   H4R 3437   5.297   2.378   6.855 -0.4275 -0.1987 -1.2730
   26SAPC   H4S 3438   5.157   2.319   6.937 -0.2152 -0.2935  0.1307
   26SAPC   C25 3439   5.262   2.485   7.035  0.5523  0.0816  0.7462
   26SAPC   H5R 3440   5.354   2.543   7.015  1.4744 -2.1955 -2.1451
   26SAPC   C26 3441   5.215   2.451   7.158 -0.3180  0.2972 -0.1477
   26SAPC   H6R 3442   5.253   2.498   7.250 -0.2167  0.0652 -0.0690
   26SAPC   C27 3443   5.104   2.352   7.190  0.0778  1.0865 -0.3387
   26SAPC   H7R 3444   5.111   2.332   7.299  0.3573 -0.1201 -0.5625
   26SAPC   H7S 3445   5.112   2.254   7.138 -0.2155  1.9408 -2.0877
   26SAPC   C28 3446   4.960   2.391   7.164  0.2379 -0.2341 -0.6835
   26SAPC   H8R 3447   4.921   2.378   7.062 -0.8569  0.6044 -0.3925
   26SAPC   C29 3448   4.879   2.450   7.260  0.4720 -0.2790 -0.5645
   26SAPC   H9R 3449   4.776   2.475   7.233  1.4890  1.8990 -2.8246
   26SAPC  C210 3450   4.915   2.495   7.397  0.1475  0.0868  0.6619
   26SAPC  H10R 3451   4.980   2.584   7.381  0.2879 -0.2493 -0.7726
   26SAPC  H10S 3452   4.982   2.416   7.436  1.0667 -0.2464 -1.4616
   26SAPC  C211 3453   4.800   2.527   7.487 -0.0512  0.0183 -0.1557
   26SAPC  H11R 3454   4.700   2.517   7.443 -0.5301  0.4545  0.8009
   26SAPC  C212 3455   4.820   2.571   7.614  0.0496 -0.5934  0.1913
   26SAPC  H12R 3456   4.733   2.596   7.676  0.2917  1.0410 -0.0934
   26SAPC  C213 3457   4.960   2.605   7.657  0.1541  0.3084  0.3228
   26SAPC  H13R 3458   5.021   2.630   7.568 -0.2273 -0.5879 -0.2026
   26SAPC  H13S 3459   5.016   2.519   7.700 -1.4544 -0.6616  0.5610
   26SAPC  C214 3460   4.969   2.727   7.744  0.1771 -0.7762  0.0903
   26SAPC  H14R 3461   5.004   2.819   7.695  0.2941 -0.4752  0.7281
   26SAPC  C215 3462   4.931   2.736   7.873 -0.2262 -0.4884  0.1856
   26SAPC  H15R 3463   4.938   2.834   7.922 -0.3556  0.1813 -1.1042
   26SAPC  C216 3464   4.882   2.616   7.952  0.0942 -0.2675 -0.7643
   26SAPC  H16R 3465   4.914   2.515   7.919 -1.0924 -0.5522 -1.0777
   26SAPC  H16S 3466   4.771   2.610   7.951  0.0116  0.7902  0.3908
   26SAPC  C217 3467   4.925   2.629   8.103  0.3197  0.2688  0.1055
   26SAPC  H17R 3468   4.906   2.732   8.141 -5.5496  0.0375 -1.2298
   26SAPC  H17S 3469   5.035   2.614   8.106  1.1849  5.0472  2.5911
   26SAPC  C218 3470   4.857   2.521   8.191 -0.4820  0.4378 -0.3283
   26SAPC  H18R 3471   4.848   2.431   8.126 -0.2769  1.1692 -1.3926
   26SAPC  H18S 3472   4.754   2.558   8.209 -0.1278  1.0080  0.6292
   26SAPC  C219 3473   4.931   2.493   8.329 -0.1657 -0.3682  0.6944
   26SAPC  H19R 3474   5.038   2.478   8.302 -0.0213  0.4437  0.7772
   26SAPC  H19S 3475   4.903   2.395   8.371  0.5406 -0.8326  0.1092
   26SAPC  C220 3476   4.927   2.605   8.436  0.4581  0.3224 -0.6988
   26SAPC  H20R 3477   4.992   2.582   8.523 -1.1244 -0.0670  0.4187
   26SAPC  H20S 3478   4.823   2.617   8.473  1.1681  1.1431  1.0934
   26SAPC  H20T 3479   4.952   2.702   8.387  0.8419 -0.2807 -1.7250
   26SAPC   C33 3480   5.687   2.771   6.892  0.1436 -0.1341 -0.1850
   26SAPC   H3X 3481   5.664   2.877   6.918  1.7206  0.6123 -1.5952
   26SAPC   H3Y 3482   5.776   2.760   6.958 -0.4913  0.8520  0.8711
   26SAPC   C34 3483   5.588   2.670   6.940  0.1332  0.2671  0.0094
   26SAPC   H4X 3484   5.633   2.573   6.911  0.4504  0.2769  0.4749
   26SAPC   H4Y 3485   5.489   2.675   6.889  0.3965  3.1818 -0.3609
   26SAPC   C35 3486   5.567   2.664   7.090  0.2342 -0.1381  0.4101
   26SAPC   H5X 3487   5.669   2.668   7.134  1.7366 -1.1946 -2.7321
   26SAPC   H5Y 3488   5.518   2.569   7.119 -2.2025  1.2715  1.3019
   26SAPC   C36 3489   5.490   2.777   7.161  0.8534 -0.3285 -0.3059
   26SAPC   H6X 3490   5.389   2.793   7.118 -0.2672  0.7000  2.5007
   26SAPC   H6Y 3491   5.544   2.870   7.134  0.5912 -0.3711 -0.9961
   26SAPC   C37 3492   5.470   2.756   7.312 -0.2416 -0.3970  0.2422
   26SAPC   H7X 3493   5.530   2.833   7.365 -0.7340 -0.7079  1.2810
   26SAPC   H7Y 3494   5.491   2.650   7.338  0.5341 -0.2767  0.1202
   26SAPC   C38 3495   5.320   2.770   7.351 -0.4998 -0.2591  0.0864
   26SAPC   H8X 3496   5.256   2.722   7.274  2.0306 -0.5417 -2.0255
   26SAPC   H8Y 3497   5.298   2.879   7.349  2.1180  0.3372  0.2109
   26SAPC   C39 3498   5.289   2.714   7.491  0.8605 -0.3177  0.6773
   26SAPC   H9X 3499   5.294   2.605   7.471  0.6469 -0.5668  1.8951
   26SAPC   H9Y 3500   5.191   2.745   7.534  1.1044  2.0198 -0.2830
   26SAPC  C310 3501   5.390   2.754   7.603 -0.2353  0.3541 -0.7423
   26SAPC  H10X 3502   5.418   2.861   7.597  2.8671 -0.2808  0.5676
   26SAPC  H10Y 3503   5.484   2.704   7.574  2.5333  3.8232  1.4960
   26SAPC  C311 3504   5.372   2.698   7.743 -0.7923 -0.1801 -0.4632
   26SAPC  H11X 3505   5.402   2.591   7.744 -4.1572 -1.2466  0.9544
   26SAPC  H11Y 3506   5.269   2.714   7.781  0.1515 -2.3565  3.5055
   26SAPC  C312 3507   5.467   2.779   7.842 -0.0731  0.1236  0.1295
   26SAPC  H12X 3508   5.465   2.889   7.828  0.0643 -0.0793 -1.6924
   26SAPC  H12Y 3509   5.568   2.749   7.809 -0.8073 -0.7649 -1.4611
   26SAPC  C313 3510   5.441   2.750   7.993 -0.1174  0.0345 -0.1304
   26SAPC  H13X 3511   5.522   2.801   8.049  1.5449 -0.9471 -1.5044
   26SAPC  H13Y 3512   5.455   2.639   7.997 -0.0883  0.0036 -0.8613
   26SAPC  C314 3513   5.305   2.794   8.052  0.3837  0.5141 -0.1737
   26SAPC  H14X 3514   5.233   2.716   8.021 -1.1032  1.6829  0.1935
   26SAPC  H14Y 3515   5.277   2.888   8.000  0.2771  0.0178 -1.0210
   26SAPC  C315 3516   5.288   2.788   8.201  0.4597 -0.2392  0.1056
   26SAPC  H15X 3517   5.328   2.687   8.228  0.9780 -0.8219 -2.5345
   26SAPC  H15Y 3518   5.186   2.777   8.242  0.5846  1.9206  1.1184
   26SAPC  C316 3519   5.365   2.898   8.280  0.0745  0.5974 -0.0280
   26SAPC  H16X 3520   5.472   2.879   8.260 -0.5137 -0.2305 -2.8179
   26SAPC  H16Y 3521   5.349   2.877   8.388  1.2580  0.0581  0.0529
   26SAPC  C317 3522   5.322   3.039   8.245 -0.1380 -0.0994  0.6762
   26SAPC  H17X 3523   5.213   3.050   8.259 -0.6752  0.3510 -2.8402
   26SAPC  H17Y 3524   5.350   3.055   8.139  0.9337 -1.5715  0.7023
   26SAPC  C318 3525   5.397   3.146   8.327  0.0198 -0.0466 -0.2008
   26SAPC  H18X 3526   5.369   3.129   8.433 -0.8600 -1.3480 -0.6186
   26SAPC  H18Y 3527   5.367   3.247   8.290 -0.2164  0.1491  0.5064
   26SAPC  H18Z 3528   5.506   3.132   8.311 -0.5378 -1.2157 -4.0262
   27SAPC     N 3529   4.740   4.963   6.542  1.1898  0.6720  0.0097
   27SAPC   C12 3530   4.754   4.814   6.562  0.4705 -0.4180  0.3823
   27SAPC  H12A 3531   4.821   4.770   6.489 -1.0492 -2.8345  0.3126
   27SAPC  H12B 3532   4.663   4.765   6.531  0.0046  1.5394 -1.6322
   27SAPC   C13 3533   4.870   5.031   6.574  0.5025 -0.5965  0.1095
   27SAPC  H13A 3534   4.911   5.025   6.674 -1.6385  2.4530  1.3333
   27SAPC  H13B 3535   4.951   4.993   6.514 -0.9390 -3.1761 -0.3702
   27SAPC  H13C 3536   4.856   5.137   6.562 -0.5907 -0.7292  0.1258
   27SAPC   C14 3537   4.701   4.989   6.400  0.3533  1.0774 -0.2214
   27SAPC  H14A 3538   4.781   4.963   6.331  0.0166 -4.4783  0.9674
   27SAPC  H14B 3539   4.612   4.936   6.369  1.1061  0.2235 -0.9927
   27SAPC  H14C 3540   4.678   5.093   6.383  0.5209  0.7643 -2.8730
   27SAPC   C15 3541   4.629   5.001   6.635 -0.5841 -0.3296  0.0070
   27SAPC  H15A 3542   4.625   5.109   6.639  3.0641 -0.0779  0.7058
   27SAPC  H15B 3543   4.536   4.957   6.601 -1.0942  1.6021 -1.2187
   27SAPC  H15C 3544   4.651   4.965   6.734 -0.2641 -1.2789 -0.3914
   27SAPC   C11 3545   4.801   4.760   6.699 -0.0887  0.2272 -0.6321
   27SAPC  H11A 3546   4.905   4.792   6.722 -0.4142  1.4301 -0.7719
   27SAPC  H11B 3547   4.808   4.650   6.683 -1.6615 -0.3791  2.1632
   27SAPC     P 3548   4.581   4.702   6.823  0.3839  0.4984 -0.2577
   27SAPC   O13 3549   4.480   4.793   6.881  0.0162  0.5048  0.6081
   27SAPC   O14 3550   4.549   4.637   6.688 -0.2925 -0.4314 -0.5278
   27SAPC   O12 3551   4.718   4.784   6.809 -0.6556  0.1363  0.5051
   27SAPC   O11 3552   4.612   4.591   6.932  0.3872 -0.3761  0.3661
   27SAPC    C1 3553   4.737   4.523   6.939  0.5936 -0.8364 -0.0633
   27SAPC    HA 3554   4.823   4.579   6.897 -0.1321  0.9566  0.7232
   27SAPC    HB 3555   4.748   4.505   7.048 -0.0951  0.2565  0.2020
   27SAPC    C2 3556   4.710   4.382   6.881 -1.0580  0.0381 -0.1979
   27SAPC    HS 3557   4.644   4.390   6.793  1.0198 -0.1535 -1.8650
   27SAPC   O21 3558   4.663   4.300   6.992 -0.3337 -0.3821 -0.0581
   27SAPC   C21 3559   4.607   4.189   6.948  0.3276 -0.0144 -0.0618
   27SAPC   O22 3560   4.590   4.156   6.834  0.0522 -0.3541 -0.0839
   27SAPC   C22 3561   4.571   4.093   7.076  0.2986 -0.0101 -0.2938
   27SAPC   H2R 3562   4.656   4.098   7.148 -0.9915  2.4460  1.1964
   27SAPC   H2S 3563   4.489   4.140   7.134 -0.7472 -1.0618 -0.8804
   27SAPC    C3 3564   4.841   4.322   6.816 -0.1275 -0.3981  0.0560
   27SAPC    HX 3565   4.870   4.374   6.722  0.9412  0.4347  0.8316
   27SAPC    HY 3566   4.831   4.214   6.792  1.7779 -0.8881  1.3061
   27SAPC   O31 3567   4.949   4.341   6.909 -0.6592 -0.1713  0.1690
   27SAPC   C31 3568   4.993   4.233   6.977 -0.0083  0.3420  0.4109
   27SAPC   O32 3569   4.949   4.121   6.972 -1.0470 -0.1416 -0.0585
   27SAPC   C32 3570   5.102   4.273   7.079 -0.4139  0.2897  0.4690
   27SAPC   H2X 3571   5.181   4.329   7.024 -1.7046  1.2489 -0.4919
   27SAPC   H2Y 3572   5.151   4.179   7.110 -1.6788  0.3760  2.9926
   27SAPC   C23 3573   4.512   3.961   7.020  0.2753 -0.3492  0.7513
   27SAPC   H3R 3574   4.577   3.938   6.932  0.5319  2.0529  0.2558
   27SAPC   H3S 3575   4.408   3.977   6.984  0.7805  0.4156 -0.4205
   27SAPC   C24 3576   4.508   3.848   7.126  0.4831 -0.4646 -0.0720
   27SAPC   H4R 3577   4.442   3.762   7.103 -2.8844  1.0450  2.9039
   27SAPC   H4S 3578   4.466   3.888   7.221 -0.3070 -0.0209 -0.5907
   27SAPC   C25 3579   4.648   3.791   7.134 -0.2745  0.3624  0.1940
   27SAPC   H5R 3580   4.683   3.740   7.043  0.5823 -1.2379  1.3789
   27SAPC   C26 3581   4.725   3.803   7.242 -0.5077  0.5371 -0.1614
   27SAPC   H6R 3582   4.828   3.764   7.234 -0.6433  0.2777 -0.6394
   27SAPC   C27 3583   4.687   3.874   7.371 -0.2341  0.1460 -0.3787
   27SAPC   H7R 3584   4.650   3.799   7.444  1.4853  0.5988  1.0273
   27SAPC   H7S 3585   4.601   3.944   7.369  0.1155  0.5896 -0.0951
   27SAPC   C28 3586   4.802   3.950   7.445 -1.1256  0.2693 -0.1259
   27SAPC   H8R 3587   4.885   3.993   7.388  0.6873 -2.0218  0.6603
   27SAPC   C29 3588   4.826   3.957   7.573  0.2760  0.8066 -0.0016
   27SAPC   H9R 3589   4.914   4.014   7.605 -1.3018  2.0609  2.4873
   27SAPC  C210 3590   4.745   3.885   7.680 -0.0583  0.2038  0.4172
   27SAPC  H10R 3591   4.645   3.851   7.646  0.2732  0.1435 -0.5340
   27SAPC  H10S 3592   4.719   3.958   7.759 -4.2595  0.6787 -1.1830
   27SAPC  C211 3593   4.824   3.770   7.734 -0.1087 -0.4985  0.7175
   27SAPC  H11R 3594   4.844   3.691   7.660 -1.1403 -0.4137  0.3302
   27SAPC  C212 3595   4.875   3.739   7.850 -0.2952  0.0137  0.6006
   27SAPC  H12R 3596   4.915   3.637   7.859 -1.1836 -0.3939  0.0977
   27SAPC  C213 3597   4.885   3.811   7.979 -0.3447 -0.8810  0.1650
   27SAPC  H13R 3598   4.935   3.743   8.051  0.6721  1.3134  1.6608
   27SAPC  H13S 3599   4.780   3.805   8.016  0.2761  2.4281  3.0093
   27SAPC  C214 3600   4.941   3.952   7.980  0.1878 -0.3387  0.0501
   27SAPC  H14R 3601   4.999   3.992   7.896  2.7887 -0.0400  1.8611
   27SAPC  C215 3602   4.931   4.040   8.087  0.1123 -0.2675  0.5287
   27SAPC  H15R 3603   4.972   4.140   8.067  0.6731 -0.5440  0.2804
   27SAPC  C216 3604   4.852   4.020   8.214  0.8909 -0.4471 -0.8244
   27SAPC  H16R 3605   4.805   3.919   8.213  1.5411 -0.7780  0.1729
   27SAPC  H16S 3606   4.770   4.095   8.221  0.6487 -0.8328  0.7897
   27SAPC  C217 3607   4.930   4.034   8.346  1.0376 -0.6660  0.4909
   27SAPC  H17R 3608   5.012   3.960   8.365  0.0389 -1.8157  0.4689
   27SAPC  H17S 3609   4.861   4.002   8.427  3.0979 -1.7717  1.9145
   27SAPC  C218 3610   4.972   4.175   8.373  0.3441  0.3477 -0.0674
   27SAPC  H18R 3611   4.890   4.246   8.353  1.9419  1.7927 -1.8905
   27SAPC  H18S 3612   5.045   4.205   8.295  0.6221  1.7641  0.7135
   27SAPC  C219 3613   5.017   4.202   8.513 -0.4527 -0.8530 -0.4779
   27SAPC  H19R 3614   5.100   4.132   8.536  0.4908 -0.9294 -3.6097
   27SAPC  H19S 3615   4.933   4.170   8.578 -0.6934  2.7690  1.2664
   27SAPC  C220 3616   5.048   4.354   8.543 -0.7302  0.3414 -0.0050
   27SAPC  H20R 3617   5.156   4.367   8.520  0.5444 -3.3841  2.8672
   27SAPC  H20S 3618   5.029   4.376   8.650 -0.5355  0.4149  0.0139
   27SAPC  H20T 3619   4.977   4.420   8.489 -0.9371  0.2610  0.1648
   27SAPC   C33 3620   5.040   4.338   7.202  0.3249 -0.3797 -0.4944
   27SAPC   H3X 3621   5.006   4.442   7.186  2.2137  0.4486  0.4703
   27SAPC   H3Y 3622   5.124   4.361   7.271 -2.1127  1.0393  2.2122
   27SAPC   C34 3623   4.940   4.250   7.278  0.3544  0.6031  0.2186
   27SAPC   H4X 3624   4.977   4.145   7.284 -0.7615  0.0960 -1.3095
   27SAPC   H4Y 3625   4.844   4.246   7.223 -0.4991  1.7845  1.5614
   27SAPC   C35 3626   4.889   4.308   7.414 -0.2195  0.1497  0.0783
   27SAPC   H5X 3627   4.800   4.247   7.440  0.4879 -0.7142  0.5479
   27SAPC   H5Y 3628   4.869   4.415   7.390  1.6314  0.1363 -1.8768
   27SAPC   C36 3629   5.003   4.296   7.520 -0.0235 -0.5794  0.4648
   27SAPC   H6X 3630   5.076   4.367   7.475 -0.0902 -1.5343 -1.2170
   27SAPC   H6Y 3631   5.049   4.195   7.520  3.5641  0.9023 -0.2604
   27SAPC   C37 3632   4.959   4.340   7.664 -1.1143 -0.3645 -0.2757
   27SAPC   H7X 3633   4.873   4.281   7.703 -0.0312 -1.4632  0.5474
   27SAPC   H7Y 3634   4.932   4.446   7.645 -1.3536 -0.6024 -1.2823
   27SAPC   C38 3635   5.081   4.341   7.758 -0.1939  0.0354  0.3390
   27SAPC   H8X 3636   5.046   4.417   7.832 -0.4202 -0.0067  0.2745
   27SAPC   H8Y 3637   5.175   4.371   7.707  1.0146 -0.4509  2.1644
   27SAPC   C39 3638   5.118   4.205   7.822 -0.1815 -0.9427  0.0653
   27SAPC   H9X 3639   5.113   4.141   7.731 -2.4147 -0.9871  0.1676
   27SAPC   H9Y 3640   5.029   4.196   7.887 -1.0731  0.1663 -0.9695
   27SAPC  C310 3641   5.229   4.205   7.919 -0.0647 -0.6284  0.7854
   27SAPC  H10X 3642   5.323   4.219   7.861 -0.1309 -0.6507  0.6726
   27SAPC  H10Y 3643   5.228   4.114   7.982 -0.0571 -1.5745 -0.5534
   27SAPC  C311 3644   5.218   4.324   8.018  0.5543  0.0465  1.3981
   27SAPC  H11X 3645   5.120   4.303   8.065 -1.8652  0.6241 -2.9308
   27SAPC  H11Y 3646   5.213   4.414   7.953 -0.9963 -1.0255 -0.0556
   27SAPC  C312 3647   5.326   4.334   8.122  0.0490 -0.7390 -0.1929
   27SAPC  H12X 3648   5.426   4.346   8.075 -1.0343  0.2024 -2.3823
   27SAPC  H12Y 3649   5.331   4.245   8.188  1.6008 -0.6684 -0.1731
   27SAPC  C313 3650   5.313   4.457   8.202  0.8040 -0.7783  0.4747
   27SAPC  H13X 3651   5.209   4.458   8.241  0.8649  1.7926  0.7723
   27SAPC  H13Y 3652   5.314   4.542   8.131 -2.8132 -1.4152 -0.5303
   27SAPC  C314 3653   5.424   4.478   8.305 -0.4104  0.0102  0.2231
   27SAPC  H14X 3654   5.517   4.443   8.255  0.1234  1.7517 -0.0716
   27SAPC  H14Y 3655   5.406   4.418   8.397 -2.2126  2.5092  1.6101
   27SAPC  C315 3656   5.422   4.625   8.345 -0.0026 -0.4451  0.3005
   27SAPC  H15X 3657   5.324   4.643   8.394  0.0179 -0.7064  0.4365
   27SAPC  H15Y 3658   5.440   4.692   8.258  1.2919  1.0009  1.5999
   27SAPC  C316 3659   5.536   4.653   8.457 -0.4863 -0.5341  0.1640
   27SAPC  H16X 3660   5.511   4.580   8.537 -2.9896  0.7724  0.6714
   27SAPC  H16Y 3661   5.528   4.756   8.498  1.3150 -0.0545 -0.5996
   27SAPC  C317 3662   5.680   4.637   8.408  0.2206 -0.2814  0.5237
   27SAPC  H17X 3663   5.691   4.533   8.372  0.1694 -0.7078  1.7083
   27SAPC  H17Y 3664   5.750   4.651   8.494  2.6835  1.6505 -1.5911
   27SAPC  C318 3665   5.725   4.743   8.308  0.9437 -0.2567 -0.4692
   27SAPC  H18X 3666   5.710   4.848   8.341 -1.5659  0.0933 -2.3972
   27SAPC  H18Y 3667   5.667   4.732   8.214  0.4854 -1.2677 -0.0907
   27SAPC  H18Z 3668   5.827   4.715   8.276  0.9789  0.7629 -1.2966
   28SAPC     N 3669   1.142   5.810   6.142 -0.1436  0.3938  0.4234
   28SAPC   C12 3670   1.191   5.784   6.286 -0.4658  0.0578  0.7090
   28SAPC  H12A 3671   1.113   5.727   6.335 -0.1633 -0.0016  1.1313
   28SAPC  H12B 3672   1.191   5.875   6.344 -1.9484  0.9788 -0.6596
   28SAPC   C13 3673   1.003   5.876   6.143 -0.3368 -0.2377 -0.8723
   28SAPC  H13A 3674   1.017   5.971   6.194  2.6485 -0.9912 -0.0542
   28SAPC  H13B 3675   0.979   5.898   6.040  1.3182 -1.4423 -1.5532
   28SAPC  H13C 3676   0.924   5.817   6.186 -1.0463  1.6892  0.6242
   28SAPC   C14 3677   1.244   5.882   6.067  0.2334  0.4383 -0.4192
   28SAPC  H14A 3678   1.236   5.859   5.962 -2.8727  1.6323 -0.5602
   28SAPC  H14B 3679   1.247   5.988   6.084  3.9044  0.2413  0.9552
   28SAPC  H14C 3680   1.339   5.849   6.105 -0.2203 -0.8018 -0.3080
   28SAPC   C15 3681   1.123   5.667   6.084  0.3558 -0.4969  0.0778
   28SAPC  H15A 3682   1.201   5.601   6.120 -0.6096 -1.7444 -0.0372
   28SAPC  H15B 3683   1.036   5.627   6.134  0.5230  0.3207  1.0487
   28SAPC  H15C 3684   1.113   5.676   5.977  1.7715  0.4451 -0.0068
   28SAPC   C11 3685   1.333   5.718   6.306  0.0162 -0.1688  0.2453
   28SAPC  H11A 3686   1.342   5.630   6.239  1.1833  0.1294 -0.0018
   28SAPC  H11B 3687   1.331   5.688   6.413  2.1669 -0.4537  0.2398
   28SAPC     P 3688   1.469   5.922   6.368 -0.1316 -0.0257 -0.3606
   28SAPC   O13 3689   1.614   5.948   6.371 -0.0553  0.0306 -0.1587
   28SAPC   O14 3690   1.384   6.035   6.323  0.3080 -1.1067 -0.0293
   28SAPC   O12 3691   1.444   5.801   6.274  0.4551 -0.1224  0.2072
   28SAPC   O11 3692   1.419   5.872   6.509 -0.2526 -0.2301  0.0330
   28SAPC    C1 3693   1.347   5.942   6.612  0.8325  0.3880  0.4587
   28SAPC    HA 3694   1.274   6.013   6.566  0.2854 -1.5950 -1.9624
   28SAPC    HB 3695   1.275   5.874   6.662  0.1883  1.1199  0.5417
   28SAPC    C2 3696   1.430   6.014   6.726 -0.4328  0.7861  0.1328
   28SAPC    HS 3697   1.501   6.087   6.684 -0.8900  1.2877  0.2218
   28SAPC   O21 3698   1.489   5.913   6.808 -0.1948  0.0773 -0.1921
   28SAPC   C21 3699   1.605   5.954   6.869  0.3470  0.0933 -0.4857
   28SAPC   O22 3700   1.659   6.058   6.843  0.2984  0.2349 -0.2199
   28SAPC   C22 3701   1.666   5.849   6.953  0.0016 -1.2587  0.4671
   28SAPC   H2R 3702   1.653   5.754   6.896 -1.4008 -2.5050  2.6964
   28SAPC   H2S 3703   1.775   5.869   6.958  0.0538 -0.9772 -1.3607
   28SAPC    C3 3704   1.330   6.105   6.807  0.3226  0.3845  0.7142
   28SAPC    HX 3705   1.250   6.038   6.844 -2.0131  1.6627 -1.6642
   28SAPC    HY 3706   1.282   6.184   6.746  0.7933 -0.3020 -0.5964
   28SAPC   O31 3707   1.391   6.156   6.920  0.3267  0.8589 -0.2064
   28SAPC   C31 3708   1.460   6.267   6.897 -0.2272  0.5169  0.3788
   28SAPC   O32 3709   1.471   6.315   6.785  0.3666 -0.5483  0.5860
   28SAPC   C32 3710   1.507   6.329   7.027  0.5529 -0.1943  0.0552
   28SAPC   H2X 3711   1.585   6.260   7.067 -0.7563 -1.7947 -0.0827
   28SAPC   H2Y 3712   1.419   6.325   7.095  1.7695  3.6458  2.1692
   28SAPC   C23 3713   1.605   5.824   7.089  0.5238  0.4408 -0.3401
   28SAPC   H3R 3714   1.588   5.714   7.093 -4.9913  1.0488  0.0124
   28SAPC   H3S 3715   1.500   5.857   7.101 -0.6220 -2.9735  0.0106
   28SAPC   C24 3716   1.689   5.862   7.208 -0.7723 -0.4873  1.0446
   28SAPC   H4R 3717   1.629   5.829   7.296 -0.9327 -1.4485  0.5848
   28SAPC   H4S 3718   1.787   5.810   7.218 -1.1587 -2.5619 -3.4667
   28SAPC   C25 3719   1.712   6.009   7.207 -0.1491 -0.6628  0.9439
   28SAPC   H5R 3720   1.780   6.037   7.125  0.3985  0.1342  1.6662
   28SAPC   C26 3721   1.667   6.099   7.297 -0.4778  0.0783  0.0631
   28SAPC   H6R 3722   1.713   6.198   7.286  1.1917 -0.9102 -3.1923
   28SAPC   C27 3723   1.602   6.057   7.427  0.1698  0.1991 -0.1510
   28SAPC   H7R 3724   1.525   5.984   7.396 -0.1754  0.7610 -0.6424
   28SAPC   H7S 3725   1.552   6.149   7.464 -0.2648 -0.6733  1.5454
   28SAPC   C28 3726   1.683   6.006   7.542 -0.2459 -0.7061 -0.3070
   28SAPC   H8R 3727   1.665   5.902   7.571  0.8968 -0.8387 -0.0362
   28SAPC   C29 3728   1.775   6.078   7.618  1.0923 -0.6356 -0.3290
   28SAPC   H9R 3729   1.833   6.035   7.701  1.8325 -0.8603 -0.9415
   28SAPC  C210 3730   1.809   6.226   7.599  0.1341 -0.8577  0.0099
   28SAPC  H10R 3731   1.760   6.292   7.674  0.5496  0.1592 -0.5954
   28SAPC  H10S 3732   1.772   6.273   7.505 -1.9994  0.1440  1.2705
   28SAPC  C211 3733   1.957   6.237   7.593 -1.1331  0.6319  0.1160
   28SAPC  H11R 3734   2.004   6.197   7.502  0.4840 -0.5047  1.3978
   28SAPC  C212 3735   2.041   6.300   7.684  0.0248 -0.0881  0.6604
   28SAPC  H12R 3736   2.150   6.306   7.673 -0.0815  2.7104  0.3902
   28SAPC  C213 3737   2.000   6.383   7.800 -0.4744  0.1623 -0.2504
   28SAPC  H13R 3738   1.895   6.360   7.830 -0.0186  1.2170  2.4117
   28SAPC  H13S 3739   2.002   6.490   7.772 -1.5512  0.8041  1.9039
   28SAPC  C214 3740   2.081   6.368   7.925 -0.0478  0.3589  0.1070
   28SAPC  H14R 3741   2.190   6.367   7.915 -0.0345 -0.6005  0.2296
   28SAPC  C215 3742   2.036   6.353   8.056 -0.2288  0.5781 -0.0840
   28SAPC  H15R 3743   2.110   6.327   8.133 -0.4599  0.4223  0.0854
   28SAPC  C216 3744   1.898   6.359   8.113 -0.2604  0.2673  0.4641
   28SAPC  H16R 3745   1.871   6.254   8.139  0.7277 -0.6590 -1.9306
   28SAPC  H16S 3746   1.825   6.388   8.034  0.1001 -4.0007 -1.7906
   28SAPC  C217 3747   1.887   6.450   8.231 -0.0496  0.1678  0.6068
   28SAPC  H17R 3748   1.903   6.556   8.204 -1.4069  0.3822  0.6098
   28SAPC  H17S 3749   1.954   6.418   8.314 -0.7210 -1.4209  0.5695
   28SAPC  C218 3750   1.744   6.441   8.290  0.9895 -0.4850 -0.6206
   28SAPC  H18R 3751   1.665   6.486   8.226 -0.8566 -1.2049  1.0441
   28SAPC  H18S 3752   1.736   6.507   8.380 -2.2210  0.0568 -1.1853
   28SAPC  C219 3753   1.699   6.300   8.332 -0.3206  0.2196 -0.2692
   28SAPC  H19R 3754   1.698   6.238   8.240  1.1622 -1.1750  0.5973
   28SAPC  H19S 3755   1.596   6.316   8.371 -0.4711  1.0985 -1.0081
   28SAPC  C220 3756   1.782   6.237   8.450  0.2175  0.1766 -0.1236
   28SAPC  H20R 3757   1.729   6.157   8.506  2.3731 -0.4943  1.0698
   28SAPC  H20S 3758   1.821   6.312   8.522 -0.6425 -1.2510  1.9180
   28SAPC  H20T 3759   1.878   6.192   8.417  0.1073 -0.2061  0.0660
   28SAPC   C33 3760   1.562   6.467   7.027 -0.5199 -0.8648 -0.6738
   28SAPC   H3X 3761   1.485   6.544   7.002 -0.3292 -0.2711  0.4750
   28SAPC   H3Y 3762   1.637   6.477   6.946 -1.9215  2.7668 -1.7570
   28SAPC   C34 3763   1.627   6.499   7.170 -0.7445 -0.1637  0.7071
   28SAPC   H4X 3764   1.679   6.596   7.185  0.7045 -0.7330 -0.3344
   28SAPC   H4Y 3765   1.712   6.430   7.190  0.1376  1.4260  2.7699
   28SAPC   C35 3766   1.530   6.485   7.284  1.0384  0.4658 -0.1535
   28SAPC   H5X 3767   1.491   6.382   7.297 -1.8910  1.5014 -0.0589
   28SAPC   H5Y 3768   1.444   6.548   7.253  0.2700 -0.7349 -0.5051
   28SAPC   C36 3769   1.589   6.522   7.419 -0.0772 -0.2015  0.2211
   28SAPC   H6X 3770   1.609   6.631   7.419 -2.0846  0.2113 -0.6947
   28SAPC   H6Y 3771   1.680   6.462   7.441  0.0423 -0.7646 -1.6242
   28SAPC   C37 3772   1.480   6.498   7.532 -0.5207  0.8727  0.3746
   28SAPC   H7X 3773   1.473   6.390   7.556 -1.3259  0.9135  0.3636
   28SAPC   H7Y 3774   1.375   6.533   7.520 -0.2097  2.0448  0.9158
   28SAPC   C38 3775   1.527   6.574   7.654 -0.4892 -0.2728 -0.2743
   28SAPC   H8X 3776   1.535   6.679   7.619  0.6074 -0.8179 -1.7209
   28SAPC   H8Y 3777   1.634   6.546   7.670 -0.1942  0.6990 -0.4638
   28SAPC   C39 3778   1.452   6.550   7.785 -0.1985  0.3593  0.6396
   28SAPC   H9X 3779   1.443   6.440   7.796 -0.7207  0.2098 -1.0490
   28SAPC   H9Y 3780   1.346   6.576   7.767 -0.4206 -0.0174  1.3483
   28SAPC  C310 3781   1.503   6.619   7.907 -0.4397  0.5576  0.8342
   28SAPC  H10X 3782   1.490   6.729   7.896 -0.8006  0.5874  1.4909
   28SAPC  H10Y 3783   1.613   6.610   7.917 -0.2818  1.5168  0.0798
   28SAPC  C311 3784   1.425   6.598   8.039  0.4345  0.1465  0.3023
   28SAPC  H11X 3785   1.457   6.503   8.087  1.0998 -0.1984 -0.7937
   28SAPC  H11Y 3786   1.320   6.585   8.007  0.6585 -0.9758 -0.0137
   28SAPC  C312 3787   1.447   6.711   8.141  0.3733 -0.4944  0.4987
   28SAPC  H12X 3788   1.555   6.736   8.135 -0.0376  1.1306 -2.9218
   28SAPC  H12Y 3789   1.426   6.672   8.243  0.5171  0.1876  0.7886
   28SAPC  C313 3790   1.352   6.831   8.113  0.2939 -0.6544  0.1884
   28SAPC  H13X 3791   1.351   6.861   8.006 -0.1995 -0.5959  0.2097
   28SAPC  H13Y 3792   1.385   6.920   8.171 -2.7793  1.1970 -0.6848
   28SAPC  C314 3793   1.209   6.803   8.163 -0.2400  0.7455 -0.0474
   28SAPC  H14X 3794   1.200   6.762   8.266 -1.8143 -2.0577 -1.1571
   28SAPC  H14Y 3795   1.172   6.727   8.091  3.9354 -1.5272 -0.1162
   28SAPC  C315 3796   1.124   6.928   8.151  0.1214  0.4203 -0.6901
   28SAPC  H15X 3797   1.096   6.939   8.044  0.1982  1.2621 -0.6307
   28SAPC  H15Y 3798   1.187   7.015   8.180  1.7542 -1.7883  3.1669
   28SAPC  C316 3799   0.995   6.929   8.232  0.2519  0.0624 -0.0104
   28SAPC  H16X 3800   0.956   6.825   8.231  1.0352 -0.2476  0.4888
   28SAPC  H16Y 3801   0.919   7.004   8.203  1.8649  2.0199  0.5939
   28SAPC  C317 3802   1.021   6.955   8.380 -0.1113 -0.1329 -0.0246
   28SAPC  H17X 3803   1.079   7.050   8.389 -0.1688 -0.2784  2.6158
   28SAPC  H17Y 3804   1.100   6.889   8.421 -1.8140 -1.7600  0.7325
   28SAPC  C318 3805   0.891   6.960   8.459  0.0722  0.3999  0.1618
   28SAPC  H18X 3806   0.911   6.948   8.567 -1.3792 -1.3341  0.2882
   28SAPC  H18Y 3807   0.836   6.870   8.423  0.1481  1.1644 -2.0365
   28SAPC  H18Z 3808   0.829   7.051   8.443  0.6186  0.7197 -0.1708
   29SAPC     N 3809   5.616   3.521   6.424  0.0967  0.4411 -0.0255
   29SAPC   C12 3810   5.695   3.639   6.472  0.1809  0.3800 -0.6420
   29SAPC  H12A 3811   5.782   3.610   6.530  0.3191  1.3128 -0.3666
   29SAPC  H12B 3812   5.641   3.700   6.543  0.7137  0.2070 -0.0765
   29SAPC   C13 3813   5.716   3.436   6.338 -0.8035 -0.7994 -0.8315
   29SAPC  H13A 3814   5.675   3.340   6.310 -1.0799 -1.8635  2.6621
   29SAPC  H13B 3815   5.745   3.484   6.246 -1.3727  2.0925  0.3945
   29SAPC  H13C 3816   5.798   3.403   6.401 -1.9785 -3.3975 -0.5206
   29SAPC   C14 3817   5.564   3.446   6.546  0.4344  0.1246  0.6471
   29SAPC  H14A 3818   5.518   3.357   6.506  1.7087  0.2152 -1.1437
   29SAPC  H14B 3819   5.652   3.418   6.603  1.8659  1.4354 -0.8097
   29SAPC  H14C 3820   5.495   3.511   6.597 -0.8587 -0.1495 -0.6632
   29SAPC   C15 3821   5.497   3.569   6.344 -0.1122  0.0493 -0.7572
   29SAPC  H15A 3822   5.544   3.640   6.277 -1.4970  0.6670 -1.0947
   29SAPC  H15B 3823   5.455   3.482   6.296  1.1622  0.7909 -3.3860
   29SAPC  H15C 3824   5.428   3.626   6.404 -0.5164 -0.9327 -0.2759
   29SAPC   C11 3825   5.750   3.743   6.376 -0.2736  0.1313 -0.3836
   29SAPC  H11A 3826   5.809   3.688   6.299  0.8471 -0.3681  0.7825
   29SAPC  H11B 3827   5.823   3.809   6.429  0.3500 -1.8764  1.4023
   29SAPC     P 3828   5.609   3.954   6.365  0.0816 -0.1556  0.1551
   29SAPC   O13 3829   5.724   4.045   6.354 -0.5153 -0.9028  0.2138
   29SAPC   O14 3830   5.478   3.989   6.310  0.2997 -0.2019  0.7369
   29SAPC   O12 3831   5.648   3.813   6.305  0.0398  0.2658  0.1143
   29SAPC   O11 3832   5.604   3.906   6.517  0.6669 -0.0427 -0.2301
   29SAPC    C1 3833   5.607   4.010   6.619 -0.1616 -0.4999  0.6879
   29SAPC    HA 3834   5.604   4.114   6.581 -1.8813  0.0518  2.1786
   29SAPC    HB 3835   5.514   3.991   6.677  0.2682 -0.7602  1.3134
   29SAPC    C2 3836   5.731   3.989   6.714  0.4319 -0.4811  0.1380
   29SAPC    HS 3837   5.821   3.996   6.649 -0.6761  1.8721 -1.2957
   29SAPC   O21 3838   5.710   3.855   6.762 -0.1090 -0.2288  0.1461
   29SAPC   C21 3839   5.819   3.785   6.808  0.5733  0.2493  0.5112
   29SAPC   O22 3840   5.935   3.809   6.781  0.1526 -0.4740  0.4726
   29SAPC   C22 3841   5.761   3.670   6.894  1.0285 -0.0662  0.3481
   29SAPC   H2R 3842   5.672   3.720   6.936  0.4718  0.5310 -1.4272
   29SAPC   H2S 3843   5.736   3.586   6.825  3.8878 -1.1790  0.5085
   29SAPC    C3 3844   5.734   4.094   6.831  0.4457  0.1749 -0.4439
   29SAPC    HX 3845   5.634   4.097   6.878  1.4728  1.1698  1.7824
   29SAPC    HY 3846   5.750   4.200   6.801 -1.2423  0.6194  0.1337
   29SAPC   O31 3847   5.817   4.047   6.938  0.3016 -0.6920  0.4415
   29SAPC   C31 3848   5.935   4.111   6.936 -0.4884  0.7247 -0.3874
   29SAPC   O32 3849   5.978   4.180   6.851 -0.4995  0.2313 -0.0865
   29SAPC   C32 3850   6.013   4.074   7.068 -0.1649  0.2221 -0.0845
   29SAPC   H2X 3851   6.106   4.132   7.056  0.0111  0.6625  2.7236
   29SAPC   H2Y 3852   6.033   3.965   7.066 -1.5957 -0.1060  1.2121
   29SAPC   C23 3853   5.850   3.612   7.009  0.1822  0.1406  0.9112
   29SAPC   H3R 3854   5.948   3.584   6.963 -0.9273  0.4130 -1.7691
   29SAPC   H3S 3855   5.799   3.526   7.057  3.0088 -1.8894  0.5864
   29SAPC   C24 3856   5.890   3.710   7.123  0.2311 -0.0786  0.6576
   29SAPC   H4R 3857   5.798   3.749   7.172  0.5091  0.1341  1.0184
   29SAPC   H4S 3858   5.931   3.804   7.081  1.4236  0.3271  2.5726
   29SAPC   C25 3859   5.992   3.654   7.223 -0.5170 -0.1715  0.0134
   29SAPC   H5R 3860   6.072   3.595   7.176 -1.5965 -1.0706 -0.7322
   29SAPC   C26 3861   6.010   3.650   7.355  0.5493 -0.0503  0.0340
   29SAPC   H6R 3862   6.105   3.630   7.405  1.5605  3.6535 -0.0992
   29SAPC   C27 3863   5.910   3.710   7.449 -0.2433  0.1929  0.7440
   29SAPC   H7R 3864   5.863   3.797   7.399 -0.2695 -0.3600 -0.2301
   29SAPC   H7S 3865   5.968   3.757   7.531  3.0524  1.5747 -2.0955
   29SAPC   C28 3866   5.824   3.599   7.501  0.1015  0.9005  0.4440
   29SAPC   H8R 3867   5.762   3.556   7.421  3.1597  0.9554 -2.1848
   29SAPC   C29 3868   5.805   3.550   7.624  0.5409 -0.1428 -0.1763
   29SAPC   H9R 3869   5.743   3.462   7.648 -0.2420  0.9576  2.1096
   29SAPC  C210 3870   5.895   3.586   7.743  0.3540  0.9525 -0.3296
   29SAPC  H10R 3871   5.932   3.689   7.727  1.5722  0.6810  0.5788
   29SAPC  H10S 3872   5.982   3.516   7.744  0.5248  1.1740  0.5869
   29SAPC  C211 3873   5.833   3.573   7.876 -0.1328  0.5521 -0.1386
   29SAPC  H11R 3874   5.729   3.535   7.871 -0.4059  1.3643 -1.0861
   29SAPC  C212 3875   5.894   3.614   7.988  0.5089  0.1221  0.1895
   29SAPC  H12R 3876   5.834   3.612   8.080 -1.0154  1.0488 -0.7356
   29SAPC  C213 3877   6.030   3.689   7.999 -0.3950  0.0427 -0.1576
   29SAPC  H13R 3878   5.999   3.785   8.046 -0.4130 -1.4927  3.2686
   29SAPC  H13S 3879   6.092   3.708   7.909  0.3906  1.4871  0.6530
   29SAPC  C214 3880   6.112   3.606   8.098  0.2286 -0.2023 -0.5863
   29SAPC  H14R 3881   6.174   3.527   8.054  0.0754 -0.3470 -0.5435
   29SAPC  C215 3882   6.115   3.605   8.231  0.0954  0.4476 -0.3491
   29SAPC  H15R 3883   6.188   3.539   8.280  3.8960  2.7255 -2.3949
   29SAPC  C216 3884   6.040   3.704   8.319  0.3950 -0.2582 -0.5597
   29SAPC  H16R 3885   5.954   3.642   8.352 -1.7251  2.2730 -1.0135
   29SAPC  H16S 3886   5.999   3.787   8.258  0.6631  0.6989  0.5325
   29SAPC  C217 3887   6.117   3.786   8.432 -0.4386  0.4405  0.1705
   29SAPC  H17R 3888   6.220   3.744   8.437 -0.3714  0.2498 -1.9318
   29SAPC  H17S 3889   6.076   3.754   8.530 -0.8021 -0.5323 -0.2811
   29SAPC  C218 3890   6.112   3.936   8.400 -0.5134 -0.4514 -0.0608
   29SAPC  H18R 3891   6.006   3.968   8.411 -0.3343 -0.0913  0.6378
   29SAPC  H18S 3892   6.142   3.950   8.294 -3.4866  0.3719 -0.8727
   29SAPC  C219 3893   6.197   4.037   8.484 -0.6116 -0.0456  0.6703
   29SAPC  H19R 3894   6.192   4.134   8.431  0.3921  0.3938  1.3457
   29SAPC  H19S 3895   6.305   4.013   8.475 -0.8976 -0.8879 -0.6125
   29SAPC  C220 3896   6.142   4.056   8.626 -0.3488  0.2648  0.1307
   29SAPC  H20R 3897   6.146   3.963   8.686 -1.4352  0.8850  1.1923
   29SAPC  H20S 3898   6.032   4.071   8.629 -0.1928  1.3036  1.9374
   29SAPC  H20T 3899   6.194   4.144   8.670  0.4285 -0.2504  0.2611
   29SAPC   C33 3900   5.937   4.121   7.198 -0.1753 -0.1152  0.1866
   29SAPC   H3X 3901   5.842   4.065   7.209 -0.9542  0.9166 -0.9884
   29SAPC   H3Y 3902   5.912   4.229   7.185  1.0727  0.5189  2.5220
   29SAPC   C34 3903   6.027   4.099   7.321  0.2506 -0.6619 -0.3581
   29SAPC   H4X 3904   6.130   4.135   7.300 -0.1758 -0.1864 -1.7433
   29SAPC   H4Y 3905   6.027   3.991   7.350 -0.2844 -0.2337  1.3798
   29SAPC   C35 3906   5.975   4.194   7.444  0.1480  0.2692 -0.2776
   29SAPC   H5X 3907   5.864   4.189   7.454  0.3356 -0.1980  2.3193
   29SAPC   H5Y 3908   5.986   4.294   7.399  1.5209 -0.0457 -0.6708
   29SAPC   C36 3909   6.033   4.148   7.577  0.6279 -0.4536  0.4609
   29SAPC   H6X 3910   6.143   4.159   7.566  0.6934  0.1970  1.6299
   29SAPC   H6Y 3911   6.003   4.048   7.613  0.3943 -0.0274  1.4787
   29SAPC   C37 3912   5.980   4.242   7.685 -0.7649  0.2528 -0.2803
   29SAPC   H7X 3913   5.870   4.224   7.688 -0.7048 -0.2014 -0.8313
   29SAPC   H7Y 3914   5.985   4.350   7.659 -2.5322  1.1749  2.6556
   29SAPC   C38 3915   6.036   4.223   7.820 -0.6435 -0.3486 -0.3118
   29SAPC   H8X 3916   5.989   4.135   7.869  0.6042 -0.5047  0.6486
   29SAPC   H8Y 3917   6.018   4.311   7.885 -2.3702 -0.5497 -0.4725
   29SAPC   C39 3918   6.186   4.195   7.834  0.3296 -0.0348  0.0165
   29SAPC   H9X 3919   6.229   4.243   7.743 -1.3092  2.9475  0.6711
   29SAPC   H9Y 3920   6.223   4.090   7.842  4.0278  1.0686 -0.4131
   29SAPC  C310 3921   6.253   4.264   7.948 -0.2305  0.7847 -0.0171
   29SAPC  H10X 3922   6.250   4.374   7.939  0.8487  0.7002 -2.3179
   29SAPC  H10Y 3923   6.363   4.253   7.932 -0.2241  2.9302 -1.8270
   29SAPC  C311 3924   6.212   4.213   8.084  0.1437 -0.0836  0.2956
   29SAPC  H11X 3925   6.205   4.103   8.087 -1.3749  0.0087  1.0662
   29SAPC  H11Y 3926   6.108   4.251   8.082  0.3473  0.6389  1.7728
   29SAPC  C312 3927   6.306   4.258   8.194  0.2424  0.2329 -0.2238
   29SAPC  H12X 3928   6.406   4.282   8.153 -0.0430  0.9722 -0.5039
   29SAPC  H12Y 3929   6.326   4.172   8.263 -0.4983 -0.3347 -0.6988
   29SAPC  C313 3930   6.243   4.380   8.269  0.1712  0.1105  0.1589
   29SAPC  H13X 3931   6.141   4.343   8.297  1.0255 -1.5759  1.2658
   29SAPC  H13Y 3932   6.225   4.452   8.187  0.5494  1.4828  1.2323
   29SAPC  C314 3933   6.335   4.425   8.380 -0.0684  0.8381 -0.3264
   29SAPC  H14X 3934   6.408   4.343   8.397 -1.1820 -0.4004 -1.2885
   29SAPC  H14Y 3935   6.281   4.439   8.476  2.2792 -1.5535  1.4554
   29SAPC  C315 3936   6.411   4.557   8.351  0.9430 -0.1169 -0.3643
   29SAPC  H15X 3937   6.343   4.645   8.344  2.0301  1.0878  2.6938
   29SAPC  H15Y 3938   6.477   4.552   8.262 -0.0136  3.2366 -1.4152
   29SAPC  C316 3939   6.511   4.595   8.469  0.0507 -0.3073  0.2753
   29SAPC  H16X 3940   6.444   4.615   8.555  0.3662 -0.3035  0.5247
   29SAPC  H16Y 3941   6.568   4.686   8.441  0.1502 -0.3640  0.2923
   29SAPC  C317 3942   6.611   4.490   8.514  0.6301 -0.2254  0.3322
   29SAPC  H17X 3943   6.679   4.469   8.429  0.2218 -1.4147  0.2814
   29SAPC  H17Y 3944   6.565   4.396   8.550  0.1997 -0.2244 -0.1944
   29SAPC  C318 3945   6.691   4.549   8.632 -0.3330 -0.4554  0.2147
   29SAPC  H18X 3946   6.765   4.476   8.672  0.5235 -0.8254 -1.9066
   29SAPC  H18Y 3947   6.626   4.558   8.721  1.3299  1.0640  1.3502
   29SAPC  H18Z 3948   6.741   4.643   8.602  0.2268 -0.7710  0.1347
   30SAPC     N 3949   6.186   3.956   6.107 -0.4608  0.0813  0.1878
   30SAPC   C12 3950   6.286   3.924   6.222  0.3787 -0.3843 -0.2806
   30SAPC  H12A 3951   6.386   3.919   6.181  0.5104 -0.8184  0.0764
   30SAPC  H12B 3952   6.271   3.829   6.271  1.9220  0.3578  1.7644
   30SAPC   C13 3953   6.197   3.843   6.006 -0.6544  0.5247  0.3995
   30SAPC  H13A 3954   6.127   3.880   5.932 -0.6997  0.9101  0.6341
   30SAPC  H13B 3955   6.295   3.831   5.963  0.1177 -2.5137  2.7037
   30SAPC  H13C 3956   6.159   3.750   6.045 -2.1232  1.1618  0.5614
   30SAPC   C14 3957   6.042   3.974   6.154  0.2680  0.4408  0.2011
   30SAPC  H14A 3958   6.041   4.056   6.224 -2.8641  2.0793 -1.5736
   30SAPC  H14B 3959   5.975   3.998   6.073 -0.8900 -0.6793  0.7968
   30SAPC  H14C 3960   6.005   3.881   6.196  0.9284  0.3764  0.6528
   30SAPC   C15 3961   6.226   4.085   6.043 -0.2039  0.3573 -0.2977
   30SAPC  H15A 3962   6.261   4.156   6.116  0.3918  0.1490 -0.3796
   30SAPC  H15B 3963   6.295   4.063   5.963 -2.2775 -1.0364 -1.8081
   30SAPC  H15C 3964   6.146   4.132   5.987 -2.5056 -1.8804  0.8590
   30SAPC   C11 3965   6.291   4.028   6.338  0.6179  0.0358 -0.1344
   30SAPC  H11A 3966   6.362   3.976   6.406  0.1998 -3.2931 -2.0312
   30SAPC  H11B 3967   6.193   4.039   6.391  0.9609  0.2549  0.4706
   30SAPC     P 3968   6.497   4.176   6.262 -0.2469 -0.8054  0.2043
   30SAPC   O13 3969   6.543   4.059   6.185 -0.1225 -0.0984 -0.4255
   30SAPC   O14 3970   6.517   4.313   6.197  0.1629 -0.4121  0.1915
   30SAPC   O12 3971   6.345   4.151   6.291  0.6487  0.0774 -0.3542
   30SAPC   O11 3972   6.568   4.178   6.401  0.4163 -0.5905 -0.2259
   30SAPC    C1 3973   6.510   4.265   6.498 -0.3556  0.0750 -0.0703
   30SAPC    HA 3974   6.440   4.341   6.458 -1.0032 -0.1697  0.5679
   30SAPC    HB 3975   6.452   4.206   6.573  0.0824 -0.8359 -0.4407
   30SAPC    C2 3976   6.628   4.338   6.566  0.4108 -0.1262 -0.5553
   30SAPC    HS 3977   6.679   4.391   6.483 -0.0773  0.1704 -0.6716
   30SAPC   O21 3978   6.717   4.259   6.642 -0.6683  0.1822  0.4301
   30SAPC   C21 3979   6.840   4.237   6.585 -0.3069  0.0164  0.4361
   30SAPC   O22 3980   6.877   4.274   6.478  0.1854 -0.3384 -0.2152
   30SAPC   C22 3981   6.924   4.145   6.669  0.4316  0.7219 -0.1664
   30SAPC   H2R 3982   6.908   4.174   6.775  1.8331 -0.2727  0.3467
   30SAPC   H2S 3983   6.896   4.038   6.654  0.9354  0.6061 -0.2819
   30SAPC    C3 3984   6.576   4.456   6.655  0.2664 -0.8441  0.1414
   30SAPC    HX 3985   6.534   4.524   6.578 -0.9680  0.4657  1.8949
   30SAPC    HY 3986   6.657   4.512   6.706 -2.6366  2.3089  1.7266
   30SAPC   O31 3987   6.485   4.404   6.761  0.0428  0.3095 -0.6458
   30SAPC   C31 3988   6.391   4.499   6.789  0.2556  0.5614  0.3399
   30SAPC   O32 3989   6.393   4.613   6.745  0.4700  0.0139  0.0749
   30SAPC   C32 3990   6.313   4.452   6.904 -0.3331 -0.4166 -0.1846
   30SAPC   H2X 3991   6.292   4.345   6.882 -1.2517 -0.0719 -1.0490
   30SAPC   H2Y 3992   6.216   4.505   6.916 -0.0533 -0.0526  0.5090
   30SAPC   C23 3993   7.075   4.163   6.632 -0.4287 -0.6341  0.8635
   30SAPC   H3R 3994   7.098   4.272   6.625 -0.1456 -0.8135 -2.4113
   30SAPC   H3S 3995   7.095   4.123   6.531  2.0034 -1.7874  1.7145
   30SAPC   C24 3996   7.182   4.099   6.730  0.9612 -0.3067 -0.0847
   30SAPC   H4R 3997   7.132   4.123   6.826 -0.4851 -0.2866 -0.8078
   30SAPC   H4S 3998   7.285   4.141   6.722  1.0340  0.1421  2.4936
   30SAPC   C25 3999   7.186   3.950   6.707 -0.2120 -0.6873 -0.5997
   30SAPC   H5R 4000   7.241   3.911   6.620 -0.4110  0.9618 -1.5060
   30SAPC   C26 4001   7.124   3.849   6.774  0.6868 -0.2953  0.1714
   30SAPC   H6R 4002   7.142   3.745   6.742 -0.4651 -0.3061 -0.4913
   30SAPC   C27 4003   7.027   3.869   6.893  0.0560 -0.1517 -0.4467
   30SAPC   H7R 4004   7.001   3.975   6.912  3.7865  0.3384  3.3220
   30SAPC   H7S 4005   7.084   3.835   6.983 -0.2030  1.5436  0.3858
   30SAPC   C28 4006   6.897   3.791   6.878 -0.5757  0.5503  0.1818
   30SAPC   H8R 4007   6.821   3.828   6.809 -1.3404 -2.0999 -0.5383
   30SAPC   C29 4008   6.870   3.672   6.929  0.5182 -0.0639 -0.7547
   30SAPC   H9R 4009   6.768   3.636   6.912 -0.1886  1.1807  0.6025
   30SAPC  C210 4010   6.965   3.587   7.011 -0.1147  0.0861  0.5748
   30SAPC  H10R 4011   6.959   3.622   7.117 -1.4321 -2.9606  1.6093
   30SAPC  H10S 4012   7.066   3.611   6.972 -0.6756  1.1317 -0.2778
   30SAPC  C211 4013   6.934   3.442   7.021  0.4232  0.1155  1.0064
   30SAPC  H11R 4014   6.956   3.378   6.935 -1.1563 -1.8703  1.9931
   30SAPC  C212 4015   6.881   3.382   7.128  0.0444  0.3764  0.0881
   30SAPC  H12R 4016   6.871   3.272   7.121  2.2501  0.1181  0.1634
   30SAPC  C213 4017   6.846   3.442   7.264 -0.1878 -0.5316 -0.3922
   30SAPC  H13R 4018   6.741   3.480   7.264 -0.0167  0.0020  1.2044
   30SAPC  H13S 4019   6.912   3.529   7.284 -0.1106 -0.6053 -0.3278
   30SAPC  C214 4020   6.840   3.343   7.374  0.2846 -0.7362  0.0159
   30SAPC  H14R 4021   6.875   3.242   7.348  3.1513  0.1014  0.2621
   30SAPC  C215 4022   6.806   3.365   7.498  0.7157  0.0383 -0.9343
   30SAPC  H15R 4023   6.788   3.281   7.567 -2.7200  2.4250  1.4351
   30SAPC  C216 4024   6.767   3.493   7.566  0.1833  0.3186  0.1135
   30SAPC  H16R 4025   6.703   3.552   7.497  0.3286  0.0352 -0.2714
   30SAPC  H16S 4026   6.867   3.540   7.579  0.9048 -1.1932  0.2581
   30SAPC  C217 4027   6.697   3.482   7.701  0.9270  0.0758 -0.3993
   30SAPC  H17R 4028   6.612   3.410   7.707  1.6456 -0.7073  0.7357
   30SAPC  H17S 4029   6.668   3.587   7.720 -0.0037 -0.3271  0.4683
   30SAPC  C218 4030   6.787   3.462   7.826 -0.1305  0.0192 -0.1213
   30SAPC  H18R 4031   6.862   3.543   7.813 -1.8352  1.5315 -0.8937
   30SAPC  H18S 4032   6.828   3.358   7.824 -1.7042 -0.6130 -1.2635
   30SAPC  C219 4033   6.721   3.485   7.959  0.4452  0.0510 -0.7904
   30SAPC  H19R 4034   6.642   3.409   7.979 -0.3083  1.0107 -0.0311
   30SAPC  H19S 4035   6.664   3.581   7.952  1.6342  0.8283 -0.0461
   30SAPC  C220 4036   6.819   3.491   8.079  0.1443  0.1409 -0.6207
   30SAPC  H20R 4037   6.753   3.483   8.168 -1.1585 -1.7651 -1.6866
   30SAPC  H20S 4038   6.876   3.587   8.077 -0.4728  0.5082 -1.0325
   30SAPC  H20T 4039   6.888   3.405   8.064 -1.7594 -1.7097  0.6573
   30SAPC   C33 4040   6.398   4.451   7.037  0.3584 -0.4606  0.2792
   30SAPC   H3X 4041   6.404   4.551   7.086 -1.1810 -1.8895  3.7319
   30SAPC   H3Y 4042   6.505   4.428   7.020  1.2901  1.1590  3.2308
   30SAPC   C34 4043   6.346   4.362   7.143  0.5499  0.4404  0.5151
   30SAPC   H4X 4044   6.321   4.257   7.118 -0.1658  0.4594  1.1361
   30SAPC   H4Y 4045   6.257   4.409   7.189  2.6631  3.6779  1.6753
   30SAPC   C35 4046   6.446   4.332   7.253  0.2334  0.9550 -0.5577
   30SAPC   H5X 4047   6.500   4.424   7.285 -1.1879  2.2642 -1.7517
   30SAPC   H5Y 4048   6.526   4.265   7.215 -0.7723  0.5989 -2.1628
   30SAPC   C36 4049   6.379   4.262   7.370  0.4502 -0.4936 -0.1492
   30SAPC   H6X 4050   6.368   4.161   7.326 -0.8127 -0.9006  1.0387
   30SAPC   H6Y 4051   6.279   4.306   7.387  0.2950  0.2486 -2.5597
   30SAPC   C37 4052   6.462   4.257   7.495  0.3068 -0.1409 -0.3236
   30SAPC   H7X 4053   6.568   4.232   7.471  0.1858 -0.4683 -0.5189
   30SAPC   H7Y 4054   6.425   4.170   7.553  1.9043 -0.3444  0.4530
   30SAPC   C38 4055   6.446   4.382   7.577  0.0114 -0.0224  0.0563
   30SAPC   H8X 4056   6.352   4.364   7.632  0.6011 -1.1496  0.7399
   30SAPC   H8Y 4057   6.416   4.461   7.505 -1.3895 -1.7035 -1.2824
   30SAPC   C39 4058   6.568   4.413   7.665  0.1308  0.6415  0.4332
   30SAPC   H9X 4059   6.663   4.441   7.614  3.1470  3.2257  6.5039
   30SAPC   H9Y 4060   6.597   4.319   7.717  0.3911 -0.6246 -1.8224
   30SAPC  C310 4061   6.546   4.520   7.771  0.1150  0.8699  0.2994
   30SAPC  H10X 4062   6.456   4.507   7.836  0.8229  0.0941  1.1602
   30SAPC  H10Y 4063   6.526   4.618   7.723 -0.9788  0.0036 -1.1148
   30SAPC  C311 4064   6.663   4.525   7.864 -0.2906  0.2742 -0.2919
   30SAPC  H11X 4065   6.755   4.549   7.806  1.9214 -0.8488  2.5165
   30SAPC  H11Y 4066   6.680   4.427   7.913  0.0310  0.2944 -0.3605
   30SAPC  C312 4067   6.649   4.635   7.968  0.0007 -0.3380  0.5264
   30SAPC  H12X 4068   6.558   4.618   8.029  0.2895 -1.7665  0.5826
   30SAPC  H12Y 4069   6.637   4.735   7.920  0.7210  1.0445  3.0074
   30SAPC  C313 4070   6.758   4.636   8.078 -0.2857  0.2878 -0.5571
   30SAPC  H13X 4071   6.863   4.632   8.042  0.5797 -2.7641  1.8799
   30SAPC  H13Y 4072   6.748   4.534   8.121 -0.5859 -0.8400 -3.0977
   30SAPC  C314 4073   6.743   4.741   8.186  0.6211 -0.1547 -0.4337
   30SAPC  H14X 4074   6.645   4.726   8.236  1.0731 -1.3453  0.1216
   30SAPC  H14Y 4075   6.737   4.845   8.148 -0.8003  0.3451  1.0313
   30SAPC  C315 4076   6.834   4.744   8.309 -0.1841 -0.4111 -0.0561
   30SAPC  H15X 4077   6.787   4.715   8.406  1.9394 -2.0317  0.5649
   30SAPC  H15Y 4078   6.868   4.849   8.323 -3.0735  0.4027  1.5433
   30SAPC  C316 4079   6.954   4.650   8.294  0.3626 -0.2058  0.2474
   30SAPC  H16X 4080   7.017   4.666   8.204  0.8668 -2.5601  0.1129
   30SAPC  H16Y 4081   6.918   4.546   8.286  0.0335 -0.1579  1.0071
   30SAPC  C317 4082   7.039   4.649   8.426  0.8437  0.5538 -0.5887
   30SAPC  H17X 4083   7.107   4.565   8.400 -1.2641 -1.1213 -0.9829
   30SAPC  H17Y 4084   6.978   4.600   8.505  0.7165  0.0724 -0.9807
   30SAPC  C318 4085   7.114   4.777   8.454 -0.0687  0.5653  0.0893
   30SAPC  H18X 4086   7.055   4.870   8.437  0.4154  0.9459  0.4524
   30SAPC  H18Y 4087   7.206   4.789   8.393 -0.8453 -0.5120 -1.3600
   30SAPC  H18Z 4088   7.127   4.797   8.562 -3.0092  0.9704  0.4348
   31SAPC     N 4089   2.193   4.101   6.246 -0.9209  0.3005 -0.9929
   31SAPC   C12 4090   2.167   4.142   6.395 -0.4461 -0.6246 -0.1545
   31SAPC  H12A 4091   2.251   4.103   6.451 -0.8308  1.2077  1.8345
   31SAPC  H12B 4092   2.086   4.091   6.445 -0.9885 -0.9626 -1.3416
   31SAPC   C13 4093   2.212   3.964   6.232  0.1689  0.0684  0.0555
   31SAPC  H13A 4094   2.277   3.916   6.304 -0.5685  0.0314  0.7127
   31SAPC  H13B 4095   2.110   3.930   6.244  0.0107  1.2187  2.9046
   31SAPC  H13C 4096   2.251   3.936   6.136  2.2540  2.0974  0.2110
   31SAPC   C14 4097   2.077   4.147   6.166  0.9256  0.7867 -0.6733
   31SAPC  H14A 4098   2.061   4.251   6.191  0.2052  0.6078 -0.3762
   31SAPC  H14B 4099   2.092   4.134   6.059  2.1039 -0.4129 -0.3798
   31SAPC  H14C 4100   1.993   4.089   6.200  3.2470 -0.8237  2.9334
   31SAPC   C15 4101   2.307   4.172   6.178 -0.5378  0.2669 -0.6697
   31SAPC  H15A 4102   2.298   4.137   6.076 -0.7070 -0.2625 -0.4774
   31SAPC  H15B 4103   2.314   4.279   6.184 -1.8327  0.5324 -2.7494
   31SAPC  H15C 4104   2.400   4.127   6.208 -0.2381  0.3176 -1.5038
   31SAPC   C11 4105   2.153   4.292   6.435 -0.8879  0.2995  0.5931
   31SAPC  H11A 4106   2.233   4.340   6.375  0.0391 -1.9863 -0.0630
   31SAPC  H11B 4107   2.179   4.322   6.538  1.0012 -0.9669  0.5213
   31SAPC     P 4108   1.889   4.307   6.480  0.1729  0.1026  0.4911
   31SAPC   O13 4109   1.786   4.390   6.418 -0.1601 -0.0495  0.2861
   31SAPC   O14 4110   1.859   4.163   6.503 -0.8281 -1.0242  0.3119
   31SAPC   O12 4111   2.021   4.326   6.392 -0.0265 -0.3852 -0.3592
   31SAPC   O11 4112   1.916   4.361   6.625 -0.8531 -0.7070  0.1850
   31SAPC    C1 4113   1.991   4.482   6.639 -0.0932 -0.7115  0.2275
   31SAPC    HA 4114   2.090   4.468   6.687  1.9862 -0.3397 -3.5812
   31SAPC    HB 4115   2.027   4.519   6.541  0.6391 -1.5949  0.1502
   31SAPC    C2 4116   1.919   4.591   6.726 -0.7946  0.0631 -0.6625
   31SAPC    HS 4117   1.993   4.671   6.747  1.1919 -1.6954 -0.6663
   31SAPC   O21 4118   1.876   4.541   6.849 -0.3077 -0.5237 -0.1632
   31SAPC   C21 4119   1.970   4.512   6.932  0.4266 -0.2706 -0.3307
   31SAPC   O22 4120   2.087   4.544   6.919 -0.0469 -0.7074  0.2198
   31SAPC   C22 4121   1.913   4.452   7.058  0.1877 -0.6883  0.3383
   31SAPC   H2R 4122   1.830   4.514   7.100  0.2280  0.7518 -1.5810
   31SAPC   H2S 4123   1.873   4.351   7.039  2.8563 -1.6051 -0.8523
   31SAPC    C3 4124   1.796   4.653   6.651 -0.3033 -0.3573  0.0492
   31SAPC    HX 4125   1.729   4.569   6.626  0.8807 -1.1644 -0.5084
   31SAPC    HY 4126   1.839   4.690   6.556  0.4087  0.6132  0.7306
   31SAPC   O31 4127   1.734   4.765   6.724 -0.7377  0.0072 -0.4006
   31SAPC   C31 4128   1.604   4.775   6.723  0.1972  0.2033  0.0564
   31SAPC   O32 4129   1.528   4.700   6.662  0.0414 -0.1766 -0.2261
   31SAPC   C32 4130   1.556   4.895   6.804  0.1511  0.0152 -0.1795
   31SAPC   H2X 4131   1.461   4.862   6.852  0.9979  1.0549  2.3720
   31SAPC   H2Y 4132   1.526   4.974   6.732  0.5566 -0.4494 -0.8725
   31SAPC   C23 4133   2.027   4.431   7.171 -0.0593 -0.6008  0.1205
   31SAPC   H3R 4134   2.125   4.408   7.124  0.2384 -0.2994  0.5763
   31SAPC   H3S 4135   1.999   4.343   7.233  0.5995 -0.4331  0.6776
   31SAPC   C24 4136   2.067   4.552   7.260  0.2652 -0.1172 -0.1483
   31SAPC   H4R 4137   2.116   4.620   7.187 -0.2015 -0.9980 -1.3141
   31SAPC   H4S 4138   2.139   4.506   7.331  0.7800 -1.6225 -1.5839
   31SAPC   C25 4139   1.944   4.610   7.333 -0.4837 -0.4436 -1.0820
   31SAPC   H5R 4140   1.864   4.648   7.269 -1.7273 -0.0795  0.6355
   31SAPC   C26 4141   1.938   4.643   7.465 -0.4078  1.1526  0.7745
   31SAPC   H6R 4142   1.841   4.684   7.498 -0.6573 -1.0827  3.0348
   31SAPC   C27 4143   2.046   4.625   7.563 -0.1726 -0.2349  0.2323
   31SAPC   H7R 4144   2.142   4.639   7.510 -0.2019  0.2406  0.3021
   31SAPC   H7S 4145   2.049   4.523   7.606 -0.1722  0.0683  0.9654
   31SAPC   C28 4146   2.040   4.730   7.676 -0.3250 -0.1845  0.1930
   31SAPC   H8R 4147   2.014   4.834   7.653 -0.2505  0.0550  1.1377
   31SAPC   C29 4148   2.071   4.697   7.808  0.9814 -0.5747  0.7471
   31SAPC   H9R 4149   2.059   4.773   7.887 -3.9049 -0.9390  0.6817
   31SAPC  C210 4150   2.123   4.570   7.856  0.3933  0.1674 -1.1735
   31SAPC  H10R 4151   2.212   4.590   7.920  0.0912 -0.0924 -0.6586
   31SAPC  H10S 4152   2.172   4.506   7.779  1.1465 -0.0679 -0.5146
   31SAPC  C211 4153   2.011   4.494   7.931  0.5443  0.5550 -0.3203
   31SAPC  H11R 4154   1.973   4.413   7.866  0.0321 -0.1071  0.7703
   31SAPC  C212 4155   1.971   4.496   8.059  0.3859  0.5144  0.0156
   31SAPC  H12R 4156   1.879   4.444   8.090 -0.4011  2.2197  0.6518
   31SAPC  C213 4157   2.038   4.583   8.164 -0.1634 -0.6205  0.3010
   31SAPC  H13R 4158   2.018   4.690   8.143 -0.0319 -0.9277 -1.5675
   31SAPC  H13S 4159   2.149   4.569   8.168 -0.0055  0.9111  2.5221
   31SAPC  C214 4160   1.977   4.563   8.294 -0.0149  0.4646  0.4908
   31SAPC  H14R 4161   1.875   4.604   8.300 -0.5250 -0.8054  0.8271
   31SAPC  C215 4162   2.038   4.501   8.398  0.1078 -0.2575  0.0764
   31SAPC  H15R 4163   1.977   4.491   8.489  0.8828 -1.5292  0.4810
   31SAPC  C216 4164   2.182   4.448   8.412  0.2170 -0.4602  0.6341
   31SAPC  H16R 4165   2.235   4.515   8.483 -0.1627 -0.4880  0.9481
   31SAPC  H16S 4166   2.235   4.450   8.314  1.6882  0.5148  1.4221
   31SAPC  C217 4167   2.193   4.301   8.464 -0.2055 -0.7713  0.2328
   31SAPC  H17R 4168   2.136   4.237   8.393 -0.2501  0.4330 -0.8538
   31SAPC  H17S 4169   2.145   4.301   8.564  0.1009  0.9381  0.4035
   31SAPC  C218 4170   2.339   4.254   8.475  0.0699 -1.0786 -0.7763
   31SAPC  H18R 4171   2.347   4.168   8.544 -2.0104 -1.3942 -0.8610
   31SAPC  H18S 4172   2.416   4.328   8.505  0.3006 -0.8916 -1.7856
   31SAPC  C219 4173   2.387   4.203   8.344 -0.7900 -0.8760  0.1642
   31SAPC  H19R 4174   2.416   4.285   8.275  2.3746 -1.3125  0.8105
   31SAPC  H19S 4175   2.317   4.136   8.290  1.1169 -2.4481 -0.4874
   31SAPC  C220 4176   2.514   4.116   8.364 -0.1338  0.3811 -0.7076
   31SAPC  H20R 4177   2.494   4.012   8.396 -2.3700  0.0112 -2.9516
   31SAPC  H20S 4178   2.585   4.158   8.438  1.0923 -2.2568 -0.2812
   31SAPC  H20T 4179   2.573   4.100   8.271  1.0006  1.1215 -0.1326
   31SAPC   C33 4180   1.651   4.953   6.910  0.0655  0.0126  0.2422
   31SAPC   H3X 4181   1.751   4.980   6.870  0.2984 -0.7990  0.2658
   31SAPC   H3Y 4182   1.674   4.877   6.988  0.6337  1.2564  1.3408
   31SAPC   C34 4183   1.587   5.067   6.995 -0.0896 -0.4082 -0.0578
   31SAPC   H4X 4184   1.487   5.037   7.033  0.4530  0.9132  2.7304
   31SAPC   H4Y 4185   1.573   5.159   6.935  3.1719 -0.2467 -0.7434
   31SAPC   C35 4186   1.671   5.105   7.115  0.4665  0.6286 -0.1990
   31SAPC   H5X 4187   1.634   5.205   7.144  0.4037  0.6475 -0.3467
   31SAPC   H5Y 4188   1.776   5.124   7.084  0.4689  0.7797 -0.0983
   31SAPC   C36 4189   1.671   5.008   7.239 -0.0214  0.2986 -0.0178
   31SAPC   H6X 4190   1.691   4.903   7.206 -1.5108  0.1434 -0.4666
   31SAPC   H6Y 4191   1.570   4.999   7.282  0.8571  0.9699  2.3420
   31SAPC   C37 4192   1.779   5.046   7.345 -0.6002  0.1556  0.2203
   31SAPC   H7X 4193   1.867   5.092   7.295 -0.5498 -2.1144 -1.9585
   31SAPC   H7Y 4194   1.816   4.951   7.390 -0.2127  0.3675  0.3598
   31SAPC   C38 4195   1.732   5.146   7.444  0.7499  0.0566  0.1981
   31SAPC   H8X 4196   1.626   5.118   7.464  1.2447 -1.2001  1.1361
   31SAPC   H8Y 4197   1.733   5.251   7.406  1.6883  0.0723  0.2555
   31SAPC   C39 4198   1.796   5.139   7.585  0.9053  0.0479  0.1816
   31SAPC   H9X 4199   1.761   5.047   7.636  1.1198  0.3981  0.9838
   31SAPC   H9Y 4200   1.765   5.229   7.641  1.8436 -0.0263  0.8548
   31SAPC  C310 4201   1.951   5.130   7.564 -0.0890  0.8524 -0.4850
   31SAPC  H10X 4202   1.971   5.184   7.469  0.5488  2.0928  0.3287
   31SAPC  H10Y 4203   1.981   5.023   7.560  1.0384  1.1363 -0.0328
   31SAPC  C311 4204   2.031   5.210   7.666  0.0467  0.1789 -0.4623
   31SAPC  H11X 4205   2.004   5.317   7.652  1.2815  0.5475 -0.1444
   31SAPC  H11Y 4206   2.136   5.204   7.631 -0.0408  0.0743 -0.7103
   31SAPC  C312 4207   2.010   5.158   7.809 -0.2185  0.0233  0.3538
   31SAPC  H12X 4208   1.922   5.091   7.820 -0.7718  0.6657 -0.1057
   31SAPC  H12Y 4209   1.993   5.236   7.886 -0.4193 -0.5973  0.9550
   31SAPC  C313 4210   2.130   5.076   7.851 -0.2806  0.1505  0.5421
   31SAPC  H13X 4211   2.218   5.144   7.862  0.3296 -0.5257 -0.0346
   31SAPC  H13Y 4212   2.153   4.987   7.788  1.4983 -0.4400  1.9450
   31SAPC  C314 4213   2.127   5.025   7.997 -0.2975 -0.6683 -0.1083
   31SAPC  H14X 4214   2.051   4.943   7.996  0.5933 -1.6683  3.0580
   31SAPC  H14Y 4215   2.096   5.108   8.064 -0.2119 -0.4576 -0.3307
   31SAPC  C315 4216   2.257   4.954   8.035  0.4027  0.1233 -0.5026
   31SAPC  H15X 4217   2.342   5.025   8.024 -0.3701  0.6772 -4.5241
   31SAPC  H15Y 4218   2.280   4.869   7.967  1.1245 -0.3836  0.3510
   31SAPC  C316 4219   2.252   4.912   8.184  0.5311  0.3327 -0.4135
   31SAPC  H16X 4220   2.147   4.880   8.198 -0.7250  2.5192 -3.7620
   31SAPC  H16Y 4221   2.254   5.008   8.241 -0.7850  1.1071 -1.6234
   31SAPC  C317 4222   2.362   4.814   8.215  0.3018 -0.0092 -0.7087
   31SAPC  H17X 4223   2.454   4.871   8.190 -0.3363  2.3876  1.9256
   31SAPC  H17Y 4224   2.346   4.723   8.154 -1.7140 -0.9881  1.1043
   31SAPC  C318 4225   2.377   4.770   8.354  0.7068  0.1291 -0.0578
   31SAPC  H18X 4226   2.378   4.862   8.416  0.1924  1.2290 -1.6418
   31SAPC  H18Y 4227   2.461   4.705   8.385  1.4933  1.4495  0.6766
   31SAPC  H18Z 4228   2.297   4.702   8.390 -0.1409 -0.1647 -2.3171
   32SAPC     N 4229   0.584   5.545   6.020  0.4644  0.4363 -0.6314
   32SAPC   C12 4230   0.564   5.489   6.159 -0.1272  0.5202  0.1519
   32SAPC  H12A 4231   0.656   5.444   6.193 -0.2383 -0.5379 -0.8773
   32SAPC  H12B 4232   0.492   5.409   6.157 -3.4922  3.2949 -1.3213
   32SAPC   C13 4233   0.457   5.610   5.970  0.0561 -0.0759 -0.0407
   32SAPC  H13A 4234   0.374   5.545   5.946  0.2724 -0.5803  0.5529
   32SAPC  H13B 4235   0.430   5.665   6.059 -0.6802 -1.9802  0.9772
   32SAPC  H13C 4236   0.470   5.671   5.882  0.7872 -1.1129 -0.6740
   32SAPC   C14 4237   0.688   5.650   6.012  0.2462  0.0323  0.0896
   32SAPC  H14A 4238   0.650   5.747   6.042 -0.9158 -0.4347  0.1426
   32SAPC  H14B 4239   0.778   5.616   6.062  0.2255 -1.0246 -0.5594
   32SAPC  H14C 4240   0.724   5.669   5.912 -0.2458  1.8158  0.2025
   32SAPC   C15 4241   0.617   5.441   5.919 -0.0280 -0.7930  0.0339
   32SAPC  H15A 4242   0.619   5.479   5.818  1.8999 -1.3980 -0.1925
   32SAPC  H15B 4243   0.711   5.393   5.942 -1.1656 -2.9469  0.4319
   32SAPC  H15C 4244   0.548   5.359   5.911 -0.4884 -0.5422  1.2409
   32SAPC   C11 4245   0.528   5.590   6.269 -0.7438  0.5801 -0.1813
   32SAPC  H11A 4246   0.602   5.672   6.257 -0.7513  0.6877  0.4719
   32SAPC  H11B 4247   0.553   5.547   6.368  0.5009  1.7496  0.0384
   32SAPC     P 4248   0.368   5.785   6.317 -0.0040 -0.1766 -0.0121
   32SAPC   O13 4249   0.431   5.878   6.217  0.0674 -1.0202  0.2847
   32SAPC   O14 4250   0.225   5.800   6.341 -0.2359 -0.6433  0.4043
   32SAPC   O12 4251   0.396   5.644   6.268 -0.3274  0.4621  0.2660
   32SAPC   O11 4252   0.445   5.773   6.451 -0.1156 -0.2657  0.0332
   32SAPC    C1 4253   0.426   5.850   6.570  0.0183 -0.5022 -0.5835
   32SAPC    HA 4254   0.336   5.915   6.565  1.6157  2.1776  2.0867
   32SAPC    HB 4255   0.435   5.797   6.668 -2.6345  1.1341  0.6794
   32SAPC    C2 4256   0.544   5.946   6.586 -0.6716 -0.0684 -0.3224
   32SAPC    HS 4257   0.556   5.995   6.487 -1.6267 -1.9784 -1.4402
   32SAPC   O21 4258   0.659   5.866   6.615  0.3827  0.2644 -0.7065
   32SAPC   C21 4259   0.771   5.891   6.552 -0.7670 -0.0059  0.0732
   32SAPC   O22 4260   0.790   5.966   6.461 -0.3181 -0.0580  0.1648
   32SAPC   C22 4261   0.881   5.805   6.612 -0.3897  0.0248  0.2363
   32SAPC   H2R 4262   0.837   5.734   6.685 -0.9126  0.9867  0.8734
   32SAPC   H2S 4263   0.932   5.749   6.531  2.1704  1.2484  0.8911
   32SAPC    C3 4264   0.537   6.059   6.695  0.2534  0.1083  0.0961
   32SAPC    HX 4265   0.450   6.124   6.674  0.2884 -0.0663 -0.6144
   32SAPC    HY 4266   0.631   6.116   6.677 -1.4261  3.1256  0.2835
   32SAPC   O31 4267   0.528   6.014   6.831  0.1513  0.1197  0.8671
   32SAPC   C31 4268   0.585   6.092   6.920  0.9860 -0.1697 -0.2020
   32SAPC   O32 4269   0.634   6.202   6.896 -0.0365  0.4947  0.3878
   32SAPC   C32 4270   0.595   6.026   7.056  0.2146  0.3313  0.3395
   32SAPC   H2X 4271   0.665   5.941   7.043  1.3701  1.2026  0.7292
   32SAPC   H2Y 4272   0.501   5.982   7.097 -0.4246  1.0852 -0.2873
   32SAPC   C23 4273   0.992   5.887   6.680  0.1902  0.3896  0.1913
   32SAPC   H3R 4274   1.015   5.985   6.633  0.2089 -0.1228 -0.8985
   32SAPC   H3S 4275   1.089   5.833   6.681  0.7376  0.8457 -4.6009
   32SAPC   C24 4276   0.948   5.931   6.828 -0.4396  0.4675 -0.8564
   32SAPC   H4R 4277   0.847   5.975   6.831 -1.1133 -1.0743  0.4804
   32SAPC   H4S 4278   1.025   6.001   6.868 -1.1628  0.7828  0.0133
   32SAPC   C25 4279   0.971   5.807   6.917 -0.1717 -0.2397  0.5482
   32SAPC   H5R 4280   0.948   5.718   6.857 -3.1788  1.5367 -1.1938
   32SAPC   C26 4281   1.025   5.794   7.039  0.5227  0.5209  0.3276
   32SAPC   H6R 4282   1.035   5.688   7.069 -3.2945 -0.1441 -0.2316
   32SAPC   C27 4283   1.067   5.903   7.127  0.0042  0.2286 -0.7480
   32SAPC   H7R 4284   1.032   5.880   7.230  1.9274  1.9446  0.3697
   32SAPC   H7S 4285   1.021   5.998   7.094  0.7512  0.7716 -0.2637
   32SAPC   C28 4286   1.216   5.911   7.127 -0.0049  0.6227  0.2112
   32SAPC   H8R 4287   1.272   5.869   7.042  0.6648  1.1577  0.3797
   32SAPC   C29 4288   1.287   5.955   7.236  0.2429 -0.2154  0.3404
   32SAPC   H9R 4289   1.396   5.962   7.230  0.5833 -2.8243  1.7861
   32SAPC  C210 4290   1.230   6.017   7.355  0.0636 -0.2589 -1.1906
   32SAPC  H10R 4291   1.128   6.054   7.332 -0.0805  0.1768  0.0670
   32SAPC  H10S 4292   1.292   6.104   7.387  0.8935 -1.7909  1.7367
   32SAPC  C211 4293   1.202   5.934   7.480 -0.0909 -0.4500  0.1710
   32SAPC  H11R 4294   1.143   5.842   7.468  3.7466 -3.3217  1.4005
   32SAPC  C212 4295   1.233   5.972   7.605 -0.1701  0.3417 -0.0680
   32SAPC  H12R 4296   1.220   5.900   7.686 -1.0132  1.2213  0.5947
   32SAPC  C213 4297   1.303   6.098   7.657  0.7020  0.3257  0.1449
   32SAPC  H13R 4298   1.300   6.184   7.587 -2.0425 -1.0470 -1.5804
   32SAPC  H13S 4299   1.412   6.080   7.668  1.2962  1.7020 -2.5942
   32SAPC  C214 4300   1.239   6.144   7.787  0.1855 -0.1045 -0.3940
   32SAPC  H14R 4301   1.141   6.191   7.772 -0.2007 -0.2901  1.3405
   32SAPC  C215 4302   1.288   6.148   7.915  0.7249  0.0648  0.2589
   32SAPC  H15R 4303   1.211   6.175   7.988  0.1526  0.4848 -0.4832
   32SAPC  C216 4304   1.424   6.112   7.953  0.0258  0.9220 -0.5703
   32SAPC  H16R 4305   1.437   6.168   8.049 -3.6826 -0.1876  0.7507
   32SAPC  H16S 4306   1.493   6.145   7.873 -0.7330  2.5089 -0.6045
   32SAPC  C217 4307   1.436   5.960   7.991 -0.8851 -0.2606  0.3190
   32SAPC  H17R 4308   1.384   5.908   7.908 -1.4702 -0.2571  0.6744
   32SAPC  H17S 4309   1.391   5.954   8.093 -0.4372 -1.1462  0.4667
   32SAPC  C218 4310   1.586   5.928   7.996  0.2364  0.9720  0.0646
   32SAPC  H18R 4311   1.638   5.989   8.072  2.3112 -1.3552  0.6380
   32SAPC  H18S 4312   1.632   5.936   7.895 -1.3298 -0.4541 -0.8286
   32SAPC  C219 4313   1.596   5.785   8.050 -0.3933  0.2778  1.1444
   32SAPC  H19R 4314   1.696   5.741   8.033  0.0457  1.9522 -1.0183
   32SAPC  H19S 4315   1.527   5.721   7.992  1.5974 -0.3462 -0.6580
   32SAPC  C220 4316   1.571   5.764   8.200 -0.5034 -0.6039  0.3559
   32SAPC  H20R 4317   1.596   5.658   8.225 -2.7278 -0.9968  1.1428
   32SAPC  H20S 4318   1.465   5.782   8.228  0.0893  2.7093  0.8931
   32SAPC  H20T 4319   1.632   5.834   8.261  0.0510 -0.8974  0.1455
   32SAPC   C33 4320   0.663   6.113   7.159  0.1204  0.0811 -0.3218
   32SAPC   H3X 4321   0.589   6.182   7.205  1.3049 -0.4288  2.5679
   32SAPC   H3Y 4322   0.739   6.179   7.111  1.4019 -1.2313 -0.1727
   32SAPC   C34 4323   0.728   6.032   7.270 -0.1908  0.3480  0.3265
   32SAPC   H4X 4324   0.788   5.951   7.224  0.7789  0.6262  1.0624
   32SAPC   H4Y 4325   0.648   5.996   7.338  0.5420  2.3094  2.3460
   32SAPC   C35 4326   0.827   6.125   7.352 -0.7563  0.0600 -0.1314
   32SAPC   H5X 4327   0.770   6.220   7.355  0.6015  0.8764  1.7928
   32SAPC   H5Y 4328   0.918   6.151   7.294  0.0397 -2.4443 -0.1252
   32SAPC   C36 4329   0.874   6.055   7.482 -0.0658  0.0727 -0.3612
   32SAPC   H6X 4330   0.956   6.125   7.510 -1.8878  1.5761  1.5038
   32SAPC   H6Y 4331   0.920   5.954   7.473  0.5832  0.2572  0.6348
   32SAPC   C37 4332   0.768   6.047   7.595 -0.1461 -0.0207  0.1357
   32SAPC   H7X 4333   0.700   5.963   7.568  2.2047 -2.2112  0.6344
   32SAPC   H7Y 4334   0.715   6.144   7.600  1.3172  0.8930 -0.9238
   32SAPC   C38 4335   0.831   6.027   7.733 -0.3565  0.6454  0.6190
   32SAPC   H8X 4336   0.915   6.100   7.738 -1.0159  1.9247 -3.3371
   32SAPC   H8Y 4337   0.878   5.927   7.727  1.8273  1.7105 -2.2851
   32SAPC   C39 4338   0.727   6.038   7.834 -0.3407 -0.6201 -0.3147
   32SAPC   H9X 4339   0.644   5.973   7.799 -1.1323 -0.1258  0.5719
   32SAPC   H9Y 4340   0.696   6.145   7.833  2.3602  0.2396 -1.0349
   32SAPC  C310 4341   0.769   6.003   7.977 -0.5248 -0.5591  0.1115
   32SAPC  H10X 4342   0.851   6.073   8.005 -1.6244  0.4403  0.9042
   32SAPC  H10Y 4343   0.812   5.900   7.982  2.7358  0.6555 -0.1231
   32SAPC  C311 4344   0.653   6.027   8.072  0.1466 -0.1287 -0.2634
   32SAPC  H11X 4345   0.577   5.946   8.068  0.3569 -0.3231 -0.3653
   32SAPC  H11Y 4346   0.600   6.118   8.036  1.6030  1.1068  0.6125
   32SAPC  C312 4347   0.720   6.035   8.205  1.0645 -0.0189 -0.0349
   32SAPC  H12X 4348   0.786   6.124   8.198  1.8905 -0.5818  0.4178
   32SAPC  H12Y 4349   0.778   5.942   8.224  0.5466 -0.9919 -2.6891
   32SAPC  C313 4350   0.615   6.059   8.322 -0.6248 -0.2710  0.6514
   32SAPC  H13X 4351   0.569   5.959   8.315  2.3441 -1.6391 -1.3998
   32SAPC  H13Y 4352   0.531   6.127   8.298  0.8026  1.3560  0.0236
   32SAPC  C314 4353   0.678   6.085   8.460  0.2227  0.8382 -0.3779
   32SAPC  H14X 4354   0.738   5.995   8.482  0.0187  0.3531 -1.7156
   32SAPC  H14Y 4355   0.596   6.103   8.533  0.3652 -0.2948  0.0781
   32SAPC  C315 4356   0.763   6.211   8.466  0.4151 -0.2037 -0.8347
   32SAPC  H15X 4357   0.840   6.197   8.387  1.7002  0.9285  0.1795
   32SAPC  H15Y 4358   0.821   6.202   8.561  1.6982 -0.6650 -1.6287
   32SAPC  C316 4359   0.679   6.342   8.464  0.3265 -0.8226  0.1257
   32SAPC  H16X 4360   0.612   6.323   8.378  2.6363  0.3914 -2.0715
   32SAPC  H16Y 4361   0.740   6.423   8.419 -1.3151  0.1817 -0.3608
   32SAPC  C317 4362   0.610   6.402   8.592  0.0468 -0.2107 -0.2568
   32SAPC  H17X 4363   0.520   6.340   8.613 -1.2838  1.4219 -0.9004
   32SAPC  H17Y 4364   0.568   6.500   8.558 -0.4539 -0.6957 -1.0912
   32SAPC  C318 4365   0.692   6.419   8.720  0.0964  0.3561  0.2531
   32SAPC  H18X 4366   0.758   6.508   8.712 -1.2538  1.3154 -0.5307
   32SAPC  H18Y 4367   0.746   6.328   8.753 -0.3843  0.6495  1.9133
   32SAPC  H18Z 4368   0.624   6.439   8.805 -1.7483  0.4629 -1.1778
   33POPC     N 4369   5.801   6.725  10.614 -0.4386 -0.1481 -0.1722
   33POPC   C12 4370   5.780   6.606  10.524 -0.4061 -0.8744 -0.0653
   33POPC  H12A 4371   5.680   6.610  10.484  0.9244 -1.1510 -3.7954
   33POPC  H12B 4372   5.795   6.517  10.583 -1.7046  0.1560  1.9524
   33POPC   C13 4373   5.705   6.723  10.720 -0.0477 -0.6918 -0.0722
   33POPC  H13A 4374   5.606   6.752  10.686 -0.0503 -1.8117 -1.0775
   33POPC  H13B 4375   5.692   6.628  10.771  0.6060 -0.3322  0.7759
   33POPC  H13C 4376   5.732   6.798  10.793 -1.0505 -0.8700  0.5091
   33POPC   C14 4377   5.943   6.717  10.677  0.0243 -0.2998  0.2152
   33POPC  H14A 4378   5.944   6.624  10.730 -2.5339 -0.2178  0.5562
   33POPC  H14B 4379   6.005   6.702  10.590 -0.7247 -1.8232 -0.0756
   33POPC  H14C 4380   5.958   6.782  10.761 -0.0326 -2.2799  1.8149
   33POPC   C15 4381   5.796   6.851  10.536  0.0016 -0.0601  0.1420
   33POPC  H15A 4382   5.872   6.846  10.460  0.9327  2.2958  0.8265
   33POPC  H15B 4383   5.837   6.928  10.600 -2.8259  1.0294  0.7972
   33POPC  H15C 4384   5.700   6.889  10.505 -0.2457 -0.8990 -0.1616
   33POPC   C11 4385   5.876   6.584  10.401 -0.0707 -0.6655 -0.0755
   33POPC  H11A 4386   5.883   6.678  10.342  0.2170 -1.5196 -1.4424
   33POPC  H11B 4387   5.830   6.507  10.336  2.0181 -1.3261 -0.8251
   33POPC     P 4388   6.035   6.401  10.481 -0.6111  0.1168  0.1594
   33POPC   O13 4389   5.924   6.346  10.560  0.3802  0.4745 -0.0345
   33POPC   O14 4390   6.164   6.395  10.553 -0.2196 -0.1693  1.1071
   33POPC   O12 4391   6.008   6.556  10.435 -0.3384 -0.0991  0.3021
   33POPC   O11 4392   6.038   6.322  10.344 -0.1087 -0.1085 -0.2705
   33POPC    C1 4393   6.142   6.306  10.253 -0.4673  0.3929 -0.1945
   33POPC    HA 4394   6.216   6.388  10.260 -1.3108  1.2768 -1.1161
   33POPC    HB 4395   6.196   6.218  10.294  0.4292  1.4312  0.9327
   33POPC    C2 4396   6.094   6.277  10.116 -0.1779  0.2818 -0.1777
   33POPC    HS 4397   6.038   6.182  10.110  0.8631 -0.2613 -4.5555
   33POPC   O21 4398   6.210   6.277  10.022 -0.2697  0.5410 -0.4881
   33POPC   C21 4399   6.178   6.226   9.905  0.2577 -0.3559  0.1715
   33POPC   O22 4400   6.070   6.171   9.882  0.3827 -0.4461  0.0114
   33POPC   C22 4401   6.295   6.245   9.806 -0.0213  0.3406 -0.0105
   33POPC   H2R 4402   6.342   6.146   9.788 -0.3005  0.3359 -0.7821
   33POPC   H2S 4403   6.363   6.298   9.875  0.6768 -1.8506  1.0737
   33POPC    C3 4404   6.003   6.398  10.074 -0.5399 -0.3566 -0.6578
   33POPC    HX 4405   5.912   6.391  10.137  1.0716  0.7468  1.9796
   33POPC    HY 4406   5.976   6.393   9.967 -1.8989 -2.8949 -0.2617
   33POPC   O31 4407   6.085   6.523  10.097  0.7107  0.5924  0.1533
   33POPC   C31 4408   6.027   6.643  10.091 -0.1326  0.7076 -0.8983
   33POPC   O32 4409   5.906   6.657  10.076  0.0918  0.0594 -0.0718
   33POPC   C32 4410   6.118   6.757  10.131 -0.0041  1.1858  0.0426
   33POPC   H2X 4411   6.222   6.723  10.150  0.1412  1.2261 -0.6321
   33POPC   H2Y 4412   6.078   6.805  10.223  1.8439 -0.1484  1.6224
   33POPC   C23 4413   6.249   6.308   9.681 -0.3658 -0.2105 -0.0066
   33POPC   H3R 4414   6.337   6.360   9.638  0.3700 -2.7263 -1.7707
   33POPC   H3S 4415   6.170   6.385   9.699  0.2540  1.1264 -2.5726
   33POPC   C24 4416   6.206   6.204   9.577  0.0818  1.0668 -0.6877
   33POPC   H4R 4417   6.126   6.138   9.617  0.6946  0.7926  0.1048
   33POPC   H4S 4418   6.298   6.145   9.555  1.2294  1.2069  3.1080
   33POPC   C25 4419   6.150   6.273   9.448 -0.4314  0.1427 -0.3388
   33POPC   H5R 4420   6.220   6.350   9.408  1.6002 -1.0934  0.6603
   33POPC   H5S 4421   6.059   6.330   9.474 -1.4080 -1.3072 -0.4832
   33POPC   C26 4422   6.108   6.163   9.340  0.1926  0.1106  0.0289
   33POPC   H6R 4423   6.047   6.082   9.385  0.1207  0.1462 -0.0056
   33POPC   H6S 4424   6.199   6.110   9.305 -1.5207 -2.0867 -1.3839
   33POPC   C27 4425   6.034   6.230   9.220 -0.5826  0.6264 -0.1120
   33POPC   H7R 4426   6.106   6.300   9.172  1.4850 -1.8623 -0.9049
   33POPC   H7S 4427   5.947   6.281   9.265 -0.4462  1.8291 -1.1370
   33POPC   C28 4428   5.976   6.132   9.115  0.4350  0.2425  0.1587
   33POPC   H8R 4429   5.902   6.186   9.052 -0.2405 -0.9351 -0.0819
   33POPC   H8S 4430   5.904   6.058   9.156 -1.4043  1.2788 -1.0353
   33POPC   C29 4431   6.077   6.068   9.026 -0.3903 -0.2044 -0.6624
   33POPC   H91 4432   6.161   6.135   9.001  2.2676 -1.4337  3.8667
   33POPC  C210 4433   6.065   5.950   8.968 -0.9375  0.1692  0.1869
   33POPC  H101 4434   6.156   5.922   8.913  0.5670 -1.1565  3.1232
   33POPC  C211 4435   5.947   5.858   8.981  0.5505  0.8267  0.2457
   33POPC  H11R 4436   5.854   5.908   9.017 -0.7736 -1.8680  0.8529
   33POPC  H11S 4437   5.965   5.784   9.061 -2.1577  0.8565  0.9880
   33POPC  C212 4438   5.906   5.793   8.846 -0.2902  0.9859 -0.1377
   33POPC  H12R 4439   5.965   5.701   8.832 -1.3901 -0.0653  1.7006
   33POPC  H12S 4440   5.903   5.866   8.762 -2.0408  0.3799 -0.6437
   33POPC  C213 4441   5.766   5.722   8.840  0.4279 -0.2142 -0.4179
   33POPC  H13R 4442   5.689   5.802   8.850  1.3285  0.3808  2.6694
   33POPC  H13S 4443   5.746   5.652   8.924  1.3053  0.2001  0.1465
   33POPC  C214 4444   5.741   5.628   8.721  0.1772  0.0350  0.4485
   33POPC  H14R 4445   5.631   5.623   8.710  0.3507 -2.5333 -0.7285
   33POPC  H14S 4446   5.786   5.533   8.757  0.1086  0.1568  0.8707
   33POPC  C215 4447   5.805   5.663   8.586  0.3835 -0.1180  0.6376
   33POPC  H15R 4448   5.784   5.578   8.517  1.9744  0.8086 -1.0641
   33POPC  H15S 4449   5.914   5.672   8.606  0.8021  0.8626 -1.7707
   33POPC  C216 4450   5.750   5.800   8.526 -0.5817  0.3309  0.0522
   33POPC  H16R 4451   5.780   5.886   8.590  0.1944  1.5064 -1.8089
   33POPC  H16S 4452   5.640   5.787   8.521 -0.2230 -3.6048 -1.4933
   33POPC  C217 4453   5.806   5.835   8.387 -0.2299  0.2702 -0.5733
   33POPC  H17R 4454   5.805   5.743   8.324 -1.8802  0.3222 -0.6739
   33POPC  H17S 4455   5.912   5.864   8.402 -0.0683 -0.7543  0.3381
   33POPC  C218 4456   5.737   5.954   8.314  0.3230  0.3798  0.5529
   33POPC  H18R 4457   5.630   5.925   8.304  0.3496  0.0393  1.1603
   33POPC  H18S 4458   5.773   5.979   8.212  1.4781 -0.8127  0.6424
   33POPC  H18T 4459   5.747   6.046   8.375 -0.8082  1.1692 -0.4159
   33POPC   C33 4460   6.104   6.869  10.022  0.1842  0.1039  0.7816
   33POPC   H3X 4461   6.172   6.950  10.056  1.0999  0.0891 -0.9276
   33POPC   H3Y 4462   5.999   6.907  10.020  0.1022 -0.1324  0.5744
   33POPC   C34 4463   6.155   6.845   9.878  0.0810 -0.8786  0.7367
   33POPC   H4X 4464   6.172   6.736   9.864  0.5460 -0.4705 -2.7934
   33POPC   H4Y 4465   6.257   6.887   9.866 -0.1437 -0.8818 -1.7408
   33POPC   C35 4466   6.057   6.894   9.767  0.0639  0.4064 -0.2043
   33POPC   H5X 4467   6.058   7.004   9.754 -2.1107  0.5081  0.1656
   33POPC   H5Y 4468   5.959   6.855   9.801 -0.5909  4.0295  2.6265
   33POPC   C36 4469   6.088   6.842   9.624  0.0046  0.2392  0.6394
   33POPC   H6X 4470   6.084   6.731   9.617 -0.6841  0.3586 -1.6825
   33POPC   H6Y 4471   6.194   6.864   9.599 -0.0357 -1.7853 -1.6812
   33POPC   C37 4472   5.993   6.917   9.526  0.2419 -0.3825  0.3826
   33POPC   H7X 4473   6.020   7.024   9.524  1.3961 -0.6573 -1.7505
   33POPC   H7Y 4474   5.887   6.902   9.557 -0.7223  0.3306 -2.2729
   33POPC   C38 4475   6.017   6.867   9.387  0.2245  0.4169 -0.9791
   33POPC   H8X 4476   6.018   6.756   9.386  1.0961  0.2419  3.0006
   33POPC   H8Y 4477   6.123   6.882   9.355 -0.5850 -1.3199 -5.1949
   33POPC   C39 4478   5.935   6.943   9.286 -0.8032  0.1647  0.3006
   33POPC   H9X 4479   5.933   7.054   9.298  3.3444  0.7773 -2.4519
   33POPC   H9Y 4480   5.831   6.908   9.300 -1.1914  0.3310 -1.8348
   33POPC  C310 4481   5.985   6.896   9.147  0.5159 -0.0328  0.2749
   33POPC  H10X 4482   5.980   6.786   9.134 -1.7238  0.0242  0.2381
   33POPC  H10Y 4483   6.087   6.935   9.131  0.2102  0.7275  0.1260
   33POPC  C311 4484   5.900   6.974   9.045 -0.3477  0.6187 -0.2414
   33POPC  H11X 4485   5.930   7.081   9.051  0.6737  0.2713  1.5142
   33POPC  H11Y 4486   5.793   6.951   9.068 -0.0797 -3.8741 -2.4147
   33POPC  C312 4487   5.929   6.933   8.901  0.1837  1.5996  0.3404
   33POPC  H12X 4488   5.936   6.823   8.903 -0.0748  1.5699  2.3500
   33POPC  H12Y 4489   6.027   6.976   8.872  0.9056  0.3363  0.8377
   33POPC  C313 4490   5.815   6.975   8.800 -0.7396  0.3442  1.2042
   33POPC  H13X 4491   5.796   7.085   8.804  1.8340  0.9464 -0.8237
   33POPC  H13Y 4492   5.720   6.919   8.814 -0.5038 -0.4373 -0.1776
   33POPC  C314 4493   5.855   6.941   8.649  0.5167 -0.6074 -0.0430
   33POPC  H14X 4494   5.951   6.989   8.618  1.5352 -0.8486  2.5083
   33POPC  H14Y 4495   5.784   6.990   8.578  1.5314  0.6065 -0.2659
   33POPC  C315 4496   5.858   6.791   8.622 -0.4425 -0.2959  0.0357
   33POPC  H15X 4497   5.756   6.760   8.653 -1.3447 -0.3168 -2.7295
   33POPC  H15Y 4498   5.932   6.745   8.691  2.0099  0.8138 -1.6955
   33POPC  C316 4499   5.888   6.757   8.470 -1.2326  0.7752 -0.4842
   33POPC  H16X 4500   5.984   6.797   8.431  0.7609 -2.2794  0.9046
   33POPC  H16Y 4501   5.814   6.807   8.404  1.1288  3.2356 -1.4445
   33POPC  H16Z 4502   5.895   6.649   8.446  2.8805 -0.5244  4.6254
   34POPC     N 4503   5.109   6.412  10.720 -0.3258  0.3697 -0.3975
   34POPC   C12 4504   5.215   6.304  10.719 -0.0031  0.7835 -0.5809
   34POPC  H12A 4505   5.311   6.346  10.746  0.0615 -0.7688  1.9278
   34POPC  H12B 4506   5.247   6.293  10.616 -0.0330 -0.0362 -0.5148
   34POPC   C13 4507   5.085   6.460  10.862  0.0687  0.8985 -0.0157
   34POPC  H13A 4508   5.062   6.374  10.924 -0.3776  0.6910 -0.4620
   34POPC  H13B 4509   5.178   6.499  10.900  0.3764  0.2090 -0.0535
   34POPC  H13C 4510   5.008   6.535  10.874 -1.4355 -0.7519  1.3963
   34POPC   C14 4511   5.145   6.533  10.642 -0.3635 -0.2084  0.2983
   34POPC  H14A 4512   5.218   6.599  10.686 -2.3241  0.3332  3.0030
   34POPC  H14B 4513   5.190   6.493  10.552  0.8322 -2.2161  1.7245
   34POPC  H14C 4514   5.054   6.580  10.607 -0.5131 -1.3476 -0.9331
   34POPC   C15 4515   4.984   6.360  10.652 -0.8851 -0.0808  0.1226
   34POPC  H15A 4516   4.893   6.411  10.679 -1.8164 -2.9947  3.0569
   34POPC  H15B 4517   4.958   6.264  10.694 -0.3719 -0.3140 -0.0825
   34POPC  H15C 4518   4.995   6.349  10.545  0.4796 -2.3688  0.4426
   34POPC   C11 4519   5.206   6.157  10.782  0.5628 -0.3079 -0.3577
   34POPC  H11A 4520   5.176   6.168  10.888 -1.7854  0.2769 -1.0185
   34POPC  H11B 4521   5.303   6.105  10.765  0.8146  0.9386 -3.6092
   34POPC     P 4522   5.104   6.029  10.568 -0.1521  0.2273  0.2179
   34POPC   O13 4523   5.241   6.046  10.517 -0.5450  0.0010  0.2926
   34POPC   O14 4524   4.982   6.078  10.499 -1.3022  0.0109  0.4929
   34POPC   O12 4525   5.102   6.085  10.717 -0.3628  0.3049 -0.1783
   34POPC   O11 4526   5.079   5.882  10.608 -0.2789 -0.3280  0.0319
   34POPC    C1 4527   5.143   5.771  10.535  0.2246  0.5335  0.0690
   34POPC    HA 4528   5.154   5.702  10.621 -0.8680  0.2595  0.0079
   34POPC    HB 4529   5.244   5.786  10.491 -0.3043  0.7888 -1.0983
   34POPC    C2 4530   5.049   5.689  10.438 -0.1661 -0.4976 -0.8551
   34POPC    HS 4531   5.100   5.594  10.412  0.1755 -0.4884 -0.2459
   34POPC   O21 4532   5.023   5.773  10.325  0.2742 -0.0373 -0.3326
   34POPC   C21 4533   5.115   5.808  10.235  0.5629 -0.0991  0.1977
   34POPC   O22 4534   5.228   5.766  10.226  0.4738  0.6596  0.2350
   34POPC   C22 4535   5.045   5.902  10.131 -0.6598  0.3608  0.2676
   34POPC   H2R 4536   5.085   6.004  10.148 -0.7925  0.1723  1.9339
   34POPC   H2S 4537   4.937   5.894  10.153 -1.3384  0.2009 -2.6699
   34POPC    C3 4538   4.910   5.655  10.496  0.3338  0.0852 -0.1621
   34POPC    HX 4539   4.864   5.749  10.535 -0.0383 -0.6028  1.1299
   34POPC    HY 4540   4.927   5.590  10.585  0.5179 -0.0996 -0.3307
   34POPC   O31 4541   4.843   5.581  10.392  0.3891  0.1283  0.2612
   34POPC   C31 4542   4.725   5.639  10.341 -0.0846 -0.3485 -0.0559
   34POPC   O32 4543   4.679   5.744  10.386 -0.1825  0.3345 -0.1121
   34POPC   C32 4544   4.676   5.571  10.212  0.1576  0.4627  0.0475
   34POPC   H2X 4545   4.566   5.561  10.216  0.3541 -2.3593  0.4809
   34POPC   H2Y 4546   4.720   5.469  10.206  1.4132  0.8799  1.4198
   34POPC   C23 4547   5.070   5.862   9.983  0.2681  0.4612  0.2410
   34POPC   H3R 4548   5.057   5.752   9.976 -0.0146  0.4928  0.2344
   34POPC   H3S 4549   5.175   5.891   9.962  0.9165 -0.2081  2.3556
   34POPC   C24 4550   4.957   5.926   9.896 -1.2689 -0.2237 -0.2468
   34POPC   H4R 4551   4.977   6.035   9.908  0.7210 -0.6061  0.3504
   34POPC   H4S 4552   4.858   5.883   9.921  1.2954 -7.1569  0.0189
   34POPC   C25 4553   4.977   5.874   9.754  0.4615 -0.4672 -1.3568
   34POPC   H5R 4554   4.964   5.764   9.751 -1.7421 -0.2799 -0.7383
   34POPC   H5S 4555   5.079   5.905   9.722  1.2217  0.6083  1.7285
   34POPC   C26 4556   4.881   5.935   9.656 -0.0969  0.0969 -0.9942
   34POPC   H6R 4557   4.882   6.047   9.654  0.0809  0.1863  1.2149
   34POPC   H6S 4558   4.782   5.909   9.697  0.1934 -1.3743 -1.1935
   34POPC   C27 4559   4.896   5.879   9.516 -0.2020 -0.9863  0.5713
   34POPC   H7R 4560   4.798   5.879   9.464  0.6167  0.0263 -1.0386
   34POPC   H7S 4561   4.912   5.769   9.512 -0.4256 -0.9864 -0.6315
   34POPC   C28 4562   5.000   5.952   9.430  0.0747  0.4664 -0.2464
   34POPC   H8R 4563   5.097   5.937   9.484 -0.1649 -0.3155 -0.0226
   34POPC   H8S 4564   4.982   6.062   9.427  0.4079  0.5199 -0.3504
   34POPC   C29 4565   5.016   5.905   9.289  0.7655  0.1866  0.0979
   34POPC   H91 4566   5.026   5.796   9.278 -0.9683 -0.1073  1.0859
   34POPC  C210 4567   5.006   5.980   9.178 -0.3499  0.3582  0.2195
   34POPC  H101 4568   5.042   5.946   9.081  0.4890  1.8265 -0.0227
   34POPC  C211 4569   4.973   6.126   9.175  0.4093 -0.1567  0.8041
   34POPC  H11R 4570   4.925   6.158   9.270  1.9173  2.5090  0.7449
   34POPC  H11S 4571   4.881   6.124   9.113  1.5204 -0.6149 -0.9112
   34POPC  C212 4572   5.077   6.221   9.129  0.0859 -0.1843  0.2146
   34POPC  H12R 4573   5.092   6.216   9.019  0.0725  1.7561  0.0849
   34POPC  H12S 4574   5.177   6.206   9.175  1.2576  1.8970 -1.4475
   34POPC  C213 4575   5.042   6.365   9.160  0.3102  0.5013 -0.1638
   34POPC  H13R 4576   5.018   6.359   9.268 -0.4378 -0.2101 -0.3645
   34POPC  H13S 4577   4.947   6.396   9.113 -0.7549  0.8935  2.1125
   34POPC  C214 4578   5.164   6.452   9.141 -0.5298  0.3742 -0.1784
   34POPC  H14R 4579   5.221   6.429   9.048 -0.8046 -1.2807  0.0391
   34POPC  H14S 4580   5.230   6.433   9.229 -0.9523 -0.1072  0.0385
   34POPC  C215 4581   5.119   6.600   9.129 -0.0312 -0.8577 -0.1235
   34POPC  H15R 4582   5.203   6.673   9.133  1.3716 -2.4182  0.0074
   34POPC  H15S 4583   5.064   6.629   9.221  2.7514  0.2711  1.3124
   34POPC  C216 4584   5.041   6.627   9.004 -0.2289 -0.3780  0.4134
   34POPC  H16R 4585   4.974   6.542   8.984  0.0917 -0.3501 -0.9132
   34POPC  H16S 4586   5.114   6.634   8.920  0.4581  1.6885  1.1007
   34POPC  C217 4587   4.957   6.756   9.017  0.4077 -0.3541 -0.7355
   34POPC  H17R 4588   4.889   6.745   9.104  1.1943  0.2168 -0.0311
   34POPC  H17S 4589   4.907   6.774   8.919  0.0881  1.8191 -0.2188
   34POPC  C218 4590   5.039   6.882   9.061  0.4928 -0.2658 -0.5758
   34POPC  H18R 4591   5.122   6.898   8.989  1.2591 -0.3285  0.2667
   34POPC  H18S 4592   5.085   6.871   9.162  0.8840 -2.1840 -0.9208
   34POPC  H18T 4593   4.981   6.976   9.065  0.7728 -0.0379 -1.5746
   34POPC   C33 4594   4.710   5.658  10.087 -0.2076  0.4390 -0.0367
   34POPC   H3X 4595   4.819   5.678  10.079  0.1576 -1.2222  0.4285
   34POPC   H3Y 4596   4.669   5.761  10.085 -1.4561 -0.0108 -2.9700
   34POPC   C34 4597   4.658   5.595   9.956  0.8163 -0.3436  0.0098
   34POPC   H4X 4598   4.547   5.593   9.961  0.8094 -2.5814  0.2430
   34POPC   H4Y 4599   4.696   5.491   9.953 -0.6637 -0.9344  0.4280
   34POPC   C35 4600   4.711   5.652   9.828 -0.0961 -0.7094 -0.4998
   34POPC   H5X 4601   4.808   5.688   9.870 -0.1568  0.1330 -1.0551
   34POPC   H5Y 4602   4.659   5.741   9.788  1.2030  0.0992 -0.4497
   34POPC   C36 4603   4.744   5.547   9.722 -0.1814  0.5032 -0.0856
   34POPC   H6X 4604   4.817   5.476   9.767 -0.6786  1.6344  2.7475
   34POPC   H6Y 4605   4.794   5.603   9.640  1.0563  0.0058  0.3036
   34POPC   C37 4606   4.630   5.466   9.671 -0.3799  0.0272 -0.7351
   34POPC   H7X 4607   4.560   5.539   9.624  0.6557 -0.8454 -3.8418
   34POPC   H7Y 4608   4.581   5.397   9.743  0.4667  0.2660  0.0888
   34POPC   C38 4609   4.678   5.379   9.550 -0.9403 -0.0522  0.5134
   34POPC   H8X 4610   4.780   5.338   9.566  0.2274  1.8686 -1.4772
   34POPC   H8Y 4611   4.711   5.446   9.468 -0.0601 -0.9907  0.0610
   34POPC   C39 4612   4.592   5.256   9.526  0.3097 -0.1698  0.0532
   34POPC   H9X 4613   4.485   5.284   9.537  1.2399  3.0267  2.6343
   34POPC   H9Y 4614   4.606   5.178   9.605 -1.2476 -0.8517 -0.3038
   34POPC  C310 4615   4.620   5.173   9.402 -0.2898 -0.2969 -0.0503
   34POPC  H10X 4616   4.561   5.079   9.397  1.3917 -1.4068  0.4139
   34POPC  H10Y 4617   4.724   5.138   9.384 -0.8653 -1.2897 -1.6388
   34POPC  C311 4618   4.592   5.263   9.281  0.5118 -0.3818  0.6026
   34POPC  H11X 4619   4.680   5.329   9.264  0.2499 -0.3171 -0.5996
   34POPC  H11Y 4620   4.500   5.324   9.291  0.7707  0.2340 -0.6097
   34POPC  C312 4621   4.574   5.186   9.149  0.7033 -0.0135  0.2464
   34POPC  H12X 4622   4.472   5.142   9.140  0.5124  0.6273 -0.9214
   34POPC  H12Y 4623   4.658   5.113   9.151  1.8636  1.2650 -0.1984
   34POPC  C313 4624   4.589   5.276   9.018 -0.1758 -0.5498  0.3505
   34POPC  H13X 4625   4.692   5.318   9.018 -0.3284 -0.1667  1.1304
   34POPC  H13Y 4626   4.534   5.372   9.026  1.6528  0.4853  1.0850
   34POPC  C314 4627   4.542   5.204   8.897  0.7711  0.7032  0.0925
   34POPC  H14X 4628   4.432   5.198   8.890  0.8437 -1.0213  0.0785
   34POPC  H14Y 4629   4.577   5.099   8.892 -0.6807  0.1977  0.2284
   34POPC  C315 4630   4.600   5.263   8.766 -0.0390  0.8401 -0.3929
   34POPC  H15X 4631   4.707   5.234   8.775 -0.6981 -1.2821  1.8652
   34POPC  H15Y 4632   4.596   5.374   8.770  1.5906  0.8832  1.5726
   34POPC  C316 4633   4.541   5.210   8.640 -0.0184  0.3934 -0.2030
   34POPC  H16X 4634   4.433   5.231   8.626  0.1323  0.2922 -1.7440
   34POPC  H16Y 4635   4.545   5.099   8.648 -0.7756  0.2758 -1.2365
   34POPC  H16Z 4636   4.600   5.236   8.549 -1.0497 -0.0807 -1.0191
   35POPC     N 4637   2.034   2.741  10.988 -0.2914 -0.6227 -0.7023
   35POPC   C12 4638   2.169   2.815  10.989 -0.0604  0.4598 -0.1419
   35POPC  H12A 4639   2.188   2.839  10.885 -3.2633 -0.2871 -1.0078
   35POPC  H12B 4640   2.243   2.742  11.017  0.1069  0.2502 -1.0885
   35POPC   C13 4641   2.011   2.666  11.111 -0.4525 -0.4754 -0.4540
   35POPC  H13A 4642   2.094   2.599  11.131  0.6015  1.0851  0.6302
   35POPC  H13B 4643   1.987   2.728  11.196 -2.9125  0.0071 -1.4198
   35POPC  H13C 4644   1.930   2.595  11.099 -1.0130  0.1933 -0.6744
   35POPC   C14 4645   1.912   2.828  10.961  0.0833  0.1158 -0.1342
   35POPC  H14A 4646   1.832   2.755  10.949  0.8606 -0.6856 -0.5620
   35POPC  H14B 4647   1.898   2.898  11.042 -1.5072  1.0935 -1.2052
   35POPC  H14C 4648   1.914   2.883  10.868  0.7862  2.8133  1.3814
   35POPC   C15 4649   2.031   2.644  10.873  0.1554 -0.1079  0.6706
   35POPC  H15A 4650   2.118   2.580  10.879  0.9245  0.8001 -0.3325
   35POPC  H15B 4651   2.040   2.693  10.777  0.0512  0.7182  1.0755
   35POPC  H15C 4652   1.955   2.567  10.880  1.1597 -1.5540 -2.4306
   35POPC   C11 4653   2.187   2.936  11.080 -0.1747  0.0233  0.0186
   35POPC  H11A 4654   2.291   2.967  11.055 -1.3365  2.3370 -2.4251
   35POPC  H11B 4655   2.177   2.894  11.182 -1.2959 -1.7795 -0.7793
   35POPC     P 4656   2.119   3.150  10.948 -0.3009 -0.1228  0.2331
   35POPC   O13 4657   2.114   3.284  11.008 -0.1178  0.0601  0.4548
   35POPC   O14 4658   2.013   3.130  10.848 -0.0350 -0.3438  0.0869
   35POPC   O12 4659   2.097   3.043  11.058 -0.0451  0.7106 -0.1761
   35POPC   O11 4660   2.258   3.110  10.882  0.2822  0.2161 -0.3416
   35POPC    C1 4661   2.338   3.223  10.831  0.2136  0.5493  0.1624
   35POPC    HA 4662   2.377   3.283  10.916  1.5508  0.1481 -0.1499
   35POPC    HB 4663   2.283   3.295  10.767  0.6540  1.8069  1.1532
   35POPC    C2 4664   2.468   3.174  10.762  0.9974 -0.6139 -0.2716
   35POPC    HS 4665   2.537   3.261  10.750 -1.2486  1.2625 -0.2343
   35POPC   O21 4666   2.442   3.124  10.635 -0.4698 -0.4322  0.2696
   35POPC   C21 4667   2.448   3.210  10.535 -0.2186  0.7720 -0.2838
   35POPC   O22 4668   2.461   3.329  10.548  0.2833 -0.3804  0.5679
   35POPC   C22 4669   2.437   3.130  10.406 -0.5711  0.4999 -0.0718
   35POPC   H2R 4670   2.447   3.021  10.426  0.5551  0.7544  0.8651
   35POPC   H2S 4671   2.525   3.156  10.343  0.5808  0.5808  1.5055
   35POPC    C3 4672   2.548   3.071  10.852  0.6302  0.0073 -0.0803
   35POPC    HX 4673   2.468   3.016  10.907 -1.7466  0.4934 -2.8140
   35POPC    HY 4674   2.607   3.125  10.929  0.0732  0.2543  0.1773
   35POPC   O31 4675   2.629   2.979  10.778 -0.0608 -0.3710  0.2574
   35POPC   C31 4676   2.745   3.028  10.737  0.2639 -0.0932  1.0309
   35POPC   O32 4677   2.780   3.144  10.742  0.1683 -0.1740 -0.1118
   35POPC   C32 4678   2.841   2.922  10.672  0.0622  0.9206 -0.4397
   35POPC   H2X 4679   2.847   2.838  10.744 -0.3390 -0.1321 -1.6041
   35POPC   H2Y 4680   2.945   2.960  10.662  0.1474  0.9145  0.3341
   35POPC   C23 4681   2.301   3.147  10.322  0.1004  0.0472 -0.6358
   35POPC   H3R 4682   2.216   3.133  10.392  0.2062  1.8226 -0.1059
   35POPC   H3S 4683   2.280   3.067  10.247 -2.9224  0.4123 -0.2980
   35POPC   C24 4684   2.293   3.277  10.249 -0.4586  0.4273  0.5905
   35POPC   H4R 4685   2.277   3.367  10.313 -1.7744  1.0920 -0.6342
   35POPC   H4S 4686   2.199   3.265  10.192 -0.9381  2.9305  0.7449
   35POPC   C25 4687   2.408   3.322  10.151 -0.4309  0.0480 -0.1076
   35POPC   H5R 4688   2.474   3.383  10.217  0.6049 -0.3985 -0.7084
   35POPC   H5S 4689   2.353   3.399  10.093 -1.2150 -0.6644 -0.3396
   35POPC   C26 4690   2.478   3.218  10.062  0.4371  0.4708 -0.5235
   35POPC   H6R 4691   2.542   3.152  10.123  0.8005  1.4402  0.1805
   35POPC   H6S 4692   2.553   3.272  10.000 -1.6070  2.6547 -1.2802
   35POPC   C27 4693   2.380   3.149   9.971 -0.1179  0.3159 -0.3087
   35POPC   H7R 4694   2.292   3.110  10.028 -0.3429  2.1648  0.7166
   35POPC   H7S 4695   2.434   3.070   9.915  1.3046  2.6288 -2.3823
   35POPC   C28 4696   2.301   3.239   9.873 -0.6190 -0.1944 -0.0190
   35POPC   H8R 4697   2.245   3.322   9.921 -2.4929 -0.7156 -1.2091
   35POPC   H8S 4698   2.232   3.172   9.819 -0.9423  0.2888 -0.2128
   35POPC   C29 4699   2.396   3.317   9.775  0.4602  0.0043  0.3350
   35POPC   H91 4700   2.475   3.378   9.820 -0.5019  1.5177  0.0476
   35POPC  C210 4701   2.381   3.315   9.646  0.0609  0.3758  0.8036
   35POPC  H101 4702   2.446   3.367   9.575  0.9531 -2.0273 -0.2567
   35POPC  C211 4703   2.272   3.243   9.571 -0.0005 -0.6098  0.6536
   35POPC  H11R 4704   2.180   3.222   9.630 -0.5625 -0.0170 -0.0090
   35POPC  H11S 4705   2.311   3.142   9.545 -0.5945 -0.4737 -0.8343
   35POPC  C212 4706   2.226   3.303   9.440 -0.5272  0.4576  0.1913
   35POPC  H12R 4707   2.172   3.221   9.387 -2.4724  1.2956  0.7940
   35POPC  H12S 4708   2.324   3.319   9.390 -0.5020  0.8729  0.3721
   35POPC  C213 4709   2.164   3.440   9.443 -0.1171  0.4886 -0.3393
   35POPC  H13R 4710   2.238   3.500   9.500  0.5660 -2.5099  2.2214
   35POPC  H13S 4711   2.067   3.446   9.497 -0.3222  0.9206 -0.7513
   35POPC  C214 4712   2.142   3.499   9.303 -0.3153 -0.0063  0.0769
   35POPC  H14R 4713   2.102   3.602   9.310 -1.4345 -0.2035 -2.5456
   35POPC  H14S 4714   2.063   3.441   9.252 -1.4636 -1.5824  3.3230
   35POPC  C215 4715   2.267   3.506   9.216  0.2160 -0.1062 -0.6726
   35POPC  H15R 4716   2.294   3.403   9.184 -0.2095  0.1078 -1.7478
   35POPC  H15S 4717   2.351   3.544   9.278 -1.5909  0.1655  1.7672
   35POPC  C216 4718   2.245   3.597   9.097 -0.4426 -0.1758 -0.6153
   35POPC  H16R 4719   2.326   3.579   9.022 -0.6494 -3.1321 -0.2643
   35POPC  H16S 4720   2.259   3.701   9.131 -3.0063  0.0784 -0.1613
   35POPC  C217 4721   2.110   3.570   9.041  0.5538 -0.5572 -0.1924
   35POPC  H17R 4722   2.027   3.592   9.111 -0.0373  0.2676 -1.1245
   35POPC  H17S 4723   2.095   3.461   9.025 -0.0034 -0.3346 -1.2628
   35POPC  C218 4724   2.084   3.640   8.904  0.2034 -0.9848 -0.4031
   35POPC  H18R 4725   2.079   3.750   8.918 -1.1824 -0.9080 -1.2969
   35POPC  H18S 4726   1.984   3.628   8.855 -0.4970 -1.1381  0.9994
   35POPC  H18T 4727   2.149   3.604   8.821  0.4442 -0.5934 -0.3833
   35POPC   C33 4728   2.786   2.856  10.547 -0.2826  0.2252  0.3030
   35POPC   H3X 4729   2.675   2.846  10.552 -0.5226  2.2341 -0.2953
   35POPC   H3Y 4730   2.834   2.756  10.546 -0.4401  0.1533 -0.2461
   35POPC   C34 4731   2.837   2.935  10.421 -0.0476  0.7851  0.4772
   35POPC   H4X 4732   2.947   2.943  10.423  0.1996 -1.1031 -1.8119
   35POPC   H4Y 4733   2.787   3.035  10.413 -0.2532  0.5655 -1.4087
   35POPC   C35 4734   2.810   2.855  10.293 -0.1205  1.0348 -0.0935
   35POPC   H5X 4735   2.708   2.813  10.284 -0.9494  2.2277  2.6349
   35POPC   H5Y 4736   2.866   2.761  10.314 -2.9855 -1.0206 -1.1276
   35POPC   C36 4737   2.856   2.923  10.160  0.1040  0.8136 -0.3585
   35POPC   H6X 4738   2.966   2.936  10.164  0.4698 -0.1850 -4.1257
   35POPC   H6Y 4739   2.799   3.018  10.145 -1.7651 -0.1733  0.1212
   35POPC   C37 4740   2.845   2.836  10.035  0.2437  0.1987  0.7877
   35POPC   H7X 4741   2.740   2.807  10.014  0.7069 -0.7734 -0.3228
   35POPC   H7Y 4742   2.889   2.736  10.054 -0.9168 -0.9340 -1.8823
   35POPC   C38 4743   2.917   2.898   9.916 -0.2069 -0.7424 -0.1256
   35POPC   H8X 4744   3.020   2.934   9.940  0.5297 -2.8096 -0.0039
   35POPC   H8Y 4745   2.859   2.990   9.894  0.1421 -0.4728  0.0708
   35POPC   C39 4746   2.906   2.793   9.800 -0.6543 -0.3321 -0.0158
   35POPC   H9X 4747   2.804   2.749   9.794  0.1990 -2.2312 -1.4290
   35POPC   H9Y 4748   2.967   2.707   9.835  0.3841 -0.0390 -1.0541
   35POPC  C310 4749   2.959   2.833   9.663  0.3148 -0.7449 -0.5147
   35POPC  H10X 4750   3.049   2.775   9.633  0.9145 -0.0916  0.0051
   35POPC  H10Y 4751   2.996   2.937   9.656  1.3412 -1.1534 -1.4132
   35POPC  C311 4752   2.850   2.807   9.553  0.2545 -0.4497 -0.1889
   35POPC  H11X 4753   2.765   2.875   9.575  2.1131  2.4683 -1.4330
   35POPC  H11Y 4754   2.818   2.700   9.552  0.9412 -0.6604 -1.4473
   35POPC  C312 4755   2.898   2.835   9.410 -0.2082  0.3255 -0.2798
   35POPC  H12X 4756   2.980   2.765   9.384  0.0106  0.7150 -0.6431
   35POPC  H12Y 4757   2.936   2.938   9.425 -0.6243  0.7249 -1.8372
   35POPC  C313 4758   2.796   2.823   9.301  0.0492 -0.4758  0.0933
   35POPC  H13X 4759   2.707   2.883   9.329 -0.9365 -1.8108 -0.0583
   35POPC  H13Y 4760   2.758   2.719   9.289 -1.0167 -0.0104 -0.7914
   35POPC  C314 4761   2.848   2.881   9.164 -0.0395  0.1262  0.3427
   35POPC  H14X 4762   2.937   2.822   9.135  1.3120  1.1146  2.2838
   35POPC  H14Y 4763   2.892   2.981   9.186  0.3920  0.4315 -1.7093
   35POPC  C315 4764   2.744   2.880   9.050  0.1618 -0.7170 -0.0410
   35POPC  H15X 4765   2.796   2.926   8.964  3.1666 -0.8297  1.6040
   35POPC  H15Y 4766   2.664   2.951   9.081  2.5534  2.0179  0.2232
   35POPC  C316 4767   2.689   2.743   9.023 -0.1999  0.5717  0.4415
   35POPC  H16X 4768   2.759   2.658   9.039 -0.6687  0.1879  0.5022
   35POPC  H16Y 4769   2.659   2.733   8.916 -1.8208  2.5072  0.6594
   35POPC  H16Z 4770   2.613   2.711   9.098 -0.4235 -1.2101 -0.4753
   36POPC     N 4771   4.411   2.039  10.906 -0.2778 -0.2512  0.1032
   36POPC   C12 4772   4.303   2.017  10.792  0.5775 -1.1887  0.5762
   36POPC  H12A 4773   4.280   1.911  10.785  1.8466 -1.3886 -1.3195
   36POPC  H12B 4774   4.345   2.031  10.694 -0.3271  0.6242  0.4189
   36POPC   C13 4775   4.445   2.184  10.930 -0.2017  0.5730  1.2640
   36POPC  H13A 4776   4.355   2.233  10.964 -1.2802  0.0795 -0.7077
   36POPC  H13B 4777   4.525   2.201  11.001 -1.4053  0.4587  2.6991
   36POPC  H13C 4778   4.463   2.232  10.835  0.0661  2.0017  2.0128
   36POPC   C14 4779   4.360   1.996  11.040  0.0435 -0.5415  0.0680
   36POPC  H14A 4780   4.259   2.030  11.057  0.0316 -0.7591  0.4284
   36POPC  H14B 4781   4.346   1.889  11.048  0.3413 -0.6634 -0.8868
   36POPC  H14C 4782   4.430   2.028  11.116  1.0597 -2.3492 -0.0627
   36POPC   C15 4783   4.530   1.971  10.852 -0.3584  0.0979 -0.5303
   36POPC  H15A 4784   4.524   1.864  10.838  2.1026 -0.2378  0.4411
   36POPC  H15B 4785   4.609   1.982  10.925 -0.2272  0.9866 -0.7992
   36POPC  H15C 4786   4.551   2.014  10.756 -1.0078  1.9532  0.1243
   36POPC   C11 4787   4.174   2.105  10.798  0.2193 -0.4119 -0.2313
   36POPC  H11A 4788   4.121   2.070  10.707  1.2825 -2.5736 -0.0861
   36POPC  H11B 4789   4.211   2.210  10.793  0.4508 -0.2243  3.1768
   36POPC     P 4790   4.021   2.191  10.994 -0.4478 -0.0234 -0.3136
   36POPC   O13 4791   4.125   2.278  11.040 -0.2589 -0.1594 -0.1160
   36POPC   O14 4792   3.930   2.133  11.100  0.4436 -0.1341  0.2211
   36POPC   O12 4793   4.094   2.080  10.915  0.1596  0.0434  0.3527
   36POPC   O11 4794   3.935   2.265  10.895  0.6436  0.4235 -0.5361
   36POPC    C1 4795   3.845   2.189  10.812  0.6806  0.4946  0.5428
   36POPC    HA 4796   3.744   2.206  10.857  0.4000  0.3114 -0.0128
   36POPC    HB 4797   3.877   2.084  10.798 -0.5255  0.4110 -2.3861
   36POPC    C2 4798   3.835   2.247  10.667  0.1688 -0.3275 -0.8389
   36POPC    HS 4799   3.938   2.226  10.630 -0.1938 -0.9423 -1.5149
   36POPC   O21 4800   3.809   2.388  10.676 -0.9156 -0.2901  0.4577
   36POPC   C21 4801   3.910   2.469  10.649  1.2896 -0.4175  0.2455
   36POPC   O22 4802   4.022   2.436  10.623 -0.2487  0.0785  0.5070
   36POPC   C22 4803   3.862   2.615  10.673 -0.4274  0.1888 -0.3622
   36POPC   H2R 4804   3.957   2.670  10.690 -0.4332  0.3816 -0.9185
   36POPC   H2S 4805   3.798   2.615  10.764 -1.0544 -0.3339 -0.7951
   36POPC    C3 4806   3.737   2.178  10.573  0.5638 -0.4475 -1.0482
   36POPC    HX 4807   3.634   2.164  10.612  0.6925 -0.6423 -0.7779
   36POPC    HY 4808   3.788   2.080  10.566  1.4249 -0.2334  1.2115
   36POPC   O31 4809   3.734   2.236  10.436  0.1274 -0.4809  0.3341
   36POPC   C31 4810   3.620   2.313  10.416 -0.4633 -0.3651 -0.1271
   36POPC   O32 4811   3.540   2.341  10.505 -0.5074 -0.1363  0.0094
   36POPC   C32 4812   3.610   2.372  10.273 -0.4724 -0.5615  0.6928
   36POPC   H2X 4813   3.653   2.475  10.270 -0.6132 -0.4667  1.5701
   36POPC   H2Y 4814   3.500   2.374  10.262 -0.2771  1.0427 -2.1428
   36POPC   C23 4815   3.785   2.666  10.550  0.1086  0.7482 -0.5578
   36POPC   H3R 4816   3.737   2.762  10.579 -1.0437  0.1815 -0.5341
   36POPC   H3S 4817   3.706   2.604  10.503 -0.6636  2.1853 -1.2045
   36POPC   C24 4818   3.883   2.708  10.433  0.6368 -0.4275  0.0446
   36POPC   H4R 4819   3.906   2.622  10.367 -0.8420  1.0316 -2.5750
   36POPC   H4S 4820   3.972   2.750  10.483 -1.5668  2.7733  1.6697
   36POPC   C25 4821   3.825   2.817  10.340  0.4725  0.1121 -0.7794
   36POPC   H5R 4822   3.789   2.901  10.404  1.8946  0.2739 -0.1498
   36POPC   H5S 4823   3.734   2.783  10.286 -0.4749  2.4962 -0.8369
   36POPC   C26 4824   3.924   2.863  10.233  0.2186 -0.1521  0.0916
   36POPC   H6R 4825   4.013   2.902  10.287  0.3903 -1.0613  0.4796
   36POPC   H6S 4826   3.879   2.958  10.196  0.5113  0.2095  0.6359
   36POPC   C27 4827   3.957   2.757  10.131  0.3176 -1.0113 -0.1210
   36POPC   H7R 4828   3.997   2.667  10.183  0.0367 -0.3371  1.3056
   36POPC   H7S 4829   4.035   2.798  10.063 -0.0386 -0.6030 -0.2896
   36POPC   C28 4830   3.826   2.716  10.053 -0.2033 -0.0402  0.1335
   36POPC   H8R 4831   3.752   2.685  10.131  0.6665  1.3522  1.5758
   36POPC   H8S 4832   3.866   2.627  10.001  1.0228  0.5124  0.0981
   36POPC   C29 4833   3.773   2.823   9.965  0.0476 -0.4659  0.0081
   36POPC   H91 4834   3.765   2.920  10.015  1.3694 -0.8831  1.0833
   36POPC  C210 4835   3.760   2.810   9.832  0.2211  0.5788 -0.0561
   36POPC  H101 4836   3.711   2.891   9.777 -1.7393  0.5775  1.5413
   36POPC  C211 4837   3.786   2.689   9.740 -0.0489 -0.3356  0.5276
   36POPC  H11R 4838   3.698   2.658   9.681  0.5963  2.5496 -2.2358
   36POPC  H11S 4839   3.820   2.594   9.787 -0.9535 -2.2767 -2.5149
   36POPC  C212 4840   3.885   2.730   9.634 -1.1193  0.0396  0.0181
   36POPC  H12R 4841   3.987   2.728   9.677 -0.5528  0.8198 -1.2345
   36POPC  H12S 4842   3.869   2.834   9.597 -0.6879 -0.7057 -2.4643
   36POPC  C213 4843   3.882   2.647   9.503 -0.3866 -0.1892  0.5562
   36POPC  H13R 4844   3.795   2.669   9.438  0.3556  1.8620  0.1965
   36POPC  H13S 4845   3.872   2.541   9.534  0.6136 -0.0202  1.5037
   36POPC  C214 4846   4.008   2.656   9.423  1.3850 -0.2516  0.8366
   36POPC  H14R 4847   4.102   2.658   9.483  0.9236 -0.8175  1.5969
   36POPC  H14S 4848   4.000   2.751   9.366  0.9383 -0.8728 -0.1622
   36POPC  C215 4849   4.013   2.548   9.310  0.0603 -0.0449 -0.5562
   36POPC  H15R 4850   3.915   2.537   9.258 -0.4428 -1.5958  0.6154
   36POPC  H15S 4851   4.039   2.449   9.353 -1.5408 -1.4128 -2.5275
   36POPC  C216 4852   4.110   2.591   9.205 -0.0593 -0.1437 -0.7206
   36POPC  H16R 4853   4.203   2.623   9.257 -0.2470  0.8982 -0.9984
   36POPC  H16S 4854   4.063   2.674   9.147  1.9587 -0.2224 -2.5952
   36POPC  C217 4855   4.153   2.499   9.095 -0.2145  0.4207  0.0965
   36POPC  H17R 4856   4.061   2.458   9.047  0.5850 -0.3686 -0.8242
   36POPC  H17S 4857   4.210   2.413   9.136 -0.1700  0.8732  1.0021
   36POPC  C218 4858   4.244   2.568   8.997  0.3051 -0.6922  0.9549
   36POPC  H18R 4859   4.200   2.658   8.949 -1.9031 -1.4011  1.5412
   36POPC  H18S 4860   4.272   2.509   8.908  1.0943  1.1607 -0.0908
   36POPC  H18T 4861   4.337   2.597   9.050  0.6957  0.7013 -0.4375
   36POPC   C33 4862   3.667   2.294  10.154 -0.3078 -0.3700  0.1178
   36POPC   H3X 4863   3.662   2.186  10.179 -0.1561 -0.2327  0.7677
   36POPC   H3Y 4864   3.773   2.330  10.151 -0.9895  1.7456 -0.0482
   36POPC   C34 4865   3.598   2.319  10.024 -0.5802 -0.1451  0.8854
   36POPC   H4X 4866   3.596   2.428  10.003 -0.6227 -0.1369  0.9313
   36POPC   H4Y 4867   3.491   2.287  10.023 -0.8538  0.6798 -1.4186
   36POPC   C35 4868   3.673   2.239   9.907 -0.3685 -0.2633 -1.0325
   36POPC   H5X 4869   3.679   2.134   9.941 -1.3786  0.6990  2.5556
   36POPC   H5Y 4870   3.779   2.272   9.912  0.1861 -1.9366 -1.2230
   36POPC   C36 4871   3.606   2.278   9.776  0.4604  0.4842  0.7816
   36POPC   H6X 4872   3.614   2.389   9.774 -1.2917  0.6403  1.0237
   36POPC   H6Y 4873   3.497   2.256   9.769  0.5096  0.4306  0.0974
   36POPC   C37 4874   3.681   2.220   9.653  0.2615 -1.0863  0.1028
   36POPC   H7X 4875   3.654   2.113   9.640  2.1055 -1.4587 -1.0814
   36POPC   H7Y 4876   3.786   2.211   9.689 -0.1130  0.4540  1.7052
   36POPC   C38 4877   3.664   2.308   9.528 -0.2004 -0.9889  0.1772
   36POPC   H8X 4878   3.703   2.410   9.550  0.7964 -1.1444 -0.7881
   36POPC   H8Y 4879   3.559   2.324   9.494  0.6795  1.2112 -1.8381
   36POPC   C39 4880   3.729   2.253   9.408 -0.6993  0.1493  0.6527
   36POPC   H9X 4881   3.707   2.144   9.409 -0.7953  0.1004 -1.7053
   36POPC   H9Y 4882   3.840   2.257   9.405 -0.5806 -1.9930 -1.9205
   36POPC  C310 4883   3.686   2.324   9.272 -0.5045  0.4615 -0.3502
   36POPC  H10X 4884   3.734   2.423   9.261  0.6604 -0.2090 -1.4889
   36POPC  H10Y 4885   3.575   2.332   9.278 -0.3736  1.3269  3.7941
   36POPC  C311 4886   3.712   2.234   9.150  0.1583 -0.2322 -0.2690
   36POPC  H11X 4887   3.676   2.131   9.170 -1.8470  0.6038  0.6547
   36POPC  H11Y 4888   3.822   2.232   9.134  0.2628 -1.1516  0.4739
   36POPC  C312 4889   3.648   2.293   9.027  0.2642 -0.1400  0.0973
   36POPC  H12X 4890   3.626   2.402   9.034 -1.9355 -0.5430  0.1130
   36POPC  H12Y 4891   3.546   2.249   9.023 -0.5242  1.1000  3.3282
   36POPC  C313 4892   3.712   2.259   8.889  0.1848  0.0146  0.6524
   36POPC  H13X 4893   3.635   2.267   8.809  0.1186 -4.6469 -0.0393
   36POPC  H13Y 4894   3.735   2.150   8.893  1.1440  0.1331 -0.9263
   36POPC  C314 4895   3.843   2.326   8.849 -0.1783 -0.3504 -0.8360
   36POPC  H14X 4896   3.900   2.348   8.942  0.1641 -1.1338 -0.8518
   36POPC  H14Y 4897   3.809   2.425   8.810 -2.4206 -0.4781  0.5778
   36POPC  C315 4898   3.926   2.261   8.743 -0.6556 -0.3301  0.2351
   36POPC  H15X 4899   3.870   2.254   8.648  0.9453  3.4191 -1.1850
   36POPC  H15Y 4900   3.948   2.156   8.774  0.8002  0.0982  0.7559
   36POPC  C316 4901   4.051   2.341   8.714  0.0004  0.4711  0.2602
   36POPC  H16X 4902   4.116   2.288   8.641  1.2604  2.2610 -0.0056
   36POPC  H16Y 4903   4.107   2.352   8.809 -1.7528 -1.9299  1.6770
   36POPC  H16Z 4904   4.011   2.442   8.689  0.8669  0.6668 -0.3855
   37POPC     N 4905   2.525   6.088   6.563 -0.2552 -0.0600  0.0626
   37POPC   C12 4906   2.455   6.061   6.694  0.9746  0.2322 -0.2123
   37POPC  H12A 4907   2.486   5.966   6.735  1.5702 -0.0863 -1.3657
   37POPC  H12B 4908   2.351   6.041   6.672  1.1080 -1.5773  0.5919
   37POPC   C13 4909   2.669   6.100   6.600 -1.0012 -0.7258 -0.6800
   37POPC  H13A 4910   2.733   6.122   6.516 -0.1162  3.1233  0.7918
   37POPC  H13B 4911   2.676   6.172   6.680  0.2617 -1.7467  0.1850
   37POPC  H13C 4912   2.700   6.002   6.635 -0.7087 -0.3335  0.1717
   37POPC   C14 4913   2.499   5.969   6.473  0.0997 -0.3518 -0.0280
   37POPC  H14A 4914   2.538   5.876   6.513 -0.0965 -0.7092 -0.6438
   37POPC  H14B 4915   2.394   5.952   6.453 -0.1114  0.3090  0.4943
   37POPC  H14C 4916   2.546   5.992   6.378  0.2841  0.0900  0.1720
   37POPC   C15 4917   2.488   6.220   6.503  0.3001 -0.3344 -0.0283
   37POPC  H15A 4918   2.527   6.256   6.409 -1.2579 -0.3130 -0.7006
   37POPC  H15B 4919   2.510   6.297   6.575 -1.7643 -0.4103  0.7652
   37POPC  H15C 4920   2.382   6.216   6.481  0.1616  0.3055  0.4861
   37POPC   C11 4921   2.475   6.155   6.817  0.1410 -0.0709 -0.1777
   37POPC  H11A 4922   2.399   6.146   6.897 -0.2935  1.3412 -0.3942
   37POPC  H11B 4923   2.466   6.258   6.777 -2.5108 -1.1491 -2.6896
   37POPC     P 4924   2.665   6.031   6.951 -0.4270  0.0766  0.1374
   37POPC   O13 4925   2.810   6.051   6.975 -0.5882  0.1313 -0.1388
   37POPC   O14 4926   2.631   5.904   6.877  0.0503  0.4526  0.7658
   37POPC   O12 4927   2.611   6.153   6.864 -0.0206  0.1113  0.3972
   37POPC   O11 4928   2.587   6.030   7.082  0.2878  0.8601 -0.7174
   37POPC    C1 4929   2.593   6.134   7.178 -0.2853  0.0803  0.2483
   37POPC    HA 4930   2.499   6.134   7.237 -0.7612 -1.3681 -0.4541
   37POPC    HB 4931   2.614   6.233   7.132  1.8287 -0.5903 -0.3514
   37POPC    C2 4932   2.706   6.109   7.287 -0.4227 -0.4100 -0.0468
   37POPC    HS 4933   2.802   6.083   7.239  0.0163  1.8300 -0.4860
   37POPC   O21 4934   2.661   6.011   7.382 -0.1262 -0.3666  0.0885
   37POPC   C21 4935   2.720   5.889   7.381 -0.4328  0.3923  0.5910
   37POPC   O22 4936   2.812   5.853   7.312  0.2842  0.4890  0.3395
   37POPC   C22 4937   2.659   5.797   7.484 -0.0166  0.8623 -0.2164
   37POPC   H2R 4938   2.557   5.779   7.442  0.4784  0.9523 -1.5087
   37POPC   H2S 4939   2.641   5.855   7.577 -0.7163 -0.4913  0.5262
   37POPC    C3 4940   2.738   6.240   7.370  0.0436 -0.0636  0.3395
   37POPC    HX 4941   2.821   6.214   7.440  0.3730  1.9563  0.7654
   37POPC    HY 4942   2.643   6.253   7.427 -0.6087 -3.5429  0.2545
   37POPC   O31 4943   2.767   6.360   7.291 -0.0446 -0.3097 -0.7620
   37POPC   C31 4944   2.891   6.371   7.246  0.4632 -0.1127 -0.2435
   37POPC   O32 4945   2.978   6.292   7.269 -0.2229  0.1391 -0.0113
   37POPC   C32 4946   2.890   6.506   7.176 -0.4847 -0.2942 -0.4290
   37POPC   H2X 4947   2.830   6.575   7.239  0.8165 -2.0655  3.0100
   37POPC   H2Y 4948   2.842   6.493   7.077  0.5742  1.3070 -1.1950
   37POPC   C23 4949   2.735   5.668   7.527  0.3298  0.2855 -0.5693
   37POPC   H3R 4950   2.758   5.607   7.437 -1.2943 -0.9393 -0.2142
   37POPC   H3S 4951   2.660   5.610   7.585 -0.4707  0.4420 -1.4260
   37POPC   C24 4952   2.856   5.697   7.614 -0.3132  0.1369 -1.1062
   37POPC   H4R 4953   2.917   5.784   7.580  1.9391 -0.5198  0.9517
   37POPC   H4S 4954   2.911   5.601   7.625 -0.1845  0.4101  1.1048
   37POPC   C25 4955   2.802   5.725   7.757 -0.3388  0.6795  0.1051
   37POPC   H5R 4956   2.743   5.635   7.783  2.3466 -0.3801  3.1750
   37POPC   H5S 4957   2.739   5.816   7.749  1.8878  2.3384  0.3923
   37POPC   C26 4958   2.915   5.754   7.856 -0.8403 -0.5960 -0.4254
   37POPC   H6R 4959   2.954   5.850   7.816 -0.1419 -1.6454 -2.3499
   37POPC   H6S 4960   2.994   5.676   7.847 -1.6009 -1.3883 -0.3193
   37POPC   C27 4961   2.869   5.780   8.004  0.0345 -0.0348  0.4331
   37POPC   H7R 4962   2.828   5.683   8.040 -2.2000 -0.4621 -2.8637
   37POPC   H7S 4963   2.786   5.854   7.997  0.9037  0.9453  0.3767
   37POPC   C28 4964   2.988   5.809   8.093  0.2445 -0.3668  0.3616
   37POPC   H8R 4965   3.040   5.890   8.037 -0.1990 -0.9733 -0.9632
   37POPC   H8S 4966   3.054   5.720   8.096  1.3180  0.2637 -2.1622
   37POPC   C29 4967   2.951   5.859   8.232  0.5465 -0.0548  0.1188
   37POPC   H91 4968   2.949   5.781   8.310 -2.6516 -0.4089 -0.1682
   37POPC  C210 4969   2.920   5.985   8.271  0.1367  0.2257  0.4525
   37POPC  H101 4970   2.928   6.014   8.376  1.8653 -1.2122  0.7668
   37POPC  C211 4971   2.902   6.111   8.188 -0.4923  0.5874  0.2859
   37POPC  H11R 4972   2.947   6.106   8.087 -1.5647 -0.3463 -0.1836
   37POPC  H11S 4973   2.950   6.194   8.243  0.5786  0.8768 -1.0574
   37POPC  C212 4974   2.753   6.140   8.158 -0.1951  0.4604 -0.2893
   37POPC  H12R 4975   2.701   6.051   8.114  1.7542 -1.6254  1.3976
   37POPC  H12S 4976   2.763   6.221   8.083 -0.5103 -0.2275 -1.0940
   37POPC  C213 4977   2.670   6.179   8.281 -1.0291 -0.3960 -0.0132
   37POPC  H13R 4978   2.727   6.262   8.328 -1.4458  0.4841 -1.0256
   37POPC  H13S 4979   2.665   6.093   8.351  1.3004  0.1968  0.9935
   37POPC  C214 4980   2.526   6.216   8.249 -0.3919 -0.0730  0.1267
   37POPC  H14R 4981   2.460   6.127   8.257 -1.1108  0.1989 -2.0325
   37POPC  H14S 4982   2.523   6.251   8.143  1.1718 -0.1898  0.0178
   37POPC  C215 4983   2.478   6.331   8.338 -0.4781 -0.3893 -1.3047
   37POPC  H15R 4984   2.557   6.409   8.333 -1.1218  0.3376 -0.4917
   37POPC  H15S 4985   2.471   6.291   8.441 -0.0543  4.6266  0.9940
   37POPC  C216 4986   2.342   6.387   8.294 -0.0621  0.0126 -0.5318
   37POPC  H16R 4987   2.282   6.294   8.306 -0.8456  0.2729 -2.2830
   37POPC  H16S 4988   2.330   6.409   8.186  0.7661 -2.6059 -1.2286
   37POPC  C217 4989   2.277   6.501   8.384  0.1366  0.3261  0.2214
   37POPC  H17R 4990   2.248   6.453   8.480 -5.5711  1.1252 -0.7566
   37POPC  H17S 4991   2.181   6.527   8.336 -0.1126 -2.3953 -0.9532
   37POPC  C218 4992   2.364   6.627   8.407  0.4669  0.6488 -0.5098
   37POPC  H18R 4993   2.461   6.592   8.448 -1.8877 -2.3135  3.1939
   37POPC  H18S 4994   2.319   6.689   8.487 -0.0088 -2.5962  1.9713
   37POPC  H18T 4995   2.361   6.686   8.313  0.7809  2.1813  0.4073
   37POPC   C33 4996   3.028   6.567   7.147  0.1039 -0.2266 -0.4697
   37POPC   H3X 4997   3.027   6.645   7.067 -0.6552 -0.2447 -0.4820
   37POPC   H3Y 4998   3.090   6.484   7.107 -2.6886 -1.9135 -1.5213
   37POPC   C34 4999   3.098   6.628   7.274  0.2846 -0.1427  0.4091
   37POPC   H4X 5000   3.181   6.696   7.246  1.5141 -0.7370  2.3906
   37POPC   H4Y 5001   3.144   6.543   7.329 -1.8975 -0.7748  1.3863
   37POPC   C35 5002   3.001   6.702   7.375 -0.0798  0.3146 -0.8325
   37POPC   H5X 5003   2.933   6.636   7.432 -0.1858  2.1229  1.2388
   37POPC   H5Y 5004   2.946   6.772   7.309  0.4964 -0.2013 -1.8818
   37POPC   C36 5005   3.079   6.764   7.487 -0.1685 -0.0333  0.7109
   37POPC   H6X 5006   3.141   6.849   7.450  0.7305 -0.3403  1.4781
   37POPC   H6Y 5007   3.150   6.686   7.522  1.0005  0.3399 -0.6883
   37POPC   C37 5008   2.985   6.797   7.599  0.2503 -0.2933 -0.0966
   37POPC   H7X 5009   2.936   6.704   7.633 -0.6909 -0.1715 -1.0902
   37POPC   H7Y 5010   2.904   6.861   7.558 -0.9993 -1.3922  0.5823
   37POPC   C38 5011   3.050   6.867   7.724  0.0719  1.4956  0.2827
   37POPC   H8X 5012   3.116   6.948   7.684  0.1612  0.9078 -0.8252
   37POPC   H8Y 5013   3.124   6.797   7.768  0.9378  0.3834 -2.6396
   37POPC   C39 5014   2.951   6.910   7.831 -0.5506 -1.2568 -0.1748
   37POPC   H9X 5015   2.882   6.826   7.852 -1.3072 -0.2087  1.8041
   37POPC   H9Y 5016   2.898   7.002   7.799  0.1098  0.7915  3.9478
   37POPC  C310 5017   3.030   6.959   7.956  0.5170  0.4123  0.2271
   37POPC  H10X 5018   3.108   7.036   7.936 -0.1214  0.7756 -1.0031
   37POPC  H10Y 5019   3.079   6.875   8.008 -1.0888 -0.5549  0.2364
   37POPC  C311 5020   2.944   7.027   8.064 -0.0899  0.3203 -0.4281
   37POPC  H11X 5021   2.867   6.962   8.110 -0.0317 -0.9196 -2.0028
   37POPC  H11Y 5022   2.890   7.117   8.028 -1.1584  1.4088  3.4284
   37POPC  C312 5023   3.023   7.048   8.197  0.1628 -0.4859  0.2503
   37POPC  H12X 5024   3.113   7.111   8.181 -0.8358  0.8355 -0.3430
   37POPC  H12Y 5025   3.053   6.944   8.224  1.0927 -1.0369 -2.4967
   37POPC  C313 5026   2.942   7.089   8.318 -0.0192 -0.1310  1.0986
   37POPC  H13X 5027   2.852   7.023   8.321 -1.1920  1.1481 -2.0179
   37POPC  H13Y 5028   2.922   7.197   8.302 -3.2866 -1.0302 -2.2190
   37POPC  C314 5029   3.017   7.072   8.452  0.0635 -0.6998 -0.5047
   37POPC  H14X 5030   3.113   7.127   8.444 -0.2197  0.4478  2.5829
   37POPC  H14Y 5031   3.052   6.968   8.469  2.6560  0.0493 -0.8813
   37POPC  C315 5032   2.930   7.133   8.562  0.2694 -0.0152 -0.4092
   37POPC  H15X 5033   2.891   7.233   8.534 -1.0422  0.0873  1.6079
   37POPC  H15Y 5034   2.993   7.153   8.651  0.1761 -2.9389  0.4117
   37POPC  C316 5035   2.816   7.038   8.602 -0.2668 -0.0076  0.3412
   37POPC  H16X 5036   2.764   7.077   8.693 -2.5782  0.2355 -0.9828
   37POPC  H16Y 5037   2.846   6.934   8.627  0.5295 -0.2317 -1.4191
   37POPC  H16Z 5038   2.732   7.028   8.529 -1.7297 -2.9796  2.2506
   38POPC     N 5039   4.888   3.961   6.176 -0.1188  0.3900 -0.4068
   38POPC   C12 5040   4.854   3.830   6.246  0.3424 -0.2166  0.3050
   38POPC  H12A 5041   4.911   3.752   6.197  1.8960  0.0767  1.5676
   38POPC  H12B 5042   4.750   3.823   6.218 -0.1812 -0.3025  2.1385
   38POPC   C13 5043   4.816   4.066   6.249  1.3832 -0.6465 -0.1568
   38POPC  H13A 5044   4.815   4.154   6.186  0.7912  0.6858  1.6550
   38POPC  H13B 5045   4.712   4.041   6.264  1.2842 -0.0244  0.2202
   38POPC  H13C 5046   4.845   4.095   6.349  0.3646 -2.0961  0.5903
   38POPC   C14 5047   5.034   3.992   6.185 -0.1568 -0.5402  0.7656
   38POPC  H14A 5048   5.069   3.974   6.286 -0.4293 -3.3088  0.4452
   38POPC  H14B 5049   5.082   3.925   6.116 -2.3916 -1.2104 -0.2221
   38POPC  H14C 5050   5.052   4.095   6.158  2.9308 -0.9227  1.0105
   38POPC   C15 5051   4.846   3.956   6.036 -0.1636  0.0373 -0.1267
   38POPC  H15A 5052   4.738   3.962   6.031 -0.3268 -0.6392  1.9818
   38POPC  H15B 5053   4.885   3.869   5.986 -0.1544  0.1132 -0.2537
   38POPC  H15C 5054   4.877   4.047   5.985 -0.4931  0.5871  0.6371
   38POPC   C11 5055   4.869   3.822   6.398 -0.0882  0.1729  0.3328
   38POPC  H11A 5056   4.821   3.725   6.424 -0.5229  0.3797  0.3026
   38POPC  H11B 5057   4.812   3.901   6.451 -1.2786 -1.4259  1.5242
   38POPC     P 5058   5.103   3.701   6.408 -0.3460  0.0777 -0.4138
   38POPC   O13 5059   5.237   3.746   6.443  0.2187 -0.2046  0.0148
   38POPC   O14 5060   5.080   3.639   6.273 -0.0224 -0.7008 -0.0502
   38POPC   O12 5061   5.010   3.824   6.436  0.2583 -0.1615 -0.4710
   38POPC   O11 5062   5.061   3.599   6.519  0.1826  0.3794  0.0178
   38POPC    C1 5063   5.089   3.630   6.662 -0.5220 -0.1873 -0.8496
   38POPC    HA 5064   5.012   3.703   6.695 -2.4085 -2.0054 -1.0426
   38POPC    HB 5065   5.190   3.676   6.668  0.4793 -2.2838 -0.9275
   38POPC    C2 5066   5.083   3.505   6.754 -0.4448  0.1897  0.1887
   38POPC    HS 5067   4.983   3.458   6.768 -0.0601 -0.5500  0.5561
   38POPC   O21 5068   5.146   3.513   6.881 -0.4666  0.5100 -0.3376
   38POPC   C21 5069   5.069   3.572   6.973  0.2602 -0.0688 -0.3173
   38POPC   O22 5070   4.950   3.595   6.966 -0.2299 -0.0183  0.5865
   38POPC   C22 5071   5.156   3.598   7.092  0.1990 -0.3827  0.2384
   38POPC   H2R 5072   5.225   3.675   7.050  1.5127 -1.5930  0.0849
   38POPC   H2S 5073   5.208   3.505   7.123 -0.1607 -0.6953 -0.0989
   38POPC    C3 5074   5.159   3.393   6.683 -0.0829  0.2438  0.2745
   38POPC    HX 5075   5.255   3.437   6.648 -0.3063 -0.8011 -1.7571
   38POPC    HY 5076   5.097   3.366   6.595  1.5278  0.1818 -0.8849
   38POPC   O31 5077   5.177   3.269   6.755  0.2030 -0.3415 -0.0281
   38POPC   C31 5078   5.283   3.195   6.723 -0.6748  0.1603  0.4619
   38POPC   O32 5079   5.363   3.219   6.632  0.3743 -0.5076 -0.4949
   38POPC   C32 5080   5.282   3.064   6.798 -0.1876  0.1495 -0.5755
   38POPC   H2X 5081   5.317   2.993   6.720  0.8735  0.1889 -0.1576
   38POPC   H2Y 5082   5.181   3.044   6.839  0.0954  0.6194  0.3987
   38POPC   C23 5083   5.079   3.672   7.208  0.8751  0.5648 -0.1344
   38POPC   H3R 5084   4.992   3.606   7.226 -1.2533  2.3812 -2.9293
   38POPC   H3S 5085   5.032   3.770   7.184 -0.9561 -0.4532 -0.9218
   38POPC   C24 5086   5.164   3.673   7.341 -0.0159  0.2081 -0.3690
   38POPC   H4R 5087   5.233   3.760   7.337  0.1928  0.0253 -0.8088
   38POPC   H4S 5088   5.207   3.574   7.365 -1.6834  0.3428  4.2155
   38POPC   C25 5089   5.072   3.697   7.466  0.4248  0.1646 -0.2848
   38POPC   H5R 5090   4.978   3.638   7.468  1.2133 -1.1116  0.9547
   38POPC   H5S 5091   5.049   3.805   7.458 -0.8999 -0.0390  0.4803
   38POPC   C26 5092   5.154   3.665   7.594  0.3086 -0.1936  0.2137
   38POPC   H6R 5093   5.176   3.556   7.584 -0.2317 -0.2821 -0.0397
   38POPC   H6S 5094   5.085   3.667   7.681 -1.2436 -0.7679 -0.9560
   38POPC   C27 5095   5.288   3.730   7.607 -0.6069  0.2605  0.1162
   38POPC   H7R 5096   5.274   3.840   7.613 -2.3052  0.0982 -0.1996
   38POPC   H7S 5097   5.348   3.714   7.515  0.9116 -2.9512  1.4790
   38POPC   C28 5098   5.357   3.670   7.730 -0.3486  0.0076 -0.5977
   38POPC   H8R 5099   5.381   3.568   7.693 -1.5795  0.1457 -1.8601
   38POPC   H8S 5100   5.284   3.658   7.813  1.0637 -1.0846  0.5353
   38POPC   C29 5101   5.484   3.743   7.781 -0.5782  0.4127  0.3553
   38POPC   H91 5102   5.553   3.769   7.699 -0.9964  0.8884  0.1475
   38POPC  C210 5103   5.512   3.778   7.911  0.2872 -0.0362  0.3043
   38POPC  H101 5104   5.607   3.832   7.926  0.2945  0.6681 -1.9601
   38POPC  C211 5105   5.412   3.761   8.028  0.4713  0.1252 -0.1843
   38POPC  H11R 5106   5.426   3.678   8.101  0.6515  0.5988  0.3280
   38POPC  H11S 5107   5.309   3.749   7.989 -0.1275  2.4737  0.5339
   38POPC  C212 5108   5.406   3.902   8.096 -0.0933  1.1226  0.5191
   38POPC  H12R 5109   5.400   3.975   8.012  3.3676 -0.4998 -1.3148
   38POPC  H12S 5110   5.499   3.909   8.157  0.2559 -1.7664  0.4421
   38POPC  C213 5111   5.294   3.922   8.204  0.0841 -0.4897 -0.5806
   38POPC  H13R 5112   5.203   3.870   8.168 -0.5895  2.1904 -3.2294
   38POPC  H13S 5113   5.264   4.028   8.216  0.7730 -0.0696 -2.2131
   38POPC  C214 5114   5.338   3.868   8.340 -0.7511  0.5461 -0.5021
   38POPC  H14R 5115   5.398   3.775   8.325  0.3847  1.3103 -0.7923
   38POPC  H14S 5116   5.250   3.837   8.401  0.0785  0.1161  0.5095
   38POPC  C215 5117   5.429   3.955   8.432 -0.5182  0.4476  0.6323
   38POPC  H15R 5118   5.396   4.061   8.432  0.4425  0.8641 -2.5700
   38POPC  H15S 5119   5.532   3.948   8.391 -0.0841 -0.0125  1.7739
   38POPC  C216 5120   5.434   3.906   8.577  0.2963 -0.1272 -0.7934
   38POPC  H16R 5121   5.526   3.951   8.621 -0.1340 -0.6689  0.7265
   38POPC  H16S 5122   5.445   3.796   8.579 -0.6453 -0.2572 -1.8147
   38POPC  C217 5123   5.298   3.939   8.645 -0.2318  0.9212 -0.2226
   38POPC  H17R 5124   5.234   3.851   8.622 -1.3195  1.3794  0.9001
   38POPC  H17S 5125   5.255   4.031   8.601 -2.9912  0.3414  1.0563
   38POPC  C218 5126   5.308   3.961   8.800 -0.2395  0.2109  0.0707
   38POPC  H18R 5127   5.378   3.882   8.834  1.8036  2.7352  2.1342
   38POPC  H18S 5128   5.210   3.954   8.851  0.0588 -1.5070  0.4480
   38POPC  H18T 5129   5.355   4.061   8.816 -0.6107  1.1556 -3.7382
   38POPC   C33 5130   5.390   3.067   6.912 -0.0137 -0.2243 -0.6359
   38POPC   H3X 5131   5.486   3.087   6.860  0.3752 -0.9008 -0.1937
   38POPC   H3Y 5132   5.401   2.967   6.958 -0.0888 -2.0871 -4.2707
   38POPC   C34 5133   5.346   3.175   7.015 -0.0285 -0.4868 -0.0253
   38POPC   H4X 5134   5.240   3.153   7.041 -0.9962  2.1732 -1.3958
   38POPC   H4Y 5135   5.348   3.278   6.975 -0.8780 -0.8495 -1.0525
   38POPC   C35 5136   5.435   3.179   7.135 -0.1542 -0.7179 -0.5497
   38POPC   H5X 5137   5.533   3.210   7.093 -1.2532  0.9703 -2.0640
   38POPC   H5Y 5138   5.442   3.074   7.171  1.0088 -0.7685 -0.8879
   38POPC   C36 5139   5.389   3.261   7.258 -0.1462  0.5437 -0.3890
   38POPC   H6X 5140   5.302   3.202   7.293 -0.9195  2.0477  0.3144
   38POPC   H6Y 5141   5.374   3.360   7.211  0.1599 -0.5811 -3.0398
   38POPC   C37 5142   5.488   3.250   7.383  0.5392  0.0931 -0.4365
   38POPC   H7X 5143   5.590   3.290   7.365  0.9429  0.0469  1.5915
   38POPC   H7Y 5144   5.499   3.143   7.411 -1.3293 -0.1554 -0.5234
   38POPC   C38 5145   5.427   3.321   7.502  0.2071 -0.1055 -0.1234
   38POPC   H8X 5146   5.323   3.286   7.516  0.3700  0.1691  2.1645
   38POPC   H8Y 5147   5.423   3.432   7.498  1.3991 -0.0629 -1.0123
   38POPC   C39 5148   5.496   3.290   7.631 -0.8059 -0.1284 -0.2033
   38POPC   H9X 5149   5.555   3.380   7.658 -1.5859 -0.1626  1.7953
   38POPC   H9Y 5150   5.565   3.204   7.615 -0.4889 -0.1005  0.9453
   38POPC  C310 5151   5.399   3.240   7.740 -0.0963 -0.3068  0.6710
   38POPC  H10X 5152   5.350   3.146   7.709  0.2184 -0.8913  1.8753
   38POPC  H10Y 5153   5.319   3.316   7.754 -1.3805 -1.5219  0.1070
   38POPC  C311 5154   5.477   3.220   7.867 -0.3037  0.2113  0.4422
   38POPC  H11X 5155   5.569   3.161   7.847 -2.4483 -3.1374 -0.3206
   38POPC  H11Y 5156   5.425   3.154   7.940  2.9034 -3.0594  0.0420
   38POPC  C312 5157   5.495   3.352   7.946  0.0866  0.5903 -0.0955
   38POPC  H12X 5158   5.393   3.372   7.986 -0.7164  0.2875 -1.8813
   38POPC  H12Y 5159   5.513   3.440   7.881 -1.1709  1.3824  0.5873
   38POPC  C313 5160   5.597   3.337   8.057 -0.1514 -0.6029 -0.2012
   38POPC  H13X 5161   5.700   3.344   8.014  0.2774 -1.5104  0.6323
   38POPC  H13Y 5162   5.597   3.242   8.115  1.0443  0.1118  1.0158
   38POPC  C314 5163   5.597   3.456   8.155  0.1483 -0.0145 -0.1886
   38POPC  H14X 5164   5.493   3.459   8.195 -1.1389 -2.1259 -3.0330
   38POPC  H14Y 5165   5.620   3.546   8.093 -1.8853  0.2346 -0.6464
   38POPC  C315 5166   5.681   3.446   8.279  0.2768 -0.0917  0.1581
   38POPC  H15X 5167   5.784   3.454   8.240 -0.2032 -0.3941 -1.2355
   38POPC  H15Y 5168   5.670   3.340   8.310  1.1992 -0.6948 -1.4896
   38POPC  C316 5169   5.646   3.554   8.385  0.3941  0.2731  0.6831
   38POPC  H16X 5170   5.709   3.540   8.475 -0.2366 -0.6832  0.9966
   38POPC  H16Y 5171   5.545   3.526   8.422  0.6137 -0.0319  1.0552
   38POPC  H16Z 5172   5.635   3.655   8.341 -0.1346 -0.2603 -0.4727
   39POPC     N 5173   1.699   6.299   6.450  0.1910  0.1707 -0.2245
   39POPC   C12 5174   1.556   6.309   6.396 -0.4464 -0.0382  1.0730
   39POPC  H12A 5175   1.498   6.362   6.470 -2.4222 -1.3636  0.5658
   39POPC  H12B 5176   1.524   6.208   6.375 -0.5604  0.0208  0.9586
   39POPC   C13 5177   1.795   6.224   6.363  0.8941  0.4209  0.9235
   39POPC  H13A 5178   1.755   6.124   6.360  0.6116  0.4960  1.8654
   39POPC  H13B 5179   1.806   6.255   6.260 -0.9998 -0.0429  0.5279
   39POPC  H13C 5180   1.895   6.228   6.403  0.6552  0.7301  1.5053
   39POPC   C14 5181   1.751   6.438   6.472 -0.6493  0.0887  0.4752
   39POPC  H14A 5182   1.731   6.504   6.389  1.9230  0.3903 -0.0087
   39POPC  H14B 5183   1.699   6.484   6.555  0.8382  3.0896 -0.1184
   39POPC  H14C 5184   1.858   6.433   6.486 -0.6429  0.2237  0.4779
   39POPC   C15 5185   1.703   6.225   6.583 -0.0104  0.8195 -0.3076
   39POPC  H15A 5186   1.682   6.119   6.577 -1.2704  1.0308  0.0909
   39POPC  H15B 5187   1.635   6.270   6.654  1.3974  0.8708  1.0666
   39POPC  H15C 5188   1.801   6.227   6.628 -0.1223 -1.5035  0.1504
   39POPC   C11 5189   1.545   6.391   6.260  0.0821  0.2862 -0.4130
   39POPC  H11A 5190   1.452   6.350   6.216  0.6101  0.5579 -1.8639
   39POPC  H11B 5191   1.632   6.358   6.199  0.6601  0.3089  0.3772
   39POPC     P 5192   1.420   6.603   6.345  0.3249  0.0580  0.2859
   39POPC   O13 5193   1.327   6.582   6.229  0.0041  0.2133  0.3615
   39POPC   O14 5194   1.451   6.741   6.387 -0.4941 -0.2514  0.2121
   39POPC   O12 5195   1.549   6.534   6.288  0.1748  0.1235 -0.3702
   39POPC   O11 5196   1.376   6.521   6.470  0.1146  0.2309  0.6697
   39POPC    C1 5197   1.239   6.517   6.514 -0.3427  0.2264  0.4862
   39POPC    HA 5198   1.229   6.435   6.589 -1.3614 -1.2610 -1.1982
   39POPC    HB 5199   1.171   6.482   6.434 -0.6155 -1.8501  1.5590
   39POPC    C2 5200   1.195   6.642   6.598  0.2181  0.1266  0.1750
   39POPC    HS 5201   1.181   6.724   6.525 -1.0062 -2.0085 -2.1549
   39POPC   O21 5202   1.286   6.673   6.703  0.5310  0.5725 -0.6420
   39POPC   C21 5203   1.290   6.805   6.735 -1.1847  0.0115  0.4152
   39POPC   O22 5204   1.225   6.888   6.679  0.1185 -0.0451  0.3761
   39POPC   C22 5205   1.392   6.828   6.850  0.4850 -0.7436 -0.2743
   39POPC   H2R 5206   1.496   6.794   6.828  0.4525 -0.3682 -1.0518
   39POPC   H2S 5207   1.342   6.771   6.931 -2.4932  1.4593 -0.3985
   39POPC    C3 5208   1.047   6.606   6.653 -1.0635  0.1217 -0.3632
   39POPC    HX 5209   0.968   6.583   6.579 -0.1719  2.0751 -2.0532
   39POPC    HY 5210   1.017   6.701   6.702 -0.6647 -0.1899  0.5063
   39POPC   O31 5211   1.063   6.505   6.753  0.5286  0.0811  0.0484
   39POPC   C31 5212   0.959   6.433   6.766 -0.4569 -1.1913 -0.1984
   39POPC   O32 5213   0.848   6.457   6.727  0.2419  0.0869  0.4348
   39POPC   C32 5214   0.989   6.304   6.849 -0.2626 -0.5416  0.3033
   39POPC   H2X 5215   0.909   6.230   6.826  0.3601 -0.2914 -3.1618
   39POPC   H2Y 5216   1.073   6.254   6.797 -0.1988  0.4127 -0.5441
   39POPC   C23 5217   1.409   6.976   6.901  0.4267 -0.6287  0.2012
   39POPC   H3R 5218   1.309   7.023   6.917  1.5841  1.9614  0.3382
   39POPC   H3S 5219   1.460   7.043   6.829  0.4574 -0.3953  0.4357
   39POPC   C24 5220   1.504   6.992   7.024  0.5645 -0.3219 -0.1027
   39POPC   H4R 5221   1.519   7.099   7.049  1.7482 -0.3683 -0.5595
   39POPC   H4S 5222   1.605   6.951   7.001  1.5470  1.6130  0.5590
   39POPC   C25 5223   1.445   6.943   7.146 -0.2063  0.2730 -0.9327
   39POPC   H5R 5224   1.399   6.842   7.133  2.6624 -1.7128  2.4150
   39POPC   H5S 5225   1.363   7.011   7.178  0.3416 -0.6472  3.0217
   39POPC   C26 5226   1.536   6.935   7.275 -0.0661  0.1684  0.4340
   39POPC   H6R 5227   1.575   7.036   7.298  0.9355  0.0409 -0.5872
   39POPC   H6S 5228   1.622   6.869   7.250  0.8589  0.8070  1.8120
   39POPC   C27 5229   1.461   6.870   7.396  0.5127  0.0196 -0.0749
   39POPC   H7R 5230   1.536   6.857   7.477 -1.6454 -0.5758  1.9308
   39POPC   H7S 5231   1.422   6.770   7.366 -1.6896  0.4020  1.3128
   39POPC   C28 5232   1.350   6.960   7.458  0.4620  0.3016  0.5415
   39POPC   H8R 5233   1.285   6.997   7.376  1.3670  2.8493  0.8659
   39POPC   H8S 5234   1.400   7.051   7.499  1.2844 -0.2543  0.8021
   39POPC   C29 5235   1.266   6.899   7.567 -0.1193  0.3817  0.0299
   39POPC   H91 5236   1.210   6.812   7.531 -0.1261  0.9809 -1.4762
   39POPC  C210 5237   1.268   6.921   7.698 -0.0350  0.0160 -0.0000
   39POPC  H101 5238   1.204   6.856   7.759  0.0377 -0.7310 -0.7016
   39POPC  C211 5239   1.348   7.022   7.777  0.8680 -0.0058 -0.1923
   39POPC  H11R 5240   1.428   7.071   7.718  0.0761  0.4982 -0.8832
   39POPC  H11S 5241   1.401   6.961   7.853 -1.0465 -1.3671  0.1256
   39POPC  C212 5242   1.259   7.135   7.846  0.3807 -0.0945  0.4916
   39POPC  H12R 5243   1.166   7.094   7.891  0.7626 -0.2780  1.1270
   39POPC  H12S 5244   1.228   7.204   7.765 -3.8733 -2.7986 -0.5040
   39POPC  C213 5245   1.337   7.201   7.960  0.5226 -0.5677 -0.1980
   39POPC  H13R 5246   1.440   7.223   7.922 -0.5027  1.1697 -2.2097
   39POPC  H13S 5247   1.351   7.130   8.044 -0.5672  0.5583  0.9696
   39POPC  C214 5248   1.277   7.334   8.019  0.0529 -0.0964  0.1838
   39POPC  H14R 5249   1.173   7.308   8.048 -0.1060  1.3672  1.0186
   39POPC  H14S 5250   1.277   7.405   7.934  1.6540 -0.4303 -0.1324
   39POPC  C215 5251   1.368   7.366   8.139 -0.1586 -0.4852 -0.0351
   39POPC  H15R 5252   1.358   7.473   8.167  1.9508 -0.3790  0.4559
   39POPC  H15S 5253   1.469   7.337   8.103 -0.4699 -2.4109  0.5175
   39POPC  C216 5254   1.329   7.289   8.262 -0.1734 -0.0372  0.2791
   39POPC  H16R 5255   1.325   7.178   8.257  1.5468 -0.1078 -0.3010
   39POPC  H16S 5256   1.237   7.335   8.304 -1.5175 -2.3811  0.0628
   39POPC  C217 5257   1.430   7.318   8.369  0.3582  0.3670 -0.9075
   39POPC  H17R 5258   1.434   7.424   8.403 -2.7698 -0.3307  2.3452
   39POPC  H17S 5259   1.531   7.288   8.334  0.9340  1.7660 -0.5380
   39POPC  C218 5260   1.396   7.237   8.494  0.1447 -0.3149 -0.1013
   39POPC  H18R 5261   1.300   7.269   8.539  0.2291  0.1739 -0.2624
   39POPC  H18S 5262   1.486   7.254   8.557  0.3757  1.8199 -0.9274
   39POPC  H18T 5263   1.389   7.126   8.488 -0.0749 -0.5271  2.7286
   39POPC   C33 5264   1.000   6.325   7.007  0.2282 -0.1659  0.8053
   39POPC   H3X 5265   1.012   6.227   7.057  1.2989 -0.6872 -0.4178
   39POPC   H3Y 5266   0.903   6.371   7.034 -0.6019 -0.0252 -2.0794
   39POPC   C34 5267   1.131   6.399   7.035  0.0671 -0.4080  0.4168
   39POPC   H4X 5268   1.114   6.506   7.011  0.1536 -0.5504 -0.3222
   39POPC   H4Y 5269   1.200   6.365   6.955  0.0098  0.9076 -0.2134
   39POPC   C35 5270   1.182   6.391   7.174  0.9729  0.3939 -0.1278
   39POPC   H5X 5271   1.274   6.452   7.187  1.7384 -0.7820  0.1992
   39POPC   H5Y 5272   1.217   6.287   7.192 -0.3470 -0.0428  0.0100
   39POPC   C36 5273   1.073   6.428   7.278 -0.3473 -0.0820  0.0786
   39POPC   H6X 5274   0.981   6.366   7.273 -1.1928  1.2248 -1.3011
   39POPC   H6Y 5275   1.036   6.532   7.268 -0.7639 -0.4493 -2.9817
   39POPC   C37 5276   1.123   6.416   7.427 -0.3483  0.5849  0.4848
   39POPC   H7X 5277   1.216   6.477   7.426  1.1718 -1.6487 -0.3500
   39POPC   H7Y 5278   1.163   6.313   7.429 -0.6679  0.2850 -2.7676
   39POPC   C38 5279   1.025   6.443   7.529  0.1101  0.3465 -0.2588
   39POPC   H8X 5280   0.971   6.353   7.564  1.5804  0.0242  1.2980
   39POPC   H8Y 5281   0.950   6.522   7.512  0.7945  1.3757  1.3256
   39POPC   C39 5282   1.095   6.477   7.667  0.5722  0.1587  0.3895
   39POPC   H9X 5283   1.151   6.573   7.659  0.1600  0.3837  0.1708
   39POPC   H9Y 5284   1.168   6.398   7.695  1.8074  0.8865 -0.6439
   39POPC  C310 5285   0.990   6.482   7.782 -0.3904 -0.8325  0.3879
   39POPC  H10X 5286   0.964   6.374   7.792 -0.1749 -1.0210 -0.9136
   39POPC  H10Y 5287   0.898   6.538   7.753  0.1579  0.6034  1.3342
   39POPC  C311 5288   1.048   6.546   7.913 -0.4309  0.3713  0.2460
   39POPC  H11X 5289   1.093   6.641   7.879 -0.1253 -0.2985 -1.2885
   39POPC  H11Y 5290   1.128   6.479   7.952 -1.0704 -0.1990  0.5919
   39POPC  C312 5291   0.943   6.575   8.010  0.4570 -0.0138  0.5491
   39POPC  H12X 5292   0.852   6.621   7.966  1.0081 -0.9007 -1.6418
   39POPC  H12Y 5293   0.978   6.654   8.080  2.9189  0.5010 -1.1171
   39POPC  C313 5294   0.895   6.452   8.092 -0.2939  0.3305 -0.6259
   39POPC  H13X 5295   0.845   6.378   8.026 -1.0003 -0.4582  0.7548
   39POPC  H13Y 5296   0.810   6.468   8.162  0.3888 -0.2606  0.3616
   39POPC  C314 5297   1.006   6.378   8.166 -0.4946  0.2044 -1.2125
   39POPC  H14X 5298   1.077   6.330   8.095 -2.6329 -0.8596 -2.7417
   39POPC  H14Y 5299   0.952   6.295   8.216 -1.4760  2.2458  1.3402
   39POPC  C315 5300   1.090   6.457   8.268  0.0395  0.3770 -0.3367
   39POPC  H15X 5301   1.107   6.558   8.225 -0.9847  1.0138  0.6960
   39POPC  H15Y 5302   1.187   6.413   8.297  1.7487  3.4413 -1.0068
   39POPC  C316 5303   1.010   6.494   8.399  0.3362 -0.6318  0.1871
   39POPC  H16X 5304   0.921   6.554   8.371 -0.0795 -0.3850  1.9415
   39POPC  H16Y 5305   1.058   6.577   8.455 -1.6313  1.1049 -0.5507
   39POPC  H16Z 5306   0.967   6.410   8.457 -0.7161 -0.9185 -0.9706
   40POPC     N 5307   0.856   3.071   6.177  0.8790  0.0669  0.9118
   40POPC   C12 5308   0.935   3.104   6.301 -0.2720 -0.4158 -0.0600
   40POPC  H12A 5309   0.985   3.198   6.284 -1.5286  0.4873  0.9761
   40POPC  H12B 5310   1.012   3.032   6.324 -0.9141 -0.1337  3.6562
   40POPC   C13 5311   0.939   3.017   6.067  0.1485 -0.2636 -0.0955
   40POPC  H13A 5312   1.024   3.083   6.051  0.1857  1.1947  4.5785
   40POPC  H13B 5313   0.983   2.920   6.083  0.7332 -0.2277 -1.3867
   40POPC  H13C 5314   0.883   3.016   5.975 -0.2499 -2.3888  0.1172
   40POPC   C14 5315   0.739   2.969   6.203  0.1865  0.5687  0.3252
   40POPC  H14A 5316   0.687   2.943   6.113  2.7355 -3.0765 -0.3182
   40POPC  H14B 5317   0.790   2.881   6.239 -0.3143 -0.1461 -0.6674
   40POPC  H14C 5318   0.680   3.005   6.286 -1.3851  0.0477 -0.5312
   40POPC   C15 5319   0.773   3.186   6.129 -1.0412 -0.3831 -0.7876
   40POPC  H15A 5320   0.838   3.267   6.098 -1.3495 -0.0397 -0.5579
   40POPC  H15B 5321   0.718   3.238   6.207  1.5254  2.5354 -0.7363
   40POPC  H15C 5322   0.716   3.159   6.041  1.3426 -0.8284 -2.2711
   40POPC   C11 5323   0.854   3.110   6.428  0.1270  0.6613  0.8064
   40POPC  H11A 5324   0.921   3.116   6.517  1.1568  0.5531  0.0582
   40POPC  H11B 5325   0.796   3.018   6.452 -1.0295  0.6967 -1.6346
   40POPC     P 5326   0.834   3.372   6.441 -0.0543 -0.0214 -0.1531
   40POPC   O13 5327   0.749   3.445   6.536 -0.2062 -0.0988  0.4943
   40POPC   O14 5328   0.856   3.432   6.306 -0.3174  0.1795 -0.1268
   40POPC   O12 5329   0.765   3.221   6.422  0.0337 -0.2449 -0.3588
   40POPC   O11 5330   0.969   3.347   6.511  0.0741 -0.1283  0.1806
   40POPC    C1 5331   1.033   3.447   6.589 -0.2951  0.0517  0.0764
   40POPC    HA 5332   0.969   3.532   6.623  2.1260  2.2932 -0.6303
   40POPC    HB 5333   1.121   3.496   6.541  1.1830 -1.4231  1.1969
   40POPC    C2 5334   1.096   3.381   6.724  0.0804  0.4794  0.7564
   40POPC    HS 5335   1.026   3.311   6.773 -1.2603  0.1160 -1.5298
   40POPC   O21 5336   1.136   3.485   6.809  0.0966  0.3194 -0.2043
   40POPC   C21 5337   1.033   3.546   6.865  0.2472  0.4975 -0.5379
   40POPC   O22 5338   0.917   3.505   6.873 -0.1588 -0.2656  0.5134
   40POPC   C22 5339   1.081   3.659   6.952 -0.0818 -0.0203  0.3899
   40POPC   H2R 5340   1.053   3.750   6.895 -0.0939  0.7063  1.5174
   40POPC   H2S 5341   1.191   3.654   6.965  0.0338 -2.6901 -0.9386
   40POPC    C3 5342   1.226   3.293   6.690  0.3828 -0.0821 -0.1204
   40POPC    HX 5343   1.296   3.369   6.649 -1.0362  1.9136  0.9725
   40POPC    HY 5344   1.196   3.226   6.606  0.2676  1.9184 -1.7773
   40POPC   O31 5345   1.284   3.233   6.806 -1.2205  0.4633  0.3943
   40POPC   C31 5346   1.223   3.127   6.856  0.8916 -0.2921  0.8144
   40POPC   O32 5347   1.112   3.085   6.817  0.3061  0.4724  0.5145
   40POPC   C32 5348   1.294   3.068   6.975  0.2402 -0.4448  0.7028
   40POPC   H2X 5349   1.379   3.134   7.004  1.1537 -1.5212  0.5452
   40POPC   H2Y 5350   1.327   2.969   6.938 -0.0592 -0.7266  1.1794
   40POPC   C23 5351   1.000   3.658   7.084 -0.0261  0.6074 -0.0480
   40POPC   H3R 5352   1.037   3.579   7.153 -0.8829 -0.5487 -0.8639
   40POPC   H3S 5353   0.891   3.642   7.069  0.1009  0.8603 -1.4119
   40POPC   C24 5354   1.015   3.784   7.163  0.3189  0.4719  0.5787
   40POPC   H4R 5355   0.943   3.866   7.143 -0.1275 -0.0983 -0.2137
   40POPC   H4S 5356   1.116   3.829   7.147  1.4593 -0.7801  3.5188
   40POPC   C25 5357   1.004   3.756   7.309 -0.5175  0.0738 -0.1356
   40POPC   H5R 5358   1.099   3.706   7.335 -1.0013 -0.4931  0.5993
   40POPC   H5S 5359   0.921   3.684   7.329 -0.7598  0.1310 -0.9021
   40POPC   C26 5360   0.983   3.885   7.392 -0.7250 -0.2189 -0.3506
   40POPC   H6R 5361   0.892   3.943   7.365 -0.8578  0.5756  1.6286
   40POPC   H6S 5362   1.066   3.956   7.375 -1.4425  1.4554  2.5686
   40POPC   C27 5363   0.976   3.861   7.540  0.0821  0.0499 -0.0232
   40POPC   H7R 5364   1.041   3.926   7.602 -0.5773 -0.6947  1.5126
   40POPC   H7S 5365   1.023   3.760   7.547  5.4443  2.1277 -0.9495
   40POPC   C28 5366   0.828   3.880   7.582  0.1558 -0.3130  0.8876
   40POPC   H8R 5367   0.762   3.810   7.525 -0.1440 -0.2922  1.2062
   40POPC   H8S 5368   0.791   3.980   7.551  0.0912 -0.8619 -0.9601
   40POPC   C29 5369   0.823   3.849   7.730  0.0966 -0.6997  0.8869
   40POPC   H91 5370   0.856   3.749   7.760  1.6863  0.1765  2.2488
   40POPC  C210 5371   0.798   3.935   7.827 -0.3174  0.9132 -0.1541
   40POPC  H101 5372   0.796   3.904   7.932  1.5156  2.9828  0.5708
   40POPC  C211 5373   0.757   4.087   7.823  0.3384 -0.3124  0.4142
   40POPC  H11R 5374   0.790   4.140   7.731  0.5297  1.3537  1.4108
   40POPC  H11S 5375   0.817   4.131   7.905 -0.8843 -0.3784  1.3736
   40POPC  C212 5376   0.609   4.121   7.839  0.7423  0.2677 -0.0215
   40POPC  H12R 5377   0.573   4.074   7.933 -0.7985  1.2560 -0.0856
   40POPC  H12S 5378   0.547   4.072   7.761 -1.3461 -1.2830  2.4302
   40POPC  C213 5379   0.566   4.266   7.842  0.4632  0.3169 -0.2614
   40POPC  H13R 5380   0.455   4.261   7.848  0.5896 -0.4339  2.3210
   40POPC  H13S 5381   0.618   4.328   7.765  1.0724 -0.7000 -0.6875
   40POPC  C214 5382   0.626   4.328   7.969  0.8683  0.1845 -0.5786
   40POPC  H14R 5383   0.640   4.437   7.955  0.5024  0.3482  0.2623
   40POPC  H14S 5384   0.725   4.285   7.994  0.2444 -1.2182 -0.4072
   40POPC  C215 5385   0.518   4.314   8.080 -0.2024  0.2037  0.0423
   40POPC  H15R 5386   0.496   4.208   8.107  0.3708  0.1633  0.3790
   40POPC  H15S 5387   0.426   4.343   8.026  1.1002  1.7196 -1.5001
   40POPC  C216 5388   0.548   4.408   8.192  0.8380  0.4807  0.1704
   40POPC  H16R 5389   0.468   4.406   8.269 -1.3094 -1.2520 -1.9489
   40POPC  H16S 5390   0.562   4.513   8.157 -1.6906  0.8649  0.1477
   40POPC  C217 5391   0.679   4.389   8.261 -0.5014 -0.6132 -0.0018
   40POPC  H17R 5392   0.761   4.427   8.195 -1.3264 -2.1156 -1.9883
   40POPC  H17S 5393   0.696   4.280   8.272 -0.4094 -0.4918  1.2737
   40POPC  C218 5394   0.679   4.458   8.399 -0.3241  0.0951 -0.4113
   40POPC  H18R 5395   0.767   4.417   8.453 -1.2041 -1.1584  0.1557
   40POPC  H18S 5396   0.583   4.430   8.449 -2.1659  1.2973 -3.0656
   40POPC  H18T 5397   0.706   4.565   8.398  1.1115 -0.2517 -1.3418
   40POPC   C33 5398   1.207   3.061   7.095  0.9223  0.2307 -0.5664
   40POPC   H3X 5399   1.248   2.997   7.176 -0.0925 -0.2543 -0.4127
   40POPC   H3Y 5400   1.105   3.024   7.071  1.0630 -0.4330 -0.1798
   40POPC   C34 5401   1.207   3.191   7.171 -0.3234  0.1373 -0.0317
   40POPC   H4X 5402   1.153   3.266   7.109  0.4988 -2.7779 -4.7895
   40POPC   H4Y 5403   1.310   3.230   7.178 -0.1238 -0.6860  2.2442
   40POPC   C35 5404   1.151   3.173   7.312 -0.0060  0.1504 -0.4721
   40POPC   H5X 5405   1.220   3.124   7.383 -0.0695  0.4454 -0.2067
   40POPC   H5Y 5406   1.059   3.110   7.305  1.1384 -1.6339 -0.1903
   40POPC   C36 5407   1.123   3.316   7.360  0.0361  0.1102  0.5983
   40POPC   H6X 5408   1.067   3.365   7.277 -1.4581 -1.4091  0.6524
   40POPC   H6Y 5409   1.217   3.369   7.386 -0.7556  0.3019  3.3975
   40POPC   C37 5410   1.053   3.315   7.495 -0.5877 -0.5591 -0.3859
   40POPC   H7X 5411   1.119   3.274   7.574  1.2240 -1.6973 -2.3872
   40POPC   H7Y 5412   0.963   3.251   7.491  0.5082 -2.1967  0.3933
   40POPC   C38 5413   1.027   3.457   7.542  0.3604  0.8276 -0.4787
   40POPC   H8X 5414   0.942   3.492   7.479  0.2892  0.2554 -0.7038
   40POPC   H8Y 5415   1.111   3.528   7.531  0.6031  0.6929  0.4367
   40POPC   C39 5416   0.977   3.470   7.688 -0.3519  0.2811 -0.1638
   40POPC   H9X 5417   0.951   3.573   7.721 -0.6808 -0.3978  1.8562
   40POPC   H9Y 5418   1.060   3.439   7.755 -0.2609  3.9450  1.6733
   40POPC  C310 5419   0.853   3.381   7.722  0.3774 -0.3408  0.3128
   40POPC  H10X 5420   0.872   3.277   7.688 -0.0283  0.4918 -2.6863
   40POPC  H10Y 5421   0.766   3.424   7.669 -0.1474 -2.2078 -0.4141
   40POPC  C311 5422   0.823   3.370   7.874  0.3454  0.3110 -0.5710
   40POPC  H11X 5423   0.911   3.327   7.927 -2.3581 -2.9106  1.6814
   40POPC  H11Y 5424   0.754   3.284   7.887  2.0283 -0.8891  0.9206
   40POPC  C312 5425   0.781   3.507   7.933 -0.5736 -0.1296 -0.7077
   40POPC  H12X 5426   0.689   3.547   7.884  1.2900  1.2477 -3.3071
   40POPC  H12Y 5427   0.852   3.589   7.909 -0.2901 -0.2412 -0.2589
   40POPC  C313 5428   0.752   3.516   8.082 -0.9204  0.5598 -0.0946
   40POPC  H13X 5429   0.834   3.480   8.147  0.5682  0.9240 -1.6997
   40POPC  H13Y 5430   0.675   3.436   8.094 -1.1292  0.7900  0.1246
   40POPC  C314 5431   0.693   3.652   8.115 -0.4312 -0.7502 -1.0034
   40POPC  H14X 5432   0.614   3.681   8.042 -1.1111 -3.0953 -1.2795
   40POPC  H14Y 5433   0.770   3.726   8.085 -0.2158 -1.2134 -1.6251
   40POPC  C315 5434   0.656   3.678   8.261 -0.3786  0.1289  0.2755
   40POPC  H15X 5435   0.680   3.779   8.302  0.8034  0.2171 -0.5732
   40POPC  H15Y 5436   0.728   3.606   8.305  2.2143  2.2714 -0.1619
   40POPC  C316 5437   0.512   3.644   8.289  0.3237 -0.0004  0.1135
   40POPC  H16X 5438   0.496   3.668   8.397 -0.1781 -0.3252  0.1157
   40POPC  H16Y 5439   0.486   3.537   8.272 -1.4919  0.6294 -1.4612
   40POPC  H16Z 5440   0.435   3.704   8.236 -0.9143  1.1875  3.0072
   41CHL1    C3 5441   5.541   0.800  10.115 -0.4809 -0.0402  0.6750
   41CHL1    H3 5442   5.564   0.901  10.155 -0.1939  1.5220 -3.0183
   41CHL1    O3 5443   5.532   0.709  10.228  0.3847 -0.0238  0.6440
   41CHL1   H3' 5444   5.480   0.637  10.191  1.8040 -0.3891 -0.7467
   41CHL1    C4 5445   5.406   0.802  10.039  1.1005 -0.3215 -0.2095
   41CHL1   H4A 5446   5.376   0.696  10.027  1.0211 -0.2450 -0.6916
   41CHL1   H4B 5447   5.336   0.855  10.108  0.4614 -1.7522  0.2683
   41CHL1    C5 5448   5.411   0.882   9.916  0.0873  0.2420  0.3174
   41CHL1    C6 5449   5.331   0.987   9.891 -0.0079 -0.4791 -0.2734
   41CHL1    H6 5450   5.249   1.006   9.961 -0.4165 -0.4550 -0.7514
   41CHL1    C7 5451   5.333   1.056   9.756 -0.5476  0.4870  0.5135
   41CHL1   H7A 5452   5.237   1.101   9.722  0.5800  1.8965 -0.9770
   41CHL1   H7B 5453   5.401   1.143   9.762  1.5261 -0.9657 -0.6996
   41CHL1    C8 5454   5.393   0.965   9.647 -0.4625  0.1431  0.6739
   41CHL1    H8 5455   5.325   0.878   9.639 -0.1821  0.0227 -0.6701
   41CHL1   C14 5456   5.409   1.042   9.513  0.1768 -0.9227 -0.0580
   41CHL1   H14 5457   5.494   1.113   9.525  0.7310 -1.9611  2.8735
   41CHL1   C15 5458   5.290   1.131   9.453  0.6123 -0.2054 -0.3269
   41CHL1  H15A 5459   5.204   1.064   9.475 -0.7460  1.4817 -0.2530
   41CHL1  H15B 5460   5.279   1.222   9.515 -0.4999  0.9199 -2.0686
   41CHL1   C16 5461   5.313   1.140   9.308  0.6414  0.2760  1.4357
   41CHL1  H16A 5462   5.222   1.095   9.260  0.8513  0.5041  0.8123
   41CHL1  H16B 5463   5.330   1.240   9.264  0.2987 -0.6338 -0.9390
   41CHL1   C17 5464   5.438   1.050   9.276 -0.3753  0.4079  0.6777
   41CHL1   H17 5465   5.518   1.125   9.293 -0.0890  0.1058  0.6675
   41CHL1   C13 5466   5.452   0.956   9.397  0.8326 -0.2129 -0.1474
   41CHL1   C18 5467   5.355   0.839   9.367 -0.2276 -0.2224 -0.0426
   41CHL1  H18A 5468   5.361   0.769   9.452  1.1822 -0.2316 -0.1278
   41CHL1  H18B 5469   5.255   0.888   9.363  0.1417  0.4921 -1.1695
   41CHL1  H18C 5470   5.381   0.784   9.274 -1.8320 -1.5104  0.2143
   41CHL1   C12 5471   5.590   0.902   9.425  0.5676  0.3308  0.3833
   41CHL1  H12A 5472   5.617   0.816   9.359  0.9915  1.2861 -0.7257
   41CHL1  H12B 5473   5.660   0.987   9.415  0.6296  0.6861  3.1615
   41CHL1   C11 5474   5.600   0.840   9.570 -0.1253  0.3230 -0.5891
   41CHL1  H11A 5475   5.569   0.734   9.556  2.7941 -1.0376  2.1081
   41CHL1  H11B 5476   5.709   0.837   9.591  0.2224  0.4377 -2.1833
   41CHL1    C9 5477   5.528   0.912   9.686  0.8167  0.4713 -0.4720
   41CHL1    H9 5478   5.594   0.995   9.717  0.8822 -0.3050  1.6187
   41CHL1   C10 5479   5.510   0.822   9.815  0.4163 -0.6887 -0.9306
   41CHL1   C19 5480   5.455   0.676   9.781  0.7839 -0.1148  0.0292
   41CHL1  H19A 5481   5.372   0.679   9.707  0.0835 -2.3725  0.6430
   41CHL1  H19B 5482   5.545   0.623   9.742 -0.3219 -0.5431 -2.0682
   41CHL1  H19C 5483   5.430   0.615   9.870  0.2335  0.1103  0.0319
   41CHL1    C1 5484   5.655   0.811   9.888 -0.7510  0.4158 -0.2911
   41CHL1   H1A 5485   5.711   0.744   9.820 -0.5990 -0.0457  0.2783
   41CHL1   H1B 5486   5.698   0.913   9.896 -0.6651  0.3253  0.4795
   41CHL1    C2 5487   5.656   0.743  10.019  0.6405 -0.3042  0.6921
   41CHL1   H2A 5488   5.752   0.750  10.075  0.0730  0.7510  1.5568
   41CHL1   H2B 5489   5.636   0.635  10.006 -1.2078  0.2754 -2.0950
   41CHL1   C20 5490   5.433   0.996   9.125 -0.2259  0.5019 -0.3783
   41CHL1   H20 5491   5.354   0.919   9.112 -0.3989  0.4872  0.6550
   41CHL1   C21 5492   5.566   0.920   9.100  0.2831  0.4975 -0.3141
   41CHL1  H21A 5493   5.570   0.824   9.155  4.2813  0.1157 -0.9632
   41CHL1  H21B 5494   5.657   0.976   9.131 -0.5445  1.2218  0.8546
   41CHL1  H21C 5495   5.582   0.887   8.995 -0.9154 -2.2551  0.2723
   41CHL1   C22 5496   5.400   1.110   9.026 -0.1397 -0.6008  0.3131
   41CHL1  H22A 5497   5.301   1.151   9.055 -0.2960 -0.4496 -0.4248
   41CHL1  H22B 5498   5.476   1.190   9.036 -2.2821  1.8483 -1.5303
   41CHL1   C23 5499   5.389   1.075   8.884  0.2884 -0.4566  0.5662
   41CHL1  H23A 5500   5.481   1.035   8.837  0.2173  0.8744 -0.8118
   41CHL1  H23B 5501   5.311   0.997   8.875 -0.7810  0.2293  3.2233
   41CHL1   C24 5502   5.352   1.207   8.809 -0.0436  0.4648  0.3273
   41CHL1  H24A 5503   5.246   1.230   8.833 -0.2817 -0.2985  0.0253
   41CHL1  H24B 5504   5.419   1.280   8.861  1.4572 -1.8063  1.7405
   41CHL1   C25 5505   5.386   1.212   8.657 -0.2589 -0.4325  0.1454
   41CHL1   H25 5506   5.492   1.179   8.652  0.5831  2.2001 -0.7370
   41CHL1   C26 5507   5.297   1.110   8.578 -0.1516  0.1964  0.5279
   41CHL1  H26A 5508   5.194   1.145   8.596  0.0351  1.4637 -0.6658
   41CHL1  H26B 5509   5.307   1.135   8.470 -2.8156  0.2593  0.2338
   41CHL1  H26C 5510   5.325   1.004   8.597  1.7873  0.1590 -1.9603
   41CHL1   C27 5511   5.373   1.356   8.608  0.0592  0.3888 -0.4925
   41CHL1  H27A 5512   5.429   1.424   8.675 -0.1073 -0.2454  0.3028
   41CHL1  H27B 5513   5.403   1.354   8.500  0.7970  2.5219 -0.3904
   41CHL1  H27C 5514   5.265   1.377   8.619  0.1392 -0.2223  2.0702
   42CHL1    C3 5515   5.730   6.259   9.757 -0.0760 -0.1108  0.7801
   42CHL1    H3 5516   5.629   6.213   9.753 -0.1782 -0.2210  3.1555
   42CHL1    O3 5517   5.794   6.210   9.873 -0.2810  0.4321  0.0223
   42CHL1   H3' 5518   5.878   6.173   9.844 -0.3922  0.5771 -0.4827
   42CHL1    C4 5519   5.807   6.227   9.625 -0.8488  0.5814 -0.4620
   42CHL1   H4A 5520   5.905   6.277   9.633 -1.4708  1.8670 -0.6109
   42CHL1   H4B 5521   5.829   6.118   9.617 -1.2617  0.5362 -1.0298
   42CHL1    C5 5522   5.736   6.283   9.502  0.3284  0.3685  0.1566
   42CHL1    C6 5523   5.706   6.199   9.404  0.1518  0.0139  0.2906
   42CHL1    H6 5524   5.728   6.092   9.420  0.9528 -0.0435 -1.0261
   42CHL1    C7 5525   5.643   6.241   9.269 -0.8230 -0.4810 -0.0614
   42CHL1   H7A 5526   5.690   6.195   9.180 -2.5376 -1.1360 -0.6792
   42CHL1   H7B 5527   5.533   6.222   9.269 -0.9865 -0.1339  3.1938
   42CHL1    C8 5528   5.662   6.394   9.245  0.3327 -0.4326 -0.3763
   42CHL1    H8 5529   5.770   6.407   9.225  0.3644 -0.1501 -0.0338
   42CHL1   C14 5530   5.578   6.441   9.129 -0.4444  0.7285  0.8703
   42CHL1   H14 5531   5.479   6.420   9.176  0.0460  0.3574  1.7612
   42CHL1   C15 5532   5.587   6.367   8.995  0.5432  0.5192  0.8423
   42CHL1  H15A 5533   5.694   6.350   8.971  0.2199  0.1519 -0.4221
   42CHL1  H15B 5534   5.522   6.277   9.003 -0.2148  1.0614  0.9010
   42CHL1   C16 5535   5.528   6.470   8.893  0.7327  1.1183  0.1599
   42CHL1  H16A 5536   5.598   6.488   8.810  0.0915 -0.5664 -0.7961
   42CHL1  H16B 5537   5.444   6.422   8.838  1.4027  1.5010 -1.2409
   42CHL1   C17 5538   5.497   6.602   8.978  0.2478  0.4704  0.0681
   42CHL1   H17 5539   5.393   6.594   9.017  0.6067  0.0223  0.9469
   42CHL1   C13 5540   5.590   6.590   9.095 -0.4458  0.1012  0.3353
   42CHL1   C18 5541   5.738   6.616   9.054  0.0869 -0.4016 -0.6828
   42CHL1  H18A 5542   5.773   6.562   8.963  0.1580 -0.9458 -0.3355
   42CHL1  H18B 5543   5.753   6.726   9.046 -3.5468  0.1467 -1.9388
   42CHL1  H18C 5544   5.802   6.583   9.138  0.2560 -0.1712 -0.7222
   42CHL1   C12 5545   5.546   6.665   9.225  0.1433 -0.2379 -0.6263
   42CHL1  H12A 5546   5.553   6.775   9.220 -2.1800 -0.1066 -2.5231
   42CHL1  H12B 5547   5.440   6.637   9.241  0.2043 -0.0837  0.0735
   42CHL1   C11 5548   5.628   6.630   9.346 -0.2049 -0.0512  0.3337
   42CHL1  H11A 5549   5.734   6.663   9.339  0.0688 -1.1182 -1.2416
   42CHL1  H11B 5550   5.577   6.674   9.434 -1.4291  0.0592 -0.4001
   42CHL1    C9 5551   5.628   6.475   9.375  0.7246  0.0282 -0.0911
   42CHL1    H9 5552   5.522   6.459   9.402  0.4997 -1.4954 -1.7186
   42CHL1   C10 5553   5.707   6.436   9.497 -0.4580 -0.0157 -0.1677
   42CHL1   C19 5554   5.843   6.512   9.498  0.5222 -0.0473 -0.6951
   42CHL1  H19A 5555   5.889   6.503   9.398  0.9948  1.5714 -0.6558
   42CHL1  H19B 5556   5.827   6.620   9.520  2.9017  0.5208 -1.4849
   42CHL1  H19C 5557   5.908   6.484   9.584 -1.2574  2.5431  1.7240
   42CHL1    C1 5558   5.635   6.469   9.632 -0.6186  0.0393  0.0169
   42CHL1   H1A 5559   5.623   6.580   9.632 -0.1302  0.1069 -0.9751
   42CHL1   H1B 5560   5.534   6.424   9.634 -1.0944  1.0671  2.3923
   42CHL1    C2 5561   5.706   6.416   9.764  0.2658 -0.7388  0.0576
   42CHL1   H2A 5562   5.647   6.442   9.854  0.2868  0.9550 -0.3759
   42CHL1   H2B 5563   5.797   6.477   9.780 -1.1103  0.8320  2.4445
   42CHL1   C20 5564   5.503   6.734   8.898 -0.1723  0.2596  0.2907
   42CHL1   H20 5565   5.609   6.741   8.865 -0.6958 -1.9987 -2.1666
   42CHL1   C21 5566   5.454   6.853   8.986 -0.7211  0.4753  0.5254
   42CHL1  H21A 5567   5.430   6.946   8.929 -2.7881 -0.3837 -0.1141
   42CHL1  H21B 5568   5.532   6.884   9.058 -2.4289  5.3118  0.7129
   42CHL1  H21C 5569   5.361   6.818   9.037 -1.5012  3.6117  1.4923
   42CHL1   C22 5570   5.431   6.730   8.759  0.5649  0.3265 -0.5680
   42CHL1  H22A 5571   5.458   6.644   8.694 -0.2117  0.8517 -1.6147
   42CHL1  H22B 5572   5.322   6.717   8.775  0.2017  1.5338 -1.8677
   42CHL1   C23 5573   5.455   6.854   8.671  0.2536  0.1520  0.2770
   42CHL1  H23A 5574   5.407   6.940   8.724  1.0954  1.7237 -1.3936
   42CHL1  H23B 5575   5.565   6.867   8.671  0.3225 -0.4326  0.8696
   42CHL1   C24 5576   5.399   6.832   8.523  0.2787 -0.2523 -0.0579
   42CHL1  H24A 5577   5.442   6.916   8.465  1.5572 -0.6748  0.2290
   42CHL1  H24B 5578   5.443   6.736   8.487  1.5788 -0.5701  2.1548
   42CHL1   C25 5579   5.243   6.824   8.512 -0.7561 -0.4376 -1.4811
   42CHL1   H25 5580   5.209   6.767   8.602  0.0262  0.4632 -0.5947
   42CHL1   C26 5581   5.165   6.959   8.506 -0.5909 -0.1015  0.5327
   42CHL1  H26A 5582   5.210   7.035   8.573 -1.6990  0.6319  0.4845
   42CHL1  H26B 5583   5.149   7.001   8.404  0.4009  3.5512  1.7171
   42CHL1  H26C 5584   5.065   6.932   8.546 -0.8727  1.9807  1.4066
   42CHL1   C27 5585   5.206   6.744   8.395  1.0934 -0.4723  0.0317
   42CHL1  H27A 5586   5.099   6.720   8.412  0.7311  0.9281 -0.1920
   42CHL1  H27B 5587   5.221   6.802   8.301  1.0505  0.8151  0.8143
   42CHL1  H27C 5588   5.256   6.645   8.384 -0.0584 -1.0496 -0.1157
   43CHL1    C3 5589   3.731   6.627   9.865  0.1118  0.3335 -0.8899
   43CHL1    H3 5590   3.780   6.549   9.803  1.5537 -0.7580  1.4689
   43CHL1    O3 5591   3.784   6.638   9.998 -0.0676 -0.5992  0.4405
   43CHL1   H3' 5592   3.745   6.722  10.025  0.1060  0.2308 -1.7042
   43CHL1    C4 5593   3.736   6.769   9.801 -0.8891 -0.6589 -0.3718
   43CHL1   H4A 5594   3.671   6.832   9.866 -1.2455 -0.9627 -0.4261
   43CHL1   H4B 5595   3.843   6.799   9.805 -0.4047 -2.3382  0.2239
   43CHL1    C5 5596   3.683   6.773   9.658 -0.4797  0.1698  0.1214
   43CHL1    C6 5597   3.761   6.827   9.559 -0.6406  0.4112 -0.1414
   43CHL1    H6 5598   3.855   6.879   9.583 -1.7849  1.6868  1.8901
   43CHL1    C7 5599   3.726   6.822   9.411  0.1031 -0.6484  0.1725
   43CHL1   H7A 5600   3.733   6.927   9.375  2.0022  0.0589  2.3317
   43CHL1   H7B 5601   3.801   6.762   9.356 -0.0400  0.0081 -0.7557
   43CHL1    C8 5602   3.586   6.762   9.380  0.1176 -0.6385  0.2830
   43CHL1    H8 5603   3.510   6.843   9.385  1.0605  0.2346  0.9931
   43CHL1   C14 5604   3.582   6.698   9.246  0.0888  0.2343 -0.2752
   43CHL1   H14 5605   3.643   6.607   9.260  0.5588  0.5834 -0.0131
   43CHL1   C15 5606   3.636   6.776   9.124  0.4667 -0.5778  0.2468
   43CHL1  H15A 5607   3.582   6.873   9.116 -1.2442 -1.4749  0.5561
   43CHL1  H15B 5608   3.745   6.798   9.123  0.4046 -0.2482 -0.9314
   43CHL1   C16 5609   3.598   6.675   9.017  0.1238  0.6480  0.2875
   43CHL1  H16A 5610   3.575   6.723   8.919  0.6769  0.0519 -0.1473
   43CHL1  H16B 5611   3.683   6.606   8.996 -0.8402 -0.7461  0.7867
   43CHL1   C17 5612   3.482   6.578   9.073  0.1464 -0.3615 -0.2618
   43CHL1   H17 5613   3.539   6.486   9.097 -0.1541 -0.6037 -0.4767
   43CHL1   C13 5614   3.445   6.642   9.210  0.1398  0.3829 -0.2436
   43CHL1   C18 5615   3.344   6.763   9.183 -0.6399  0.2097  0.5451
   43CHL1  H18A 5616   3.250   6.723   9.140 -1.0094  2.5735 -1.0729
   43CHL1  H18B 5617   3.330   6.824   9.275  0.4807 -0.6580  1.3134
   43CHL1  H18C 5618   3.384   6.830   9.103 -1.3165 -1.7957 -1.5869
   43CHL1   C12 5619   3.410   6.534   9.310 -0.3086 -0.2947  0.3766
   43CHL1  H12A 5620   3.306   6.504   9.283  0.6462 -2.4623 -1.1878
   43CHL1  H12B 5621   3.480   6.452   9.283  0.1446  0.5997 -1.3307
   43CHL1   C11 5622   3.412   6.581   9.450  0.1858 -0.8050 -0.1035
   43CHL1  H11A 5623   3.324   6.648   9.444 -0.5449 -1.7429 -0.1007
   43CHL1  H11B 5624   3.390   6.500   9.523  1.4167 -0.4120  0.7501
   43CHL1    C9 5625   3.543   6.661   9.488 -0.6292  0.0334 -0.4246
   43CHL1    H9 5626   3.623   6.584   9.483 -0.9815 -0.5954  2.3580
   43CHL1   C10 5627   3.553   6.701   9.636 -0.0120 -0.2519 -0.5005
   43CHL1   C19 5628   3.443   6.808   9.670  0.5718  0.3168 -0.0938
   43CHL1  H19A 5629   3.470   6.898   9.611 -0.2644  0.0844 -0.8663
   43CHL1  H19B 5630   3.346   6.770   9.630  1.9853 -1.5868 -1.9534
   43CHL1  H19C 5631   3.441   6.824   9.780 -1.6392  1.8527 -0.3044
   43CHL1    C1 5632   3.520   6.577   9.730  0.1735  0.4359 -0.6615
   43CHL1   H1A 5633   3.411   6.559   9.734  0.5857 -3.1528 -1.6437
   43CHL1   H1B 5634   3.561   6.480   9.693 -0.5645 -1.0080  2.0300
   43CHL1    C2 5635   3.584   6.592   9.876  0.7726  0.1262 -0.6459
   43CHL1   H2A 5636   3.565   6.496   9.928  2.2575  2.6980  5.5296
   43CHL1   H2B 5637   3.536   6.671   9.938 -0.4961 -2.1682  1.4438
   43CHL1   C20 5638   3.381   6.543   8.964  0.4196 -0.4954 -0.1533
   43CHL1   H20 5639   3.307   6.626   8.955  0.1604 -0.8411 -1.3926
   43CHL1   C21 5640   3.298   6.412   9.009  0.0403 -0.5107  0.4557
   43CHL1  H21A 5641   3.233   6.374   8.927 -1.2908  2.0794  0.1948
   43CHL1  H21B 5642   3.231   6.437   9.094 -2.2459 -2.8434 -0.5215
   43CHL1  H21C 5643   3.357   6.321   9.034  0.6427 -0.7511 -1.6835
   43CHL1   C22 5644   3.432   6.520   8.814 -0.1637 -0.2767  0.4612
   43CHL1  H22A 5645   3.341   6.491   8.757  1.4421 -0.3608 -2.2334
   43CHL1  H22B 5646   3.472   6.615   8.774  0.9352 -0.3069  1.4197
   43CHL1   C23 5647   3.542   6.405   8.803 -0.5045 -0.1941  0.2757
   43CHL1  H23A 5648   3.614   6.422   8.886  0.0406  1.6878 -0.5459
   43CHL1  H23B 5649   3.499   6.304   8.823 -0.0587 -0.3348  0.5667
   43CHL1   C24 5650   3.616   6.413   8.666  0.2408 -0.9321  0.1269
   43CHL1  H24A 5651   3.542   6.392   8.585  0.4899  1.4431 -0.8014
   43CHL1  H24B 5652   3.655   6.515   8.645 -0.7287 -0.3091  1.2690
   43CHL1   C25 5653   3.739   6.319   8.654 -0.0924 -0.4925  0.5812
   43CHL1   H25 5654   3.706   6.226   8.704 -3.9259 -0.7286 -1.8764
   43CHL1   C26 5655   3.772   6.295   8.503  0.1731 -0.2106 -0.1037
   43CHL1  H26A 5656   3.689   6.263   8.437 -0.0968  0.9163 -0.3334
   43CHL1  H26B 5657   3.820   6.388   8.465  0.2322  0.2602  1.0662
   43CHL1  H26C 5658   3.852   6.218   8.496  0.3298  0.0209 -1.0258
   43CHL1   C27 5659   3.863   6.374   8.722  0.5407  0.2803 -0.7206
   43CHL1  H27A 5660   3.849   6.374   8.832  1.6795 -3.4222 -0.4235
   43CHL1  H27B 5661   3.948   6.303   8.710 -1.0229 -1.5523 -1.3655
   43CHL1  H27C 5662   3.902   6.476   8.703  0.5806  0.8072  1.8318
   44CHL1    C3 5663   6.142   1.042  10.274 -0.3894  0.2163 -0.6981
   44CHL1    H3 5664   6.249   1.070  10.279  0.1192 -1.5586 -1.2437
   44CHL1    O3 5665   6.078   1.057  10.397 -0.0578 -0.8668 -0.5898
   44CHL1   H3' 5666   5.987   1.028  10.385  0.0510 -1.5619  0.1166
   44CHL1    C4 5667   6.072   1.127  10.172  0.2736 -0.4742 -0.0525
   44CHL1   H4A 5668   5.963   1.105  10.175 -0.1724  1.5378  2.3350
   44CHL1   H4B 5669   6.071   1.235  10.198  1.7926 -0.5024  0.2031
   44CHL1    C5 5670   6.144   1.109  10.038  0.0243 -0.1421  0.3783
   44CHL1    C6 5671   6.209   1.210   9.979  0.4724 -0.4542 -0.3411
   44CHL1    H6 5672   6.196   1.310  10.024 -1.3240 -0.7270 -0.1712
   44CHL1    C7 5673   6.272   1.195   9.838  0.6611 -0.5426  0.0074
   44CHL1   H7A 5674   6.266   1.279   9.766 -1.5910 -1.1512 -0.5731
   44CHL1   H7B 5675   6.381   1.190   9.859  0.7474 -1.1168 -0.5534
   44CHL1    C8 5676   6.219   1.068   9.767 -0.7269  0.0250  0.2667
   44CHL1    H8 5677   6.114   1.088   9.738 -0.4623 -1.0699 -1.5931
   44CHL1   C14 5678   6.309   1.053   9.642  0.6037  0.1379  0.0745
   44CHL1   H14 5679   6.413   1.039   9.676  0.3461  0.7340  1.1622
   44CHL1   C15 5680   6.313   1.169   9.544 -0.1728 -0.1759  0.4127
   44CHL1  H15A 5681   6.218   1.226   9.543 -1.3485 -2.0511  1.3425
   44CHL1  H15B 5682   6.389   1.241   9.582  0.4701 -0.3718 -0.4639
   44CHL1   C16 5683   6.353   1.106   9.408 -0.6199 -0.9737 -0.4530
   44CHL1  H16A 5684   6.280   1.143   9.333 -0.0420  1.1833 -0.0322
   44CHL1  H16B 5685   6.454   1.141   9.377 -1.4247  2.0116 -0.0387
   44CHL1   C17 5686   6.366   0.952   9.434 -0.8436  0.3269 -0.0576
   44CHL1   H17 5687   6.470   0.931   9.468 -1.7869 -1.3824  2.0675
   44CHL1   C13 5688   6.283   0.929   9.558 -0.1110  0.1868  0.1340
   44CHL1   C18 5689   6.135   0.930   9.509  0.1950  0.1003 -0.4428
   44CHL1  H18A 5690   6.104   1.019   9.450  0.5368  0.2643 -0.3783
   44CHL1  H18B 5691   6.117   0.841   9.445 -0.9981 -0.2890  0.3848
   44CHL1  H18C 5692   6.052   0.921   9.583  0.2432  1.2441 -0.2279
   44CHL1   C12 5693   6.305   0.807   9.639  0.0912  0.4227 -0.1764
   44CHL1  H12A 5694   6.274   0.712   9.589 -0.1627  0.7783 -0.6932
   44CHL1  H12B 5695   6.416   0.803   9.641  0.0790 -3.2067  0.2948
   44CHL1   C11 5696   6.233   0.811   9.776 -0.4560 -0.3161  0.1039
   44CHL1  H11A 5697   6.127   0.785   9.751 -0.9193 -0.4435  2.0859
   44CHL1  H11B 5698   6.260   0.733   9.850 -0.7352  1.3725  2.0475
   44CHL1    C9 5699   6.243   0.950   9.854  0.1647  0.3108 -0.5646
   44CHL1    H9 5700   6.349   0.957   9.887 -0.1752 -2.3127  1.4283
   44CHL1   C10 5701   6.153   0.963   9.981 -0.5735 -0.4693 -0.3247
   44CHL1   C19 5702   6.012   0.921   9.936 -0.3824  0.6498 -0.3726
   44CHL1  H19A 5703   5.968   0.995   9.865 -2.3390  1.0869  1.1827
   44CHL1  H19B 5704   6.003   0.817   9.897 -0.9328  0.9636 -1.0906
   44CHL1  H19C 5705   5.947   0.922  10.027 -2.2063 -1.2970 -1.5505
   44CHL1    C1 5706   6.209   0.875  10.099  0.4825  0.4203 -0.0503
   44CHL1   H1A 5707   6.189   0.771  10.064 -1.2625  0.6820  0.0516
   44CHL1   H1B 5708   6.316   0.898  10.116  0.2796  1.6663 -0.3569
   44CHL1    C2 5709   6.132   0.897  10.236 -0.4173 -0.1795 -0.4763
   44CHL1   H2A 5710   6.183   0.828  10.306 -0.8447  2.2368  2.3810
   44CHL1   H2B 5711   6.023   0.876  10.224 -0.7908  1.7047 -0.7545
   44CHL1   C20 5712   6.343   0.874   9.304  1.1154 -1.0204  0.4501
   44CHL1   H20 5713   6.237   0.894   9.276  1.3131 -0.3220  0.1747
   44CHL1   C21 5714   6.350   0.717   9.320  0.1306 -0.9293 -0.7688
   44CHL1  H21A 5715   6.257   0.675   9.365  2.5479 -2.7394  3.0783
   44CHL1  H21B 5716   6.423   0.696   9.401 -3.7235 -2.0212  2.7733
   44CHL1  H21C 5717   6.376   0.662   9.227  0.0493 -0.4854 -1.0574
   44CHL1   C22 5718   6.438   0.916   9.185 -0.9742  0.1254  0.1566
   44CHL1  H22A 5719   6.485   1.016   9.198 -0.4410  0.3614 -2.8504
   44CHL1  H22B 5720   6.523   0.845   9.184 -0.2793  0.9214 -1.4704
   44CHL1   C23 5721   6.372   0.908   9.049  0.0763 -0.4681  0.3693
   44CHL1  H23A 5722   6.361   0.802   9.018  0.1410 -0.0434 -1.1940
   44CHL1  H23B 5723   6.265   0.936   9.049 -0.7545 -3.3207 -0.3802
   44CHL1   C24 5724   6.455   0.995   8.947  0.2531  0.6968 -0.0502
   44CHL1  H24A 5725   6.477   1.091   8.998  3.0664  0.1483 -0.0715
   44CHL1  H24B 5726   6.552   0.944   8.932 -0.1242 -0.6125  1.6389
   44CHL1   C25 5727   6.384   1.036   8.819  0.6877  0.1843 -0.5346
   44CHL1   H25 5728   6.286   1.082   8.839  1.0881  1.5002 -1.4696
   44CHL1   C26 5729   6.475   1.141   8.746  0.5108  0.5480 -0.7370
   44CHL1  H26A 5730   6.546   1.086   8.680 -0.3499  0.4197 -1.5875
   44CHL1  H26B 5731   6.417   1.214   8.686 -1.9953 -1.4020 -0.9067
   44CHL1  H26C 5732   6.529   1.204   8.819 -2.5977  0.7316  1.6082
   44CHL1   C27 5733   6.360   0.913   8.730  0.0962 -0.0210  0.0250
   44CHL1  H27A 5734   6.315   0.939   8.631  0.9597  1.3933 -0.0237
   44CHL1  H27B 5735   6.457   0.861   8.719 -1.1683 -2.1279 -2.0495
   44CHL1  H27C 5736   6.288   0.863   8.798  3.6762  0.7856  4.9169
   45CHL1    C3 5737   3.207   4.316  10.298  0.2179 -0.2172 -0.3865
   45CHL1    H3 5738   3.171   4.420  10.310  3.1726  1.1873 -2.6032
   45CHL1    O3 5739   3.225   4.258  10.425  0.3236  0.6433 -0.2533
   45CHL1   H3' 5740   3.251   4.167  10.408 -1.2146  0.3289 -1.1770
   45CHL1    C4 5741   3.108   4.227  10.210 -0.1411  0.0490  1.1019
   45CHL1   H4A 5742   3.141   4.121  10.215 -1.9102 -0.6427 -0.6372
   45CHL1   H4B 5743   3.009   4.243  10.257  0.4029 -0.8615  2.5920
   45CHL1    C5 5744   3.116   4.279  10.067 -0.1572  0.4905  0.2360
   45CHL1    C6 5745   3.006   4.300   9.994  0.5938 -0.7451  0.5000
   45CHL1    H6 5746   2.908   4.295  10.043  1.6295  1.0799  2.9688
   45CHL1    C7 5747   3.000   4.357   9.853  0.0779 -0.1135 -0.5010
   45CHL1   H7A 5748   2.906   4.328   9.803 -0.4747 -0.5585  0.7447
   45CHL1   H7B 5749   2.993   4.465   9.879 -0.2950 -0.6697  1.9715
   45CHL1    C8 5750   3.130   4.348   9.773 -0.7960 -0.2225  0.5515
   45CHL1    H8 5751   3.138   4.425   9.693  2.4284 -0.8820  0.1185
   45CHL1   C14 5752   3.150   4.222   9.680  0.4305 -1.1162 -0.2445
   45CHL1   H14 5753   3.137   4.146   9.760 -3.7707  0.5953  0.9827
   45CHL1   C15 5754   3.044   4.204   9.576  0.2269  0.3046  0.3124
   45CHL1  H15A 5755   3.026   4.096   9.555  0.1648 -0.0249  1.9121
   45CHL1  H15B 5756   2.942   4.238   9.604 -0.6841 -0.3450 -1.9333
   45CHL1   C16 5757   3.103   4.266   9.445  0.5089  0.0893 -0.0759
   45CHL1  H16A 5758   3.094   4.192   9.362  0.2179  1.0418 -0.9159
   45CHL1  H16B 5759   3.041   4.355   9.420  0.9189  1.2882  2.8023
   45CHL1   C17 5760   3.255   4.297   9.470 -0.8130  0.3526 -0.0196
   45CHL1   H17 5761   3.266   4.406   9.492  2.1071  0.2557 -0.5454
   45CHL1   C13 5762   3.286   4.219   9.599 -0.2661  0.5772 -0.3412
   45CHL1   C18 5763   3.303   4.069   9.565 -0.4929 -0.0030 -0.2922
   45CHL1  H18A 5764   3.406   4.052   9.528 -1.1491 -2.2139 -1.2543
   45CHL1  H18B 5765   3.295   4.014   9.661 -0.2168 -2.6714 -1.7156
   45CHL1  H18C 5766   3.227   4.032   9.494 -0.7816  1.6134 -0.8731
   45CHL1   C12 5767   3.403   4.259   9.691  0.8837  0.3845  1.4021
   45CHL1  H12A 5768   3.429   4.172   9.756  1.5670 -1.5176 -1.2617
   45CHL1  H12B 5769   3.494   4.260   9.628  0.0940  1.1176  0.2273
   45CHL1   C11 5770   3.376   4.389   9.773 -0.3626  0.6594 -0.6310
   45CHL1  H11A 5771   3.459   4.407   9.844 -1.1902 -0.1099  0.5587
   45CHL1  H11B 5772   3.368   4.475   9.702  2.5125  0.8134 -0.8716
   45CHL1    C9 5773   3.252   4.378   9.861  0.5715 -0.0814 -0.6213
   45CHL1    H9 5774   3.232   4.483   9.888  0.2665  0.3366 -2.3175
   45CHL1   C10 5775   3.255   4.301  10.001 -0.0091  0.0410  0.2515
   45CHL1   C19 5776   3.331   4.168   9.990 -0.2727  0.5549  0.5267
   45CHL1  H19A 5777   3.292   4.097   9.914 -2.3910  0.8732  1.2522
   45CHL1  H19B 5778   3.435   4.193   9.960 -0.0064 -0.8144  0.2650
   45CHL1  H19C 5779   3.346   4.104  10.080 -2.4117 -0.0103  0.5239
   45CHL1    C1 5780   3.339   4.389  10.108  0.4513 -0.0195  0.4666
   45CHL1   H1A 5781   3.441   4.406  10.067  0.2917 -1.9528 -0.8293
   45CHL1   H1B 5782   3.286   4.486  10.093 -0.2907 -0.8584 -3.1608
   45CHL1    C2 5783   3.347   4.336  10.241  0.5699  0.1329 -0.5002
   45CHL1   H2A 5784   3.409   4.402  10.305  1.4826  0.3975 -1.6136
   45CHL1   H2B 5785   3.406   4.242  10.241  0.7070  0.1873  1.2070
   45CHL1   C20 5786   3.340   4.269   9.341 -0.2160 -0.3969  0.2375
   45CHL1   H20 5787   3.328   4.164   9.307 -2.2586 -0.0398 -0.2594
   45CHL1   C21 5788   3.492   4.292   9.367 -0.0023 -0.5176  0.0457
   45CHL1  H21A 5789   3.536   4.217   9.436 -1.0243 -1.9363 -0.7966
   45CHL1  H21B 5790   3.511   4.399   9.393  0.5693 -0.0563 -2.0458
   45CHL1  H21C 5791   3.554   4.287   9.275  0.8469 -0.9762  0.6244
   45CHL1   C22 5792   3.293   4.346   9.215  0.1461 -0.1040 -0.3262
   45CHL1  H22A 5793   3.183   4.336   9.213  0.0003  0.9813  0.8359
   45CHL1  H22B 5794   3.313   4.454   9.236  0.0266  0.4304 -2.7270
   45CHL1   C23 5795   3.352   4.308   9.081  0.7668 -0.1534  0.0230
   45CHL1  H23A 5796   3.459   4.278   9.083 -0.1904 -4.0383 -0.1070
   45CHL1  H23B 5797   3.307   4.210   9.057 -2.9768  1.7257 -1.4472
   45CHL1   C24 5798   3.311   4.403   8.964  0.2980  0.3363  0.4078
   45CHL1  H24A 5799   3.200   4.407   8.964  0.1736 -1.5049 -0.9190
   45CHL1  H24B 5800   3.335   4.507   8.993  0.1469  0.6857 -0.6786
   45CHL1   C25 5801   3.359   4.365   8.827  0.6837 -0.5961  0.1617
   45CHL1   H25 5802   3.338   4.256   8.823  1.8232 -0.9231  2.0127
   45CHL1   C26 5803   3.266   4.446   8.726 -0.5356 -0.4284  0.2595
   45CHL1  H26A 5804   3.296   4.552   8.736  1.5610 -0.9246 -0.1799
   45CHL1  H26B 5805   3.299   4.419   8.623  0.1759  0.8037  0.1497
   45CHL1  H26C 5806   3.159   4.436   8.752 -0.1770  0.3421  2.2058
   45CHL1   C27 5807   3.511   4.390   8.805  0.3138 -0.4446  0.4153
   45CHL1  H27A 5808   3.531   4.499   8.812  0.2676 -0.4329  0.3684
   45CHL1  H27B 5809   3.575   4.321   8.863  1.1783 -0.9574 -1.0915
   45CHL1  H27C 5810   3.528   4.361   8.699 -0.4614  3.2363 -0.8906
   46CHL1    C3 5811   0.206   3.346  10.108 -0.1535  0.0923 -0.1003
   46CHL1    H3 5812   0.273   3.434  10.094 -0.8833  0.3985 -1.9548
   46CHL1    O3 5813   0.172   3.327  10.242  0.1346  0.8366  0.8768
   46CHL1   H3' 5814   0.079   3.306  10.248  0.2401  0.7045  2.3926
   46CHL1    C4 5815   0.072   3.378  10.026 -0.3009 -0.0736 -0.0728
   46CHL1   H4A 5816  -0.011   3.305  10.041  1.0818 -1.2615  2.4076
   46CHL1   H4B 5817   0.024   3.469  10.069 -1.0444 -1.2374  1.6669
   46CHL1    C5 5818   0.096   3.389   9.879  0.1749 -0.5496  0.2211
   46CHL1    C6 5819   0.066   3.497   9.808  0.6677  0.3342 -0.1927
   46CHL1    H6 5820   0.020   3.581   9.862  0.0652  0.2303 -0.5339
   46CHL1    C7 5821   0.078   3.517   9.661 -0.1358  0.2670  0.5465
   46CHL1   H7A 5822  -0.001   3.573   9.607  0.1098 -0.0071 -0.1049
   46CHL1   H7B 5823   0.171   3.571   9.630  1.2830 -1.7150  1.1141
   46CHL1    C8 5824   0.093   3.382   9.590 -0.0723  0.0544  0.1187
   46CHL1    H8 5825   0.003   3.318   9.583  0.2566 -0.5704  1.4140
   46CHL1   C14 5826   0.130   3.407   9.446  0.6481 -0.0960  0.1498
   46CHL1   H14 5827   0.224   3.465   9.458  1.3863 -0.9540 -1.1832
   46CHL1   C15 5828   0.044   3.495   9.357 -0.0246 -0.1675  0.5443
   46CHL1  H15A 5829  -0.064   3.470   9.355 -0.1097  0.1014  1.2878
   46CHL1  H15B 5830   0.053   3.599   9.394  0.7088  0.0123 -0.1061
   46CHL1   C16 5831   0.105   3.476   9.221  0.3492  0.3318 -0.5361
   46CHL1  H16A 5832   0.027   3.441   9.150  1.5643 -1.1180 -1.2341
   46CHL1  H16B 5833   0.161   3.565   9.186 -0.5784  0.3921 -1.9464
   46CHL1   C17 5834   0.193   3.348   9.229 -0.2922  0.8299  0.1142
   46CHL1   H17 5835   0.296   3.389   9.242  0.2493 -1.2285  4.0464
   46CHL1   C13 5836   0.166   3.282   9.366 -0.2068 -0.1510  0.2019
   46CHL1   C18 5837   0.043   3.190   9.350  0.1848 -0.4811  0.2556
   46CHL1  H18A 5838  -0.038   3.251   9.303  0.1479 -0.6167  0.1420
   46CHL1  H18B 5839   0.070   3.095   9.298  0.2152 -0.3090 -0.0443
   46CHL1  H18C 5840   0.010   3.165   9.453  0.1867  1.5831  0.8049
   46CHL1   C12 5841   0.280   3.198   9.432  0.0435 -0.6428  0.2227
   46CHL1  H12A 5842   0.285   3.102   9.377  1.4214 -0.6840  0.3730
   46CHL1  H12B 5843   0.375   3.254   9.419  0.3239 -1.2593 -0.3918
   46CHL1   C11 5844   0.262   3.171   9.579  0.2026 -0.0803 -0.4348
   46CHL1  H11A 5845   0.185   3.090   9.587 -0.3796  0.6039  1.3073
   46CHL1  H11B 5846   0.354   3.136   9.629  0.5663  0.8408 -0.4432
   46CHL1    C9 5847   0.210   3.299   9.657  0.8503 -0.1649  0.7457
   46CHL1    H9 5848   0.297   3.369   9.648  0.0453  0.6420 -1.5100
   46CHL1   C10 5849   0.167   3.271   9.804 -0.1964 -0.9066  0.0871
   46CHL1   C19 5850   0.068   3.150   9.808 -0.2996 -0.5601  0.9079
   46CHL1  H19A 5851  -0.009   3.163   9.730  0.6774  2.5178  0.3249
   46CHL1  H19B 5852   0.128   3.061   9.778  1.7029  0.9723  0.1027
   46CHL1  H19C 5853   0.015   3.120   9.901 -0.6785 -0.2070  0.8062
   46CHL1    C1 5854   0.294   3.236   9.889  0.2998 -0.0783 -0.2208
   46CHL1   H1A 5855   0.331   3.143   9.841 -1.3594  0.4975 -2.7846
   46CHL1   H1B 5856   0.367   3.318   9.873  0.7038 -0.4974 -0.5610
   46CHL1    C2 5857   0.267   3.219  10.044  0.0696 -0.1612  0.9183
   46CHL1   H2A 5858   0.357   3.192  10.104  0.6180 -0.5020 -0.0341
   46CHL1   H2B 5859   0.201   3.135  10.073 -0.5351  0.5886  1.7656
   46CHL1   C20 5860   0.196   3.265   9.099  0.4935 -0.1550 -0.8301
   46CHL1   H20 5861   0.093   3.225   9.092  1.1080 -2.2970  0.9732
   46CHL1   C21 5862   0.297   3.154   9.114  0.2087  0.4373 -0.0901
   46CHL1  H21A 5863   0.311   3.095   9.021  0.5244  0.4148 -0.0299
   46CHL1  H21B 5864   0.263   3.074   9.182 -1.2339 -0.1279 -1.3953
   46CHL1  H21C 5865   0.396   3.189   9.151  0.5310  0.0250 -0.5528
   46CHL1   C22 5866   0.243   3.351   8.975 -0.5055  0.3027 -0.5591
   46CHL1  H22A 5867   0.193   3.449   8.960  1.5531  2.0126  2.7166
   46CHL1  H22B 5868   0.350   3.375   8.990 -0.2940 -0.6775 -0.4618
   46CHL1   C23 5869   0.235   3.280   8.841 -0.1514  0.3478  0.4432
   46CHL1  H23A 5870   0.290   3.183   8.840 -1.2772 -0.3314 -0.9103
   46CHL1  H23B 5871   0.126   3.265   8.822 -0.1539  0.2544  0.5329
   46CHL1   C24 5872   0.274   3.372   8.728 -1.4422 -0.7690 -0.0622
   46CHL1  H24A 5873   0.192   3.445   8.709 -0.1840  1.2176  1.6423
   46CHL1  H24B 5874   0.367   3.422   8.764 -0.3861 -1.7155 -1.4296
   46CHL1   C25 5875   0.305   3.296   8.598 -0.1783 -0.2431  1.1601
   46CHL1   H25 5876   0.355   3.202   8.632 -0.9756 -0.8581  0.6656
   46CHL1   C26 5877   0.180   3.271   8.519  0.3609  0.5459 -0.1539
   46CHL1  H26A 5878   0.113   3.202   8.575  0.7592  0.1218 -0.1882
   46CHL1  H26B 5879   0.124   3.361   8.487  1.3178  1.1903 -0.0463
   46CHL1  H26C 5880   0.205   3.214   8.427 -0.0834 -0.4679  0.3327
   46CHL1   C27 5881   0.407   3.377   8.520 -0.1479 -0.8011  0.1891
   46CHL1  H27A 5882   0.367   3.476   8.490  2.1960 -0.9727 -4.3703
   46CHL1  H27B 5883   0.505   3.397   8.570 -0.0656  2.0829 -0.9055
   46CHL1  H27C 5884   0.440   3.340   8.421  0.1380  0.4017 -0.1850
   47CHL1    C3 5885   1.324   6.031  10.260 -0.6247  0.1427 -0.7480
   47CHL1    H3 5886   1.341   5.928  10.223  0.6609  0.9986 -2.7783
   47CHL1    O3 5887   1.306   6.040  10.403  0.1485 -0.0556  1.1718
   47CHL1   H3' 5888   1.219   6.002  10.416  0.5272 -1.3303  0.2863
   47CHL1    C4 5889   1.454   6.105  10.228 -0.2703  0.1282  0.6876
   47CHL1   H4A 5890   1.450   6.210  10.266  0.8852  0.7146 -0.6984
   47CHL1   H4B 5891   1.538   6.053  10.278  0.1617 -0.4736 -0.6020
   47CHL1    C5 5892   1.467   6.106  10.074 -0.1456  0.5825  0.4258
   47CHL1    C6 5893   1.581   6.056  10.028  0.6987 -0.1888 -0.5714
   47CHL1    H6 5894   1.656   6.015  10.097  0.9375  0.9595 -0.1171
   47CHL1    C7 5895   1.619   6.047   9.878  0.3879  0.0859 -1.2191
   47CHL1   H7A 5896   1.723   6.086   9.872  0.7677 -0.5827  0.3943
   47CHL1   H7B 5897   1.615   5.941   9.845 -3.5192  0.7764 -3.5590
   47CHL1    C8 5898   1.523   6.132   9.788  0.0562  0.5007  1.2599
   47CHL1    H8 5899   1.557   6.238   9.793 -0.5430  0.7081  0.9788
   47CHL1   C14 5900   1.531   6.085   9.637 -0.1676 -0.2103 -0.2993
   47CHL1   H14 5901   1.477   5.988   9.639 -0.3889 -0.0815  0.5950
   47CHL1   C15 5902   1.665   6.060   9.576 -0.7412  0.0235  0.2393
   47CHL1  H15A 5903   1.730   6.139   9.620  1.0574 -1.5638  0.5920
   47CHL1  H15B 5904   1.691   5.961   9.619  0.8473  0.8524  1.2978
   47CHL1   C16 5905   1.643   6.074   9.424 -0.0493 -0.1727  0.5076
   47CHL1  H16A 5906   1.693   6.163   9.380  1.1966 -0.5522  1.1083
   47CHL1  H16B 5907   1.683   5.987   9.367  2.8807  1.4773 -0.1505
   47CHL1   C17 5908   1.489   6.101   9.406  0.4136 -0.0742  0.0503
   47CHL1   H17 5909   1.449   5.997   9.401  0.3123 -0.0143 -0.3754
   47CHL1   C13 5910   1.433   6.156   9.546  0.2907  0.8972  0.2520
   47CHL1   C18 5911   1.471   6.304   9.548 -0.4477 -0.1377  0.2128
   47CHL1  H18A 5912   1.572   6.320   9.506 -0.0357 -1.2243  0.7616
   47CHL1  H18B 5913   1.389   6.360   9.498  0.9200  1.1830 -0.6364
   47CHL1  H18C 5914   1.457   6.350   9.648  0.4069  0.0514  0.2545
   47CHL1   C12 5915   1.285   6.123   9.586 -0.4317  0.2415  0.1918
   47CHL1  H12A 5916   1.212   6.169   9.517 -0.7033  3.6622  2.5112
   47CHL1  H12B 5917   1.266   6.014   9.579  0.6626  0.1763 -3.5420
   47CHL1   C11 5918   1.267   6.173   9.729 -0.6243  0.7070 -0.0757
   47CHL1  H11A 5919   1.269   6.284   9.730 -1.1036  0.7480  2.1161
   47CHL1  H11B 5920   1.167   6.134   9.759 -0.1943  0.9643  1.8271
   47CHL1    C9 5921   1.377   6.122   9.834  0.1839  0.4142  0.4384
   47CHL1    H9 5922   1.369   6.012   9.831 -1.9306  0.5145  0.9060
   47CHL1   C10 5923   1.355   6.153   9.984  0.2134 -0.3602 -0.0542
   47CHL1   C19 5924   1.347   6.313   9.994  0.1199  0.4080  0.1690
   47CHL1  H19A 5925   1.365   6.350  10.097 -0.2610  3.8212 -0.8648
   47CHL1  H19B 5926   1.434   6.346   9.934 -0.6652 -0.4149 -1.4906
   47CHL1  H19C 5927   1.251   6.357   9.960 -1.5163  0.8280  4.6129
   47CHL1    C1 5928   1.218   6.098  10.035  0.1093 -0.8167  0.1849
   47CHL1   H1A 5929   1.134   6.162  10.001  0.2384  0.5580  2.2441
   47CHL1   H1B 5930   1.208   6.000   9.983 -2.0968  0.3851 -1.8373
   47CHL1    C2 5931   1.204   6.091  10.191  0.3630  0.4119 -0.1464
   47CHL1   H2A 5932   1.113   6.034  10.218  0.5204  0.5814  0.7816
   47CHL1   H2B 5933   1.186   6.192  10.234  4.0150  0.2430  2.2627
   47CHL1   C20 5934   1.441   6.171   9.272 -0.0455 -0.2375 -0.3377
   47CHL1   H20 5935   1.486   6.271   9.254 -1.0983  0.2088 -0.5619
   47CHL1   C21 5936   1.292   6.196   9.277 -0.3972 -0.0505  0.0440
   47CHL1  H21A 5937   1.228   6.107   9.296 -0.9557 -0.0280 -1.5988
   47CHL1  H21B 5938   1.254   6.243   9.184 -1.0609 -1.1352 -0.2453
   47CHL1  H21C 5939   1.273   6.273   9.355 -2.0739 -1.0271  0.6503
   47CHL1   C22 5940   1.496   6.084   9.156  0.0814  0.2469  0.1926
   47CHL1  H22A 5941   1.607   6.084   9.149  0.0203 -1.2658 -1.8356
   47CHL1  H22B 5942   1.455   5.981   9.160  1.3834 -0.2871  0.1585
   47CHL1   C23 5943   1.459   6.146   9.013  0.2626  0.2228 -1.1077
   47CHL1  H23A 5944   1.351   6.172   9.021  0.8784  2.3510  3.0500
   47CHL1  H23B 5945   1.507   6.246   9.010 -2.6336  1.8503  1.2976
   47CHL1   C24 5946   1.491   6.064   8.888  0.2213  0.7810 -0.8302
   47CHL1  H24A 5947   1.439   5.969   8.911 -2.0056  2.6223  2.6506
   47CHL1  H24B 5948   1.443   6.108   8.798 -0.3065  1.4997 -0.2006
   47CHL1   C25 5949   1.641   6.024   8.858 -0.0308 -0.2404  0.1861
   47CHL1   H25 5950   1.677   5.976   8.951 -0.1264 -1.0135 -0.1596
   47CHL1   C26 5951   1.669   5.934   8.739 -0.4429 -0.4027  0.1723
   47CHL1  H26A 5952   1.774   5.897   8.748 -0.3504  0.0160  0.9644
   47CHL1  H26B 5953   1.634   5.991   8.650 -2.1608 -0.6589  0.6645
   47CHL1  H26C 5954   1.611   5.840   8.733  0.6362 -1.0146 -1.4291
   47CHL1   C27 5955   1.728   6.149   8.844  1.2036 -0.4051  0.1704
   47CHL1  H27A 5956   1.730   6.210   8.937 -2.9326 -0.5997  0.5569
   47CHL1  H27B 5957   1.828   6.109   8.817  0.1369 -1.4990 -2.4429
   47CHL1  H27C 5958   1.692   6.213   8.761  2.1946 -0.3828 -0.2564
   48CHL1    C3 5959   1.744   0.249  10.296  0.7616  0.0016 -0.6149
   48CHL1    H3 5960   1.809   0.159  10.300  3.2722  1.7347 -0.5158
   48CHL1    O3 5961   1.679   0.260  10.427 -0.0850  0.4336 -0.0371
   48CHL1   H3' 5962   1.746   0.290  10.490  0.3491 -2.1163  0.8365
   48CHL1    C4 5963   1.842   0.365  10.281 -0.2762  0.3523 -0.0244
   48CHL1   H4A 5964   1.784   0.459  10.287 -0.9108 -0.0573  0.3282
   48CHL1   H4B 5965   1.918   0.352  10.361  0.5846 -2.3141 -1.1605
   48CHL1    C5 5966   1.908   0.372  10.140  0.2028 -0.0817  0.1588
   48CHL1    C6 5967   2.040   0.353  10.124  0.5564  0.3288  1.1434
   48CHL1    H6 5968   2.111   0.334  10.205  2.1572  2.1102  0.2242
   48CHL1    C7 5969   2.106   0.358   9.991  0.0217  0.0080  0.4654
   48CHL1   H7A 5970   2.205   0.408   9.999  0.3906 -0.5264 -0.6169
   48CHL1   H7B 5971   2.131   0.257   9.953  0.2120  0.5059 -0.7708
   48CHL1    C8 5972   2.010   0.425   9.886  0.3934  0.4839 -0.2778
   48CHL1    H8 5973   2.000   0.532   9.915 -0.7164 -0.4312  3.3035
   48CHL1   C14 5974   2.069   0.406   9.742 -0.6124  0.0567 -0.2514
   48CHL1   H14 5975   2.088   0.298   9.723  0.5010  0.3413 -0.8688
   48CHL1   C15 5976   2.208   0.465   9.714  0.2098 -0.2454  0.7812
   48CHL1  H15A 5977   2.218   0.571   9.744  0.4457 -0.0682  0.0890
   48CHL1  H15B 5978   2.289   0.415   9.770  0.8719  0.2888  0.3172
   48CHL1   C16 5979   2.213   0.478   9.561 -0.1181  0.5083  0.5535
   48CHL1  H16A 5980   2.252   0.575   9.523  2.0884 -0.7583 -0.7014
   48CHL1  H16B 5981   2.291   0.414   9.513  0.9210  1.6685  0.6365
   48CHL1   C17 5982   2.072   0.442   9.501 -0.2484 -0.2110  0.0797
   48CHL1   H17 5983   2.080   0.335   9.473  0.1275 -0.2480  0.3213
   48CHL1   C13 5984   1.972   0.449   9.629  0.1780 -0.1436 -0.1687
   48CHL1   C18 5985   1.926   0.604   9.643  1.0726 -0.1106 -0.2553
   48CHL1  H18A 5986   1.887   0.621   9.746 -0.9318  0.3341 -1.0411
   48CHL1  H18B 5987   2.007   0.674   9.612 -0.3566  1.2887 -0.9923
   48CHL1  H18C 5988   1.843   0.608   9.569  0.6531  0.6237  0.2425
   48CHL1   C12 5989   1.848   0.356   9.630 -0.5426 -1.0228 -0.2601
   48CHL1  H12A 5990   1.789   0.381   9.540  0.3888 -1.6440 -1.0610
   48CHL1  H12B 5991   1.867   0.246   9.628 -1.3044 -1.2241  1.3749
   48CHL1   C11 5992   1.773   0.379   9.760  0.0753 -0.9161  0.8881
   48CHL1  H11A 5993   1.727   0.479   9.771  3.0094  0.3808  2.6962
   48CHL1  H11B 5994   1.685   0.312   9.753 -0.4167 -0.1388 -0.6077
   48CHL1    C9 5995   1.870   0.352   9.889 -0.0174  0.1967  0.1908
   48CHL1    H9 5996   1.892   0.246   9.865 -1.9826 -0.2350  0.2142
   48CHL1   C10 5997   1.805   0.368  10.027 -0.0383 -0.3853 -0.0872
   48CHL1   C19 5998   1.731   0.507  10.029  0.1587  0.0022  0.0590
   48CHL1  H19A 5999   1.684   0.519  10.129  0.2346  0.2218  0.0693
   48CHL1  H19B 6000   1.806   0.585  10.004 -1.1450  1.2287 -0.1344
   48CHL1  H19C 6001   1.641   0.517   9.965  0.9507 -0.6513 -1.2080
   48CHL1    C1 6002   1.712   0.245  10.049 -0.0581 -0.1821  0.2195
   48CHL1   H1A 6003   1.639   0.236   9.965  0.4010 -1.0429 -0.0981
   48CHL1   H1B 6004   1.780   0.157  10.046  1.2135  0.8010 -1.3591
   48CHL1    C2 6005   1.642   0.244  10.188 -0.3087  0.4218  0.3426
   48CHL1   H2A 6006   1.579   0.153  10.197 -1.0277  1.0529  2.2979
   48CHL1   H2B 6007   1.572   0.329  10.202 -2.0661 -0.9729  0.4363
   48CHL1   C20 6008   2.043   0.520   9.367 -0.5356 -0.7158  0.3373
   48CHL1   H20 6009   2.019   0.626   9.387 -1.9284 -1.0760  0.7016
   48CHL1   C21 6010   1.912   0.450   9.317  0.8165 -0.5981  0.5060
   48CHL1  H21A 6011   1.869   0.493   9.224 -0.1758  1.0623  1.6691
   48CHL1  H21B 6012   1.836   0.476   9.395 -0.8696 -0.8052 -1.0022
   48CHL1  H21C 6013   1.924   0.340   9.309  1.1698 -0.5242  0.0179
   48CHL1   C22 6014   2.158   0.527   9.258  0.2629 -0.4861 -0.5174
   48CHL1  H22A 6015   2.254   0.555   9.307 -0.7618  0.5986  0.9452
   48CHL1  H22B 6016   2.170   0.422   9.221  1.7190 -0.5365  0.0152
   48CHL1   C23 6017   2.114   0.621   9.140 -0.4859  0.4029 -0.5850
   48CHL1  H23A 6018   2.014   0.585   9.108 -0.3318 -1.4803  0.8708
   48CHL1  H23B 6019   2.102   0.715   9.198 -2.6443 -0.9034  1.2695
   48CHL1   C24 6020   2.211   0.623   9.032  0.0628  1.3252  0.8815
   48CHL1  H24A 6021   2.291   0.689   9.072  2.0885 -0.2573 -0.3915
   48CHL1  H24B 6022   2.255   0.525   9.005 -0.2009  1.8632 -1.7301
   48CHL1   C25 6023   2.185   0.688   8.889 -0.4540  0.1378  0.2793
   48CHL1   H25 6024   2.113   0.629   8.829  1.7402 -1.9061 -0.4987
   48CHL1   C26 6025   2.126   0.831   8.908 -0.1564 -0.0063 -0.4286
   48CHL1  H26A 6026   2.047   0.818   8.985  1.8217 -1.9577  1.4428
   48CHL1  H26B 6027   2.209   0.901   8.930  1.2632 -1.3317 -1.3978
   48CHL1  H26C 6028   2.090   0.873   8.811 -1.9835 -1.6628 -0.5310
   48CHL1   C27 6029   2.318   0.706   8.811  0.9084  0.8277  0.4325
   48CHL1  H27A 6030   2.362   0.606   8.793 -1.7193 -0.1184 -1.3437
   48CHL1  H27B 6031   2.294   0.754   8.714 -1.4584 -2.0103 -0.5222
   48CHL1  H27C 6032   2.384   0.764   8.879  0.9778 -0.6795  1.7082
   49CHL1    C3 6033   5.134   2.600  10.248  0.9829  0.3792 -0.2718
   49CHL1    H3 6034   5.026   2.582  10.227  0.1246 -0.4223  3.8649
   49CHL1    O3 6035   5.142   2.604  10.389  0.0004  0.0529  0.2557
   49CHL1   H3' 6036   5.225   2.567  10.419  1.3988  2.4983 -0.3528
   49CHL1    C4 6037   5.221   2.479  10.204 -0.6053  0.1232 -0.2683
   49CHL1   H4A 6038   5.324   2.489  10.243 -0.4365 -1.0999 -0.3567
   49CHL1   H4B 6039   5.178   2.387  10.249 -0.5989 -0.5804 -1.6643
   49CHL1    C5 6040   5.221   2.461  10.054 -0.0064 -0.4962  0.6565
   49CHL1    C6 6041   5.175   2.348   9.997 -0.6498  0.4149  0.2626
   49CHL1    H6 6042   5.140   2.277  10.074 -1.3847  1.0902  0.5596
   49CHL1    C7 6043   5.162   2.325   9.851  0.4485  0.0062 -0.3332
   49CHL1   H7A 6044   5.212   2.229   9.826 -2.2537 -1.2290 -1.4422
   49CHL1   H7B 6045   5.053   2.317   9.829  0.2226 -0.0568  0.7365
   49CHL1    C8 6046   5.226   2.435   9.766 -0.1790  0.3084  0.4299
   49CHL1    H8 6047   5.333   2.407   9.770 -0.3997 -1.2170 -2.1546
   49CHL1   C14 6048   5.183   2.426   9.618  0.4383  0.7492 -0.2269
   49CHL1   H14 6049   5.074   2.447   9.622  0.6224  1.7440 -0.2118
   49CHL1   C15 6050   5.184   2.287   9.545  0.6482  0.3800 -0.0643
   49CHL1  H15A 6051   5.265   2.224   9.588  0.9075  0.5561 -0.2976
   49CHL1  H15B 6052   5.089   2.234   9.567  0.7436 -0.3483 -1.3501
   49CHL1   C16 6053   5.197   2.325   9.397  0.2411  0.6375 -0.7899
   49CHL1  H16A 6054   5.297   2.284   9.371 -0.2099 -0.5835 -0.6551
   49CHL1  H16B 6055   5.120   2.274   9.337 -2.3847  1.3507  1.7451
   49CHL1   C17 6056   5.200   2.478   9.390  0.3351  0.1833 -0.1089
   49CHL1   H17 6057   5.092   2.502   9.398  0.1075 -1.3107  2.5456
   49CHL1   C13 6058   5.251   2.524   9.533  0.5515 -0.1349  0.6657
   49CHL1   C18 6059   5.401   2.502   9.538 -0.5498  0.0674 -0.1750
   49CHL1  H18A 6060   5.447   2.587   9.483 -1.1376  1.0430  0.7990
   49CHL1  H18B 6061   5.446   2.516   9.639 -1.8240  2.8905  0.0908
   49CHL1  H18C 6062   5.429   2.404   9.495 -2.2653 -0.4185 -0.2730
   49CHL1   C12 6063   5.218   2.671   9.575  0.3396  0.1772  0.2779
   49CHL1  H12A 6064   5.272   2.737   9.503  1.7896 -2.0335 -0.8021
   49CHL1  H12B 6065   5.108   2.678   9.564  0.3141  0.6851  0.8124
   49CHL1   C11 6066   5.257   2.686   9.724 -0.1596 -0.3367 -0.0961
   49CHL1  H11A 6067   5.367   2.699   9.736 -0.3630 -0.5022  2.6683
   49CHL1  H11B 6068   5.228   2.787   9.760  0.0785 -0.5284  0.6724
   49CHL1    C9 6069   5.205   2.575   9.820 -0.5363 -0.0265 -0.1572
   49CHL1    H9 6070   5.094   2.584   9.820 -0.5295  0.0928 -0.7756
   49CHL1   C10 6071   5.250   2.592   9.969  0.0427  0.3123 -0.0378
   49CHL1   C19 6072   5.404   2.601   9.985  0.9607 -0.7097  0.5823
   49CHL1  H19A 6073   5.441   2.695   9.940 -1.7997 -0.8784 -2.3540
   49CHL1  H19B 6074   5.432   2.595  10.093 -1.7658  0.8973  1.4598
   49CHL1  H19C 6075   5.458   2.519   9.933  0.7984 -1.1529  1.1032
   49CHL1    C1 6076   5.177   2.721  10.026  1.0781  0.8684 -0.3885
   49CHL1   H1A 6077   5.209   2.813   9.972 -0.5006  2.3340  1.0319
   49CHL1   H1B 6078   5.070   2.699  10.008  0.9997 -0.8285  1.7447
   49CHL1    C2 6079   5.188   2.726  10.179 -0.2325  0.2752 -0.0235
   49CHL1   H2A 6080   5.144   2.820  10.220 -1.5990 -1.0490  1.7001
   49CHL1   H2B 6081   5.296   2.727  10.207 -0.4644  2.0822  0.9732
   49CHL1   C20 6082   5.267   2.526   9.264 -0.1107 -0.2875 -0.2469
   49CHL1   H20 6083   5.378   2.524   9.270 -0.1118 -0.4131 -0.2809
   49CHL1   C21 6084   5.222   2.671   9.219 -0.0884  0.0938 -0.4178
   49CHL1  H21A 6085   5.232   2.738   9.307 -3.5528  0.2586 -0.0028
   49CHL1  H21B 6086   5.119   2.678   9.180 -0.3579 -2.1731 -0.2435
   49CHL1  H21C 6087   5.293   2.710   9.143  0.8820  2.8926  1.7056
   49CHL1   C22 6088   5.250   2.441   9.130 -0.2347 -0.0335 -0.6080
   49CHL1  H22A 6089   5.311   2.496   9.055 -0.8862  0.4173 -0.8128
   49CHL1  H22B 6090   5.293   2.340   9.148  0.0909  0.3486  0.9004
   49CHL1   C23 6091   5.105   2.426   9.086 -0.2517 -0.2807  0.2957
   49CHL1  H23A 6092   5.038   2.412   9.173 -2.5033 -0.4079 -1.3476
   49CHL1  H23B 6093   5.080   2.522   9.036 -0.9234 -1.1129 -1.0627
   49CHL1   C24 6094   5.082   2.312   8.984  0.6193 -0.4518  0.9720
   49CHL1  H24A 6095   5.119   2.221   9.035  2.3803  1.1628  2.7135
   49CHL1  H24B 6096   4.973   2.301   8.964  0.3070  0.9073  1.8359
   49CHL1   C25 6097   5.161   2.329   8.851  0.2545  0.3127  0.3034
   49CHL1   H25 6098   5.271   2.321   8.864  0.1871 -0.4719  0.4304
   49CHL1   C26 6099   5.126   2.215   8.761 -0.2701 -0.0352  0.0658
   49CHL1  H26A 6100   5.022   2.218   8.723 -0.9745 -0.5623  1.8519
   49CHL1  H26B 6101   5.180   2.217   8.664  1.8423  0.0301  1.1768
   49CHL1  H26C 6102   5.150   2.115   8.803  1.4376  1.2880  2.5008
   49CHL1   C27 6103   5.130   2.466   8.781  0.2425 -0.0459 -1.0796
   49CHL1  H27A 6104   5.153   2.472   8.672  1.4041 -0.2739 -0.8693
   49CHL1  H27B 6105   5.022   2.487   8.793  0.5607  1.1994 -0.1293
   49CHL1  H27C 6106   5.186   2.547   8.832  1.5276 -1.0394 -0.8487
   50CHL1    C3 6107   1.765   4.667  10.087 -0.1665 -0.3232 -0.1380
   50CHL1    H3 6108   1.766   4.772  10.053 -1.2509 -0.8483 -1.9450
   50CHL1    O3 6109   1.695   4.656  10.211  0.1756 -1.0392 -0.5162
   50CHL1   H3' 6110   1.601   4.658  10.190  0.2218  0.2876 -0.6506
   50CHL1    C4 6111   1.690   4.596   9.982  0.0142  0.6541 -0.1265
   50CHL1   H4A 6112   1.675   4.495  10.026 -0.2917  0.1715 -1.2980
   50CHL1   H4B 6113   1.585   4.631   9.976 -0.7082 -1.1639  1.0543
   50CHL1    C5 6114   1.756   4.596   9.848 -0.4938  0.3549  0.5256
   50CHL1    C6 6115   1.698   4.659   9.747 -0.1901  0.2419  0.6732
   50CHL1    H6 6116   1.605   4.714   9.767 -0.2182  0.4209  0.0952
   50CHL1    C7 6117   1.753   4.649   9.605  0.2173  0.2752 -0.3955
   50CHL1   H7A 6118   1.668   4.625   9.537 -0.6175  1.0279  0.3533
   50CHL1   H7B 6119   1.789   4.748   9.573 -0.8288  0.6095 -0.5754
   50CHL1    C8 6120   1.856   4.536   9.592 -0.5800 -0.3540 -0.1542
   50CHL1    H8 6121   1.807   4.437   9.585 -1.8844 -0.0492  3.1063
   50CHL1   C14 6122   1.927   4.556   9.457  0.5684  0.5047 -0.7514
   50CHL1   H14 6123   1.970   4.659   9.452  0.5149  0.5429 -0.4034
   50CHL1   C15 6124   1.845   4.551   9.326  0.3079 -0.5766  0.1585
   50CHL1  H15A 6125   1.778   4.463   9.338 -0.0343 -0.6547 -1.9940
   50CHL1  H15B 6126   1.779   4.637   9.301  0.6784 -0.3844 -0.1667
   50CHL1   C16 6127   1.945   4.536   9.210 -0.2544 -0.0386  0.2328
   50CHL1  H16A 6128   1.909   4.443   9.160 -1.2334  0.7009 -0.4644
   50CHL1  H16B 6129   1.960   4.621   9.141  1.7994 -1.2844 -0.9410
   50CHL1   C17 6130   2.079   4.514   9.287  0.4275 -0.3727 -0.6611
   50CHL1   H17 6131   2.122   4.614   9.311 -1.3331 -0.1683  2.1477
   50CHL1   C13 6132   2.042   4.463   9.434  0.6476  0.1072  0.9693
   50CHL1   C18 6133   1.996   4.320   9.428 -0.1713  0.1702 -0.3599
   50CHL1  H18A 6134   1.930   4.297   9.341 -0.2519  0.3938 -0.3588
   50CHL1  H18B 6135   2.086   4.255   9.419 -0.9659 -0.6645 -4.5539
   50CHL1  H18C 6136   1.953   4.287   9.525  0.0607  0.7562 -0.0503
   50CHL1   C12 6137   2.144   4.479   9.547  0.2092  0.0389 -0.9149
   50CHL1  H12A 6138   2.231   4.411   9.538  0.6077  0.0477  2.0299
   50CHL1  H12B 6139   2.170   4.587   9.557 -1.2166  0.3187  0.0820
   50CHL1   C11 6140   2.081   4.444   9.682  0.5073 -0.3530 -0.1856
   50CHL1  H11A 6141   2.054   4.337   9.681  0.4546 -0.3410 -0.0813
   50CHL1  H11B 6142   2.153   4.467   9.763 -1.5736 -2.2668  2.3803
   50CHL1    C9 6143   1.959   4.538   9.708 -0.0298 -0.0680 -0.7861
   50CHL1    H9 6144   2.009   4.637   9.719  2.0435 -1.3078  2.2328
   50CHL1   C10 6145   1.896   4.521   9.846  0.5613  0.5107 -0.9477
   50CHL1   C19 6146   1.875   4.372   9.871  0.0263 -0.2202  0.1920
   50CHL1  H19A 6147   1.969   4.314   9.883 -0.8406 -2.1453 -1.7656
   50CHL1  H19B 6148   1.825   4.354   9.969  1.0495  0.6238  0.9040
   50CHL1  H19C 6149   1.820   4.324   9.788  0.8480 -0.2580 -0.3369
   50CHL1    C1 6150   1.974   4.592   9.962  0.1505  0.0586 -0.5123
   50CHL1   H1A 6151   2.060   4.526   9.984 -0.5185 -1.6873 -2.7172
   50CHL1   H1B 6152   2.006   4.694   9.930 -2.1536  0.6034 -1.3339
   50CHL1    C2 6153   1.903   4.606  10.098 -0.4392  0.5321  0.6903
   50CHL1   H2A 6154   1.953   4.672  10.171 -0.1664 -0.2064  1.1738
   50CHL1   H2B 6155   1.897   4.506  10.146  3.2493 -0.5800 -0.8387
   50CHL1   C20 6156   2.182   4.435   9.208  0.4730 -0.6823  0.1817
   50CHL1   H20 6157   2.146   4.330   9.200 -0.3671 -0.4367  0.5675
   50CHL1   C21 6158   2.316   4.426   9.282 -0.3813  0.3648  0.2396
   50CHL1  H21A 6159   2.314   4.350   9.364 -0.0645 -0.6781 -0.6998
   50CHL1  H21B 6160   2.350   4.511   9.345 -2.3371 -0.2683  2.2681
   50CHL1  H21C 6161   2.404   4.395   9.222 -1.7587  1.6182 -2.6127
   50CHL1   C22 6162   2.206   4.483   9.061  0.3034 -0.2191  0.4203
   50CHL1  H22A 6163   2.292   4.424   9.021 -0.2878  1.2833 -3.5505
   50CHL1  H22B 6164   2.124   4.454   8.992  0.4279 -2.1519  1.0219
   50CHL1   C23 6165   2.247   4.625   9.048 -0.1842 -0.4331 -0.1481
   50CHL1  H23A 6166   2.172   4.704   9.069  1.4384  0.8207  1.2061
   50CHL1  H23B 6167   2.325   4.650   9.123 -1.1424  0.8478  0.4584
   50CHL1   C24 6168   2.310   4.654   8.907 -0.2622  0.3681  0.1629
   50CHL1  H24A 6169   2.345   4.759   8.915 -0.0684  0.2318  1.3171
   50CHL1  H24B 6170   2.398   4.588   8.893  1.9158  2.4023  3.0603
   50CHL1   C25 6171   2.209   4.656   8.787  0.4959  0.2257 -0.1668
   50CHL1   H25 6172   2.165   4.554   8.781  0.0386  0.4336 -0.3384
   50CHL1   C26 6173   2.092   4.750   8.812  0.6949  0.1087  0.3227
   50CHL1  H26A 6174   2.027   4.749   8.722  1.9990 -0.3497 -0.6468
   50CHL1  H26B 6175   2.036   4.728   8.906 -1.6780  1.7418 -0.6307
   50CHL1  H26C 6176   2.122   4.856   8.826 -1.7528  0.6992  1.7253
   50CHL1   C27 6177   2.284   4.698   8.654  0.7662  0.3086  0.2913
   50CHL1  H27A 6178   2.366   4.627   8.631  0.0664 -0.5530  0.4106
   50CHL1  H27B 6179   2.207   4.715   8.576  0.3610 -3.0091 -0.1683
   50CHL1  H27C 6180   2.326   4.799   8.676  0.9138 -0.0942  2.0325
   51CHL1    C3 6181   2.942   6.218  10.415 -0.0584 -0.5621  0.4438
   51CHL1    H3 6182   2.834   6.209  10.393 -0.3087 -1.3611  1.9375
   51CHL1    O3 6183   2.966   6.157  10.540  0.3083  0.0908  0.2645
   51CHL1   H3' 6184   3.055   6.182  10.565 -0.0607  0.4852  1.2349
   51CHL1    C4 6185   3.016   6.136  10.304  0.0336  0.4317  0.4346
   51CHL1   H4A 6186   3.122   6.121  10.333 -0.4704 -2.0526  1.2108
   51CHL1   H4B 6187   2.985   6.030  10.314  1.4271 -0.3091 -2.0734
   51CHL1    C5 6188   2.997   6.192  10.164 -0.5783 -0.2137  0.7074
   51CHL1    C6 6189   2.939   6.115  10.070  0.2725 -0.1554 -0.3494
   51CHL1    H6 6190   2.913   6.015  10.108 -0.7668  0.6441  1.1041
   51CHL1    C7 6191   2.901   6.164   9.933 -0.1562 -0.7552  1.0956
   51CHL1   H7A 6192   2.941   6.088   9.863  2.6669  2.7117 -1.4329
   51CHL1   H7B 6193   2.793   6.181   9.918 -0.1892  0.6506  2.5609
   51CHL1    C8 6194   2.977   6.295   9.895  0.0512 -0.1273 -0.5549
   51CHL1    H8 6195   3.080   6.260   9.872 -0.2303 -0.9001 -0.7075
   51CHL1   C14 6196   2.917   6.360   9.770  0.1835 -0.1281  0.6669
   51CHL1   H14 6197   2.814   6.385   9.804 -0.1353  0.0386 -0.4047
   51CHL1   C15 6198   2.892   6.267   9.645 -0.5875 -0.4177 -0.9374
   51CHL1  H15A 6199   2.988   6.215   9.625  0.2081  0.5902  0.0982
   51CHL1  H15B 6200   2.803   6.203   9.662 -1.1767  0.8111  0.9954
   51CHL1   C16 6201   2.877   6.367   9.533  0.3668 -0.4777  0.3679
   51CHL1  H16A 6202   2.959   6.359   9.459 -1.0395  2.7679 -1.7465
   51CHL1  H16B 6203   2.784   6.355   9.473 -0.3212  1.9788  0.8313
   51CHL1   C17 6204   2.896   6.511   9.598  0.1429  0.1730  0.3392
   51CHL1   H17 6205   2.798   6.541   9.641  1.0244 -0.5223  3.0266
   51CHL1   C13 6206   2.980   6.487   9.720  0.4161 -0.1273  0.1632
   51CHL1   C18 6207   3.130   6.487   9.685  0.3440  0.6102  0.2183
   51CHL1  H18A 6208   3.157   6.419   9.602  1.3855  2.8924 -1.4057
   51CHL1  H18B 6209   3.182   6.583   9.667  1.0245  0.4140  1.0691
   51CHL1  H18C 6210   3.187   6.442   9.770  2.0884  1.7330 -0.3082
   51CHL1   C12 6211   2.962   6.587   9.846  0.4287  0.1281  0.3532
   51CHL1  H12A 6212   3.003   6.689   9.828  0.8318 -0.4128 -2.1037
   51CHL1  H12B 6213   2.851   6.597   9.856 -0.0742 -2.7614 -1.2424
   51CHL1   C11 6214   3.024   6.540   9.979 -0.5485 -0.0727 -0.3756
   51CHL1  H11A 6215   3.133   6.542   9.956 -0.2040 -2.2368  0.8580
   51CHL1  H11B 6216   2.993   6.614  10.056  0.3415  0.2548 -0.3240
   51CHL1    C9 6217   2.977   6.393  10.014  0.0521 -0.5830  0.1024
   51CHL1    H9 6218   2.872   6.403  10.047  0.1318 -1.3633  0.6324
   51CHL1   C10 6219   3.043   6.336  10.140  0.1905  0.4526 -0.8118
   51CHL1   C19 6220   3.197   6.337  10.128 -0.0560  0.5351  0.8410
   51CHL1  H19A 6221   3.229   6.441  10.103 -1.8466  0.8439 -0.3152
   51CHL1  H19B 6222   3.242   6.301  10.223 -0.2146 -0.3108  0.6034
   51CHL1  H19C 6223   3.222   6.269  10.044  0.4286  0.3392  1.1406
   51CHL1    C1 6224   2.996   6.427  10.257  1.1745 -0.2476  0.0262
   51CHL1   H1A 6225   3.055   6.521  10.261 -0.6212  1.0055 -1.1116
   51CHL1   H1B 6226   2.887   6.447  10.245  0.7492 -1.1401  1.9771
   51CHL1    C2 6227   3.002   6.359  10.394 -0.1807 -0.7421 -1.2122
   51CHL1   H2A 6228   2.950   6.418  10.473 -0.7680 -1.3152 -1.1636
   51CHL1   H2B 6229   3.108   6.355  10.426  0.7214  2.0766 -3.3575
   51CHL1   C20 6230   2.917   6.627   9.502  0.1464  0.0390  0.7667
   51CHL1   H20 6231   3.018   6.600   9.466 -0.0173 -0.8641  0.9406
   51CHL1   C21 6232   2.930   6.772   9.576  0.3615 -0.1398  0.0348
   51CHL1  H21A 6233   2.928   6.846   9.493  1.8856  0.5213  0.5549
   51CHL1  H21B 6234   3.024   6.790   9.632  1.1713  1.5668 -1.7533
   51CHL1  H21C 6235   2.841   6.790   9.640  1.4952 -1.2748  2.0228
   51CHL1   C22 6236   2.814   6.636   9.383  0.1047 -0.0456 -0.3722
   51CHL1  H22A 6237   2.795   6.535   9.342  0.6894 -0.7945  1.1489
   51CHL1  H22B 6238   2.718   6.674   9.424  0.9799  1.2278  0.5819
   51CHL1   C23 6239   2.866   6.711   9.260 -0.1251  0.1486  0.0435
   51CHL1  H23A 6240   2.868   6.822   9.261  1.0668  0.1400 -0.1571
   51CHL1  H23B 6241   2.970   6.678   9.240 -0.7112 -1.8628  0.0541
   51CHL1   C24 6242   2.793   6.670   9.132 -0.6144  0.1526  0.3743
   51CHL1  H24A 6243   2.819   6.565   9.107  1.1101  0.7531 -0.4920
   51CHL1  H24B 6244   2.684   6.675   9.155 -0.6061  1.8438  0.1218
   51CHL1   C25 6245   2.826   6.749   9.004  0.8226  0.3032 -0.3197
   51CHL1   H25 6246   2.823   6.856   9.031 -0.6692 -0.4740  3.1190
   51CHL1   C26 6247   2.969   6.709   8.952 -0.2078 -0.1789 -0.4908
   51CHL1  H26A 6248   3.044   6.743   9.026 -0.7304 -1.6103  0.7343
   51CHL1  H26B 6249   2.986   6.601   8.935  0.0417 -0.1072 -0.7129
   51CHL1  H26C 6250   2.981   6.765   8.856  1.3790  0.8248  0.2500
   51CHL1   C27 6251   2.720   6.723   8.896  0.1060  0.3422  0.6857
   51CHL1  H27A 6252   2.751   6.778   8.805 -1.9513 -0.0617 -0.3282
   51CHL1  H27B 6253   2.721   6.619   8.856  1.7708  0.6189 -0.0777
   51CHL1  H27C 6254   2.619   6.764   8.919  0.7428  1.5786  1.3729
   52CHL1    C3 6255   0.824   5.540   9.999 -0.1884  0.3255 -0.3612
   52CHL1    H3 6256   0.797   5.433   9.984  1.0396  0.0616 -0.8593
   52CHL1    O3 6257   0.802   5.587  10.135 -0.0126  0.1448  0.1219
   52CHL1   H3' 6258   0.712   5.619  10.140 -0.5035 -1.3044  1.8454
   52CHL1    C4 6259   0.972   5.561   9.961  0.4180  0.9226  0.3584
   52CHL1   H4A 6260   0.998   5.668   9.979 -0.6238  1.1572  0.5211
   52CHL1   H4B 6261   1.047   5.506  10.022  0.1699 -0.6553 -0.7012
   52CHL1    C5 6262   0.998   5.532   9.815  0.2033  0.3896 -0.2137
   52CHL1    C6 6263   1.097   5.446   9.783 -0.3445  0.6683  0.8565
   52CHL1    H6 6264   1.164   5.391   9.851  1.9967  0.6456 -1.3305
   52CHL1    C7 6265   1.132   5.413   9.640 -0.6433 -0.1582 -0.2874
   52CHL1   H7A 6266   1.242   5.399   9.628 -0.8203 -0.7791 -1.2759
   52CHL1   H7B 6267   1.083   5.316   9.621 -0.0425 -0.3463 -0.9601
   52CHL1    C8 6268   1.080   5.519   9.534 -0.0610  0.1489 -1.0828
   52CHL1    H8 6269   1.144   5.609   9.541 -0.3744  0.2732  0.4211
   52CHL1   C14 6270   1.075   5.459   9.395 -0.2711 -0.7083 -0.8552
   52CHL1   H14 6271   1.007   5.370   9.396 -0.4636 -0.5548  0.0308
   52CHL1   C15 6272   1.205   5.395   9.341  0.0732 -0.5994  0.1811
   52CHL1  H15A 6273   1.285   5.468   9.365 -0.8538 -0.2343  2.4495
   52CHL1  H15B 6274   1.240   5.294   9.369  1.3193  0.3306  2.2725
   52CHL1   C16 6275   1.188   5.397   9.190  1.0934  0.9013  0.1884
   52CHL1  H16A 6276   1.269   5.458   9.145 -0.3967  0.4151 -3.4518
   52CHL1  H16B 6277   1.191   5.294   9.151  0.5303 -0.1356  2.6666
   52CHL1   C17 6278   1.043   5.460   9.163  0.7011 -0.5773 -0.1730
   52CHL1   H17 6279   0.962   5.386   9.180  0.2164 -0.2132 -0.8288
   52CHL1   C13 6280   1.026   5.551   9.285  0.2451  0.1584 -0.5588
   52CHL1   C18 6281   1.122   5.681   9.270  0.5437 -0.2298 -0.0247
   52CHL1  H18A 6282   1.094   5.739   9.180  0.5044 -0.3640 -0.0990
   52CHL1  H18B 6283   1.109   5.756   9.351 -0.5414  0.5939 -0.9291
   52CHL1  H18C 6284   1.229   5.653   9.255  0.2172 -1.7460  0.2670
   52CHL1   C12 6285   0.885   5.598   9.320 -0.1372  0.7329  0.1194
   52CHL1  H12A 6286   0.863   5.683   9.252  1.8561  2.4327  1.4700
   52CHL1  H12B 6287   0.814   5.513   9.306 -0.0371  0.5681  0.5786
   52CHL1   C11 6288   0.875   5.653   9.465  0.3490  0.1288  0.0886
   52CHL1  H11A 6289   0.927   5.751   9.462 -1.1778  0.9616 -0.3626
   52CHL1  H11B 6290   0.768   5.663   9.492  0.2255 -1.1341  0.1246
   52CHL1    C9 6291   0.931   5.558   9.570 -0.0206 -0.2214  0.0842
   52CHL1    H9 6292   0.875   5.463   9.561 -1.0592  0.1501  2.0169
   52CHL1   C10 6293   0.906   5.610   9.713 -0.8156  0.5538 -1.0418
   52CHL1   C19 6294   0.930   5.765   9.721 -0.3591 -0.3359  0.5657
   52CHL1  H19A 6295   0.928   5.811   9.822 -0.9250  0.0845  0.3671
   52CHL1  H19B 6296   1.015   5.806   9.661 -0.7862  1.6836  1.2489
   52CHL1  H19C 6297   0.839   5.810   9.676 -1.2386 -2.7249 -0.2064
   52CHL1    C1 6298   0.758   5.569   9.766 -0.0450  0.0867  0.1855
   52CHL1   H1A 6299   0.686   5.628   9.705 -2.6985 -0.8792  2.2084
   52CHL1   H1B 6300   0.746   5.459   9.766 -0.7927  0.1630 -0.6891
   52CHL1    C2 6301   0.734   5.617   9.908 -0.2656 -0.0295 -0.3886
   52CHL1   H2A 6302   0.624   5.614   9.924 -0.4189  1.7855 -0.8085
   52CHL1   H2B 6303   0.755   5.726   9.917  3.0865 -0.7711  2.7345
   52CHL1   C20 6304   1.015   5.527   9.023 -0.3840 -0.4399  0.8346
   52CHL1   H20 6305   0.969   5.625   9.046 -3.0232 -1.3515 -0.0749
   52CHL1   C21 6306   0.913   5.432   8.950  0.5084  0.1284 -0.4117
   52CHL1  H21A 6307   0.922   5.445   8.840 -0.8116 -1.6516 -0.7877
   52CHL1  H21B 6308   0.807   5.451   8.975  0.6299 -0.2550  0.4173
   52CHL1  H21C 6309   0.940   5.324   8.958 -0.9568 -0.1766  0.7278
   52CHL1   C22 6310   1.135   5.565   8.939  0.5327  0.5161  0.3546
   52CHL1  H22A 6311   1.209   5.617   9.003 -0.7289  2.3465  0.4250
   52CHL1  H22B 6312   1.182   5.469   8.909 -2.8599 -2.0814  2.5940
   52CHL1   C23 6313   1.120   5.661   8.827  0.5064 -0.9662  0.6026
   52CHL1  H23A 6314   1.028   5.648   8.766  0.6096 -0.4176  0.3166
   52CHL1  H23B 6315   1.127   5.765   8.867  0.4841 -0.0606 -1.6203
   52CHL1   C24 6316   1.244   5.642   8.736 -0.4671 -0.8583  0.2083
   52CHL1  H24A 6317   1.334   5.683   8.787 -1.3669  1.1657  0.3034
   52CHL1  H24B 6318   1.272   5.535   8.738  1.3294 -0.4260 -0.5294
   52CHL1   C25 6319   1.224   5.704   8.595 -0.3072  0.7532 -0.1716
   52CHL1   H25 6320   1.135   5.650   8.557  0.0965 -0.8835  1.1310
   52CHL1   C26 6321   1.206   5.856   8.596  0.3399  0.1548 -0.4758
   52CHL1  H26A 6322   1.238   5.905   8.502 -0.5692  0.1323 -0.8091
   52CHL1  H26B 6323   1.099   5.884   8.614 -0.4626 -2.6920 -0.2991
   52CHL1  H26C 6324   1.265   5.887   8.685  4.7688 -3.3541 -1.8353
   52CHL1   C27 6325   1.348   5.661   8.510 -0.0721 -0.7880 -0.1855
   52CHL1  H27A 6326   1.350   5.552   8.488 -0.7948 -0.4758 -1.9733
   52CHL1  H27B 6327   1.343   5.713   8.412 -0.3287  1.2928  0.8732
   52CHL1  H27C 6328   1.438   5.701   8.560  0.7902 -1.7932 -0.8979
   53CHL1    C3 6329   1.507   5.123   9.960 -0.7171 -0.2754 -0.0207
   53CHL1    H3 6330   1.613   5.099   9.981 -0.6694  1.4987  2.1539
   53CHL1    O3 6331   1.436   5.149  10.078  0.3587 -0.1541  0.1166
   53CHL1   H3' 6332   1.449   5.072  10.134  0.7270  0.1743  0.4840
   53CHL1    C4 6333   1.491   5.252   9.874  0.1783  0.2343  0.4557
   53CHL1   H4A 6334   1.386   5.287   9.871  1.1181  3.6587  1.7211
   53CHL1   H4B 6335   1.539   5.330   9.938 -0.6723 -0.3007  1.7974
   53CHL1    C5 6336   1.560   5.228   9.740  0.0775 -0.0196 -0.2342
   53CHL1    C6 6337   1.662   5.306   9.704 -0.8398  0.3288  0.6904
   53CHL1    H6 6338   1.699   5.392   9.761  2.3504 -0.2220 -0.3958
   53CHL1    C7 6339   1.723   5.297   9.573  0.1223  0.0608  0.5586
   53CHL1   H7A 6340   1.713   5.397   9.525 -0.3782 -0.7647 -1.1206
   53CHL1   H7B 6341   1.832   5.279   9.585  0.0751 -0.5105  0.1658
   53CHL1    C8 6342   1.658   5.197   9.474  0.7244  0.5394 -0.3548
   53CHL1    H8 6343   1.566   5.248   9.439  0.1699 -0.3930 -0.2759
   53CHL1   C14 6344   1.741   5.176   9.352 -0.4503  0.1504 -0.5786
   53CHL1   H14 6345   1.833   5.128   9.390  0.0214 -0.3829 -2.2941
   53CHL1   C15 6346   1.783   5.295   9.276  0.2776 -0.8255  0.0481
   53CHL1  H15A 6347   1.692   5.352   9.249 -1.0604 -2.6080  0.6296
   53CHL1  H15B 6348   1.851   5.367   9.328  0.3164 -0.4392 -0.5239
   53CHL1   C16 6349   1.843   5.240   9.141 -0.4961  0.4408  0.2778
   53CHL1  H16A 6350   1.791   5.294   9.058 -3.1660 -3.0283 -0.5544
   53CHL1  H16B 6351   1.954   5.235   9.129 -0.5107  1.0343 -0.1648
   53CHL1   C17 6352   1.791   5.086   9.135 -0.7709 -0.4615  0.1541
   53CHL1   H17 6353   1.879   5.030   9.172 -1.6738 -2.1029 -0.0768
   53CHL1   C13 6354   1.685   5.080   9.244 -0.2247 -0.2140  0.0614
   53CHL1   C18 6355   1.546   5.125   9.191 -0.2511 -0.4705 -0.0438
   53CHL1  H18A 6356   1.554   5.216   9.126 -0.6872 -0.6312 -0.3333
   53CHL1  H18B 6357   1.503   5.041   9.132 -0.6961 -1.3157  1.4363
   53CHL1  H18C 6358   1.470   5.150   9.268 -0.0361  2.7923 -0.7306
   53CHL1   C12 6359   1.680   4.951   9.323  0.4011  0.1008  0.2293
   53CHL1  H12A 6360   1.644   4.870   9.257  0.5179 -1.0127  1.4705
   53CHL1  H12B 6361   1.784   4.925   9.355  0.8354  0.8308 -0.5655
   53CHL1   C11 6362   1.583   4.957   9.441  0.5012 -0.0361  0.0875
   53CHL1  H11A 6363   1.476   4.969   9.413  0.9165  1.6454 -0.8867
   53CHL1  H11B 6364   1.593   4.867   9.505  2.0102 -0.4962 -0.7487
   53CHL1    C9 6365   1.616   5.072   9.541  0.0120  0.0609  0.5357
   53CHL1    H9 6366   1.713   5.046   9.588  0.2100  1.2020  0.7844
   53CHL1   C10 6367   1.513   5.104   9.655  0.8623  0.2461  0.5049
   53CHL1   C19 6368   1.370   5.130   9.596 -0.5762 -0.4976 -0.2773
   53CHL1  H19A 6369   1.295   5.167   9.670  0.1555 -1.1213  0.8059
   53CHL1  H19B 6370   1.368   5.213   9.523  0.9717  0.5745  0.8512
   53CHL1  H19C 6371   1.324   5.041   9.547 -1.7612  0.0139 -0.1218
   53CHL1    C1 6372   1.522   4.979   9.752 -0.1241 -0.1214  1.0792
   53CHL1   H1A 6373   1.465   4.888   9.724 -1.3241  0.0868  2.6544
   53CHL1   H1B 6374   1.629   4.953   9.765  0.4021  1.8384  1.0382
   53CHL1    C2 6375   1.457   5.005   9.884 -0.1337  0.0634  0.1713
   53CHL1   H2A 6376   1.441   4.917   9.950 -2.0229 -0.1580 -0.5086
   53CHL1   H2B 6377   1.349   5.022   9.861 -0.5089 -0.4678  1.4390
   53CHL1   C20 6378   1.757   5.035   8.995 -0.1633 -0.0120 -0.0629
   53CHL1   H20 6379   1.659   5.071   8.955  0.1735 -2.1414 -3.2090
   53CHL1   C21 6380   1.737   4.886   9.000  0.1866 -0.8285 -0.7018
   53CHL1  H21A 6381   1.650   4.870   9.067  3.1685 -0.8032  3.6148
   53CHL1  H21B 6382   1.826   4.842   9.051  0.4174  2.0093  1.6008
   53CHL1  H21C 6383   1.716   4.849   8.897 -0.1806  2.0399 -1.7353
   53CHL1   C22 6384   1.861   5.072   8.888  0.3765 -0.4830 -0.5851
   53CHL1  H22A 6385   1.904   5.172   8.910 -0.2639 -0.3695  0.2074
   53CHL1  H22B 6386   1.939   4.993   8.896  1.6971  0.8904  0.8392
   53CHL1   C23 6387   1.807   5.073   8.743  0.1075  0.5422 -0.0979
   53CHL1  H23A 6388   1.771   4.968   8.733  1.0567  0.1261  0.6127
   53CHL1  H23B 6389   1.735   5.153   8.717 -3.1675 -1.8422  1.0075
   53CHL1   C24 6390   1.929   5.066   8.642 -0.6035  0.1847  0.1633
   53CHL1  H24A 6391   1.979   5.163   8.667 -0.6167  0.2214  0.0455
   53CHL1  H24B 6392   1.996   4.980   8.666 -0.2776  0.5399  0.5618
   53CHL1   C25 6393   1.888   5.067   8.488 -0.2824  0.4326 -0.4361
   53CHL1   H25 6394   1.818   5.153   8.477 -2.3165 -0.7627  1.9612
   53CHL1   C26 6395   2.007   5.062   8.397  0.4508 -1.0532  0.4395
   53CHL1  H26A 6396   2.088   5.118   8.448  1.6292  1.6670 -3.8501
   53CHL1  H26B 6397   2.041   4.957   8.392  0.4691 -1.0395  0.2509
   53CHL1  H26C 6398   2.002   5.100   8.293 -0.0067  0.3812  0.9599
   53CHL1   C27 6399   1.801   4.949   8.449  0.1399  0.0028  0.4693
   53CHL1  H27A 6400   1.698   4.940   8.489 -0.4988 -0.2727 -1.1408
   53CHL1  H27B 6401   1.777   4.954   8.340 -2.2179 -0.1192  0.9145
   53CHL1  H27C 6402   1.848   4.853   8.479  0.5615  0.1567  0.3056
   54CHL1    C3 6403   6.309   0.327  10.248 -0.1717 -0.6243  0.7257
   54CHL1    H3 6404   6.254   0.231  10.237  1.0198 -1.2173 -0.4342
   54CHL1    O3 6405   6.305   0.361  10.383 -0.3972 -0.0182 -0.7666
   54CHL1   H3' 6406   6.389   0.328  10.416 -1.7589 -2.4941  0.5768
   54CHL1    C4 6407   6.458   0.310  10.199  0.2997 -0.1477 -0.0268
   54CHL1   H4A 6408   6.514   0.401  10.229  1.4192 -1.1553  1.0521
   54CHL1   H4B 6409   6.505   0.229  10.259 -0.3295 -1.7517 -1.6138
   54CHL1    C5 6410   6.474   0.288  10.051  0.3466 -0.4580  0.2086
   54CHL1    C6 6411   6.532   0.178  10.004 -0.7173  0.1866 -0.4518
   54CHL1    H6 6412   6.585   0.108  10.071 -1.3186  0.2449  0.0841
   54CHL1    C7 6413   6.549   0.140   9.858 -0.2245 -0.3034  1.0502
   54CHL1   H7A 6414   6.656   0.116   9.840  0.0713  1.8505 -0.4706
   54CHL1   H7B 6415   6.484   0.056   9.827  2.4714 -1.9665 -0.5113
   54CHL1    C8 6416   6.522   0.264   9.766 -0.2246 -0.4570 -0.4900
   54CHL1    H8 6417   6.606   0.335   9.781  0.6068 -1.6556  0.8612
   54CHL1   C14 6418   6.510   0.224   9.621  0.7288 -0.5557 -0.8935
   54CHL1   H14 6419   6.439   0.139   9.629 -2.9066  2.4401  3.1163
   54CHL1   C15 6420   6.639   0.158   9.559  0.0125  0.1088  0.4847
   54CHL1  H15A 6421   6.723   0.223   9.591  1.0155 -1.0324  0.2364
   54CHL1  H15B 6422   6.658   0.053   9.588  0.7363  0.3780  0.9928
   54CHL1   C16 6423   6.612   0.171   9.404 -0.1280 -0.2146  0.0968
   54CHL1  H16A 6424   6.703   0.218   9.362  0.1221  0.7135  1.6125
   54CHL1  H16B 6425   6.583   0.073   9.361  2.2056 -0.8641 -0.1268
   54CHL1   C17 6426   6.483   0.262   9.392  0.9905 -0.0882  0.3939
   54CHL1   H17 6427   6.396   0.194   9.402 -0.6006  1.8500  0.3578
   54CHL1   C13 6428   6.468   0.336   9.527 -0.2426 -0.1784 -0.4019
   54CHL1   C18 6429   6.573   0.451   9.517  0.0532  0.1813 -0.1454
   54CHL1  H18A 6430   6.599   0.500   9.613  0.6050  2.7614 -1.5008
   54CHL1  H18B 6431   6.673   0.428   9.476  0.5951 -1.5912  1.9875
   54CHL1  H18C 6432   6.532   0.534   9.454 -3.4577 -0.3864  1.1718
   54CHL1   C12 6433   6.330   0.387   9.567  0.0925  0.3609 -0.5100
   54CHL1  H12A 6434   6.299   0.466   9.496 -0.1202  0.4701 -0.2956
   54CHL1  H12B 6435   6.273   0.292   9.566  0.1799  0.2109  2.0774
   54CHL1   C11 6436   6.333   0.447   9.709  0.4227  0.7207 -0.2774
   54CHL1  H11A 6437   6.405   0.531   9.713 -1.8541  2.7331  2.2650
   54CHL1  H11B 6438   6.233   0.487   9.737  1.1113  2.1491  0.2318
   54CHL1    C9 6439   6.392   0.340   9.810  0.4398 -1.1239  0.3227
   54CHL1    H9 6440   6.305   0.270   9.810  0.1927 -0.8321 -0.7231
   54CHL1   C10 6441   6.396   0.389   9.961 -0.5719  0.2320 -0.0376
   54CHL1   C19 6442   6.479   0.524   9.959 -0.2841  0.2574 -0.3885
   54CHL1  H19A 6443   6.580   0.508   9.916 -0.6474  0.7553 -1.4586
   54CHL1  H19B 6444   6.423   0.605   9.907 -0.4274  0.1706 -0.3689
   54CHL1  H19C 6445   6.498   0.567  10.060  0.5528  2.6223 -1.4986
   54CHL1    C1 6446   6.257   0.423  10.013 -0.0895  0.4966  1.5554
   54CHL1   H1A 6447   6.220   0.515   9.964  1.2333  0.3724  0.2636
   54CHL1   H1B 6448   6.194   0.337   9.982 -1.4452  2.5188 -1.6783
   54CHL1    C2 6449   6.242   0.443  10.165 -0.2600 -0.1138 -0.0740
   54CHL1   H2A 6450   6.132   0.449  10.175 -0.3523 -0.7820 -0.6311
   54CHL1   H2B 6451   6.303   0.535  10.177 -0.0316  0.1342 -2.6046
   54CHL1   C20 6452   6.474   0.331   9.258 -0.0155  0.6650 -0.1728
   54CHL1   H20 6453   6.532   0.426   9.267  0.6121  0.2389  0.4126
   54CHL1   C21 6454   6.324   0.342   9.228  0.2067  0.5699 -0.1730
   54CHL1  H21A 6455   6.263   0.399   9.300 -1.9586  1.4026 -2.5111
   54CHL1  H21B 6456   6.275   0.244   9.214 -0.6550  0.8514  0.8311
   54CHL1  H21C 6457   6.314   0.389   9.127 -0.0827  0.4506 -0.1992
   54CHL1   C22 6458   6.549   0.257   9.144 -0.1095 -0.7529  0.1596
   54CHL1  H22A 6459   6.659   0.251   9.159 -0.0781 -1.3342 -0.2583
   54CHL1  H22B 6460   6.517   0.151   9.149  0.0218 -0.9439 -1.9546
   54CHL1   C23 6461   6.521   0.301   8.996 -0.4038  0.6152  0.0133
   54CHL1  H23A 6462   6.586   0.236   8.934  1.1607 -0.5402  2.6913
   54CHL1  H23B 6463   6.415   0.281   8.970 -0.4309  0.6562  0.0925
   54CHL1   C24 6464   6.560   0.444   8.963 -0.2036  0.0314 -0.5162
   54CHL1  H24A 6465   6.523   0.515   9.041  1.6220 -1.4383  1.8543
   54CHL1  H24B 6466   6.670   0.450   8.977 -0.5243  1.2079  2.2882
   54CHL1   C25 6467   6.523   0.501   8.826  0.0356 -0.7307  0.4765
   54CHL1   H25 6468   6.415   0.524   8.820  0.0697 -0.3617  1.1975
   54CHL1   C26 6469   6.608   0.624   8.792 -0.1686  0.6086  0.1130
   54CHL1  H26A 6470   6.597   0.667   8.690  1.5706 -0.1521 -0.4447
   54CHL1  H26B 6471   6.600   0.704   8.869  0.8236  1.7245 -0.8844
   54CHL1  H26C 6472   6.714   0.588   8.790 -0.5890 -0.6977  0.4506
   54CHL1   C27 6473   6.536   0.403   8.707 -0.3687 -0.1706 -0.4370
   54CHL1  H27A 6474   6.532   0.461   8.612 -2.8502  2.6887  1.2304
   54CHL1  H27B 6475   6.635   0.352   8.706 -0.0012  0.3068 -4.2410
   54CHL1  H27C 6476   6.460   0.322   8.714 -0.0221 -0.5509 -1.0036
   55CHL1    C3 6477   1.663   4.147  10.176  0.2538 -0.0938 -0.5487
   55CHL1    H3 6478   1.740   4.227  10.169  0.6612 -0.6077 -3.0756
   55CHL1    O3 6479   1.624   4.148  10.314  0.2184 -1.1166 -0.1293
   55CHL1   H3' 6480   1.559   4.078  10.323 -0.8236 -0.2346 -0.5807
   55CHL1    C4 6481   1.540   4.188  10.099  1.1872 -0.4782  0.6090
   55CHL1   H4A 6482   1.464   4.111  10.124  1.4853 -0.6601  0.9874
   55CHL1   H4B 6483   1.510   4.290  10.131  0.0709 -0.7772  0.5609
   55CHL1    C5 6484   1.573   4.178   9.952 -0.1091 -0.1991  0.0513
   55CHL1    C6 6485   1.547   4.279   9.872 -0.3734 -0.1320  0.5054
   55CHL1    H6 6486   1.510   4.376   9.908 -1.0295  0.5933 -1.9545
   55CHL1    C7 6487   1.558   4.267   9.727 -0.0111 -0.5546  0.5102
   55CHL1   H7A 6488   1.471   4.316   9.678  0.4158 -1.0237 -0.7614
   55CHL1   H7B 6489   1.641   4.325   9.681  0.0589 -0.9874  0.0832
   55CHL1    C8 6490   1.568   4.122   9.674 -0.2343  0.4091 -0.0212
   55CHL1    H8 6491   1.466   4.081   9.684  0.0726  0.0436  2.1004
   55CHL1   C14 6492   1.607   4.122   9.524  0.2205 -0.8887  0.1204
   55CHL1   H14 6493   1.694   4.191   9.517 -0.0291 -0.5494  0.3695
   55CHL1   C15 6494   1.516   4.186   9.416  0.6620 -0.1745 -0.6103
   55CHL1  H15A 6495   1.413   4.145   9.411  0.1939  0.5574  1.8184
   55CHL1  H15B 6496   1.510   4.296   9.430 -0.2593 -0.2184 -0.6414
   55CHL1   C16 6497   1.587   4.151   9.282 -0.0820  0.0239 -0.4100
   55CHL1  H16A 6498   1.515   4.111   9.208 -1.1550  1.0469  0.0420
   55CHL1  H16B 6499   1.645   4.239   9.244 -0.1518  1.1678  1.9421
   55CHL1   C17 6500   1.695   4.046   9.317  0.2331 -0.3556 -0.3064
   55CHL1   H17 6501   1.789   4.105   9.323 -0.0036 -0.0398  0.3535
   55CHL1   C13 6502   1.657   3.993   9.457 -0.9666  0.4073 -0.4054
   55CHL1   C18 6503   1.537   3.894   9.437 -0.5076 -0.2298  0.9201
   55CHL1  H18A 6504   1.485   3.921   9.342  1.1495 -0.9493 -0.2398
   55CHL1  H18B 6505   1.573   3.791   9.418 -1.7232 -0.7647  1.4029
   55CHL1  H18C 6506   1.468   3.903   9.524 -1.1277  1.1933  0.3172
   55CHL1   C12 6507   1.768   3.926   9.543  0.7967 -0.7803 -0.4199
   55CHL1  H12A 6508   1.809   3.830   9.504  2.1412 -0.5248  0.2904
   55CHL1  H12B 6509   1.861   3.987   9.552  1.1973 -1.5945  1.8413
   55CHL1   C11 6510   1.712   3.907   9.688 -0.2235 -0.9411 -0.2906
   55CHL1  H11A 6511   1.628   3.835   9.687 -2.7165  1.7125  1.6251
   55CHL1  H11B 6512   1.798   3.868   9.747 -0.1401  2.5047  2.1853
   55CHL1    C9 6513   1.675   4.046   9.753 -0.3512  0.1456 -0.4940
   55CHL1    H9 6514   1.759   4.118   9.750  0.5181 -0.8601 -2.7263
   55CHL1   C10 6515   1.631   4.035   9.907 -0.5113 -0.4146 -0.8175
   55CHL1   C19 6516   1.524   3.920   9.917 -0.3046  0.6435  0.4355
   55CHL1  H19A 6517   1.463   3.912  10.009 -0.6945 -2.5295  0.0284
   55CHL1  H19B 6518   1.451   3.954   9.840 -1.8095  2.2233  2.4713
   55CHL1  H19C 6519   1.570   3.823   9.888 -1.8744 -0.2226  0.7461
   55CHL1    C1 6520   1.756   4.011   9.988  0.7538  0.8500 -0.0229
   55CHL1   H1A 6521   1.788   3.906   9.971  1.2804  1.5314 -4.2444
   55CHL1   H1B 6522   1.840   4.070   9.945 -0.4404  2.9071  0.3292
   55CHL1    C2 6523   1.727   4.018  10.139  0.2402  0.3621 -0.2822
   55CHL1   H2A 6524   1.823   4.013  10.196 -0.3915  1.0683  0.8833
   55CHL1   H2B 6525   1.657   3.934  10.161  1.4951 -1.1439 -1.8046
   55CHL1   C20 6526   1.707   3.944   9.204 -0.0940  0.2283 -0.4529
   55CHL1   H20 6527   1.614   3.884   9.191 -0.3623  0.7465 -0.9677
   55CHL1   C21 6528   1.830   3.859   9.234 -0.0675 -0.1045  0.2386
   55CHL1  H21A 6529   1.819   3.779   9.310  2.3144 -0.5211  0.2303
   55CHL1  H21B 6530   1.913   3.926   9.265 -1.2767  0.6625  1.9392
   55CHL1  H21C 6531   1.859   3.817   9.135 -0.7548  0.0206 -0.0238
   55CHL1   C22 6532   1.734   4.003   9.061  0.0038 -0.6587 -0.6117
   55CHL1  H22A 6533   1.732   3.920   8.986 -0.0528  1.0317 -2.5591
   55CHL1  H22B 6534   1.664   4.079   9.021  1.5033  1.1069  0.0246
   55CHL1   C23 6535   1.872   4.075   9.041  0.6236 -0.2904  0.4666
   55CHL1  H23A 6536   1.896   4.148   9.121  0.5981  1.8847 -1.4124
   55CHL1  H23B 6537   1.952   3.998   9.046 -0.6695 -1.7325 -0.2168
   55CHL1   C24 6538   1.895   4.140   8.902  0.0577 -0.1767  0.0499
   55CHL1  H24A 6539   1.989   4.100   8.859  0.1017 -0.6512  0.5855
   55CHL1  H24B 6540   1.818   4.109   8.827  1.2401 -0.7339 -0.9793
   55CHL1   C25 6541   1.896   4.287   8.908  0.6120 -0.1668 -0.1871
   55CHL1   H25 6542   1.979   4.313   8.977  0.1854  2.3430 -0.5049
   55CHL1   C26 6543   1.937   4.333   8.765 -0.5294 -0.3758 -0.3256
   55CHL1  H26A 6544   1.888   4.432   8.755 -0.3359 -0.2952 -0.4572
   55CHL1  H26B 6545   2.046   4.343   8.746 -0.4473 -2.4575 -1.2948
   55CHL1  H26C 6546   1.884   4.272   8.689 -1.8906  1.7550 -1.1761
   55CHL1   C27 6547   1.769   4.358   8.960  0.4368  0.0027 -0.1009
   55CHL1  H27A 6548   1.683   4.327   8.896 -0.8889  1.0160  1.1246
   55CHL1  H27B 6549   1.752   4.343   9.069  3.2900  0.2682  0.4507
   55CHL1  H27C 6550   1.778   4.468   8.949 -1.1317  0.2956  1.1142
   56CHL1    C3 6551   0.779   3.160  10.032  0.1963 -0.0969 -0.6911
   56CHL1    H3 6552   0.766   3.052  10.013 -2.0065  0.1709 -0.9349
   56CHL1    O3 6553   0.797   3.194  10.169  0.1167 -0.4139  0.4385
   56CHL1   H3' 6554   0.886   3.167  10.192  0.1538 -1.1327 -0.4867
   56CHL1    C4 6555   0.903   3.196   9.969 -0.2729  0.7174  0.0674
   56CHL1   H4A 6556   0.933   3.296  10.007  1.0686 -0.0376  1.0942
   56CHL1   H4B 6557   0.978   3.119   9.998 -2.7508 -2.0363 -0.3460
   56CHL1    C5 6558   0.890   3.192   9.814  0.6029  0.0713 -0.1099
   56CHL1    C6 6559   0.983   3.122   9.747 -0.4379 -0.3777  0.7109
   56CHL1    H6 6560   1.055   3.061   9.803  1.7250  1.5891  0.2053
   56CHL1    C7 6561   0.985   3.125   9.600 -0.5310  0.4468 -0.4812
   56CHL1   H7A 6562   1.088   3.135   9.560  0.1659 -0.3497  1.0154
   56CHL1   H7B 6563   0.962   3.022   9.565  0.2880  0.5955 -1.5055
   56CHL1    C8 6564   0.894   3.233   9.540 -0.2658  0.0628 -0.0510
   56CHL1    H8 6565   0.925   3.339   9.555 -1.5781  0.2928  1.4027
   56CHL1   C14 6566   0.875   3.191   9.403  0.6550 -0.2497  0.0666
   56CHL1   H14 6567   0.825   3.093   9.415 -1.1580  0.6432  0.1131
   56CHL1   C15 6568   1.001   3.152   9.326  0.6112  0.2456  0.5147
   56CHL1  H15A 6569   1.071   3.235   9.348  0.0727  1.1084 -0.8927
   56CHL1  H15B 6570   1.042   3.054   9.358 -3.8551 -2.3826 -0.9138
   56CHL1   C16 6571   0.953   3.154   9.176 -0.3099  0.2876 -0.0092
   56CHL1  H16A 6572   1.023   3.215   9.116 -0.4956  1.2200  0.6930
   56CHL1  H16B 6573   0.943   3.050   9.137 -0.8749 -0.0685  1.0462
   56CHL1   C17 6574   0.805   3.210   9.177  0.5592 -0.0881 -0.2875
   56CHL1   H17 6575   0.745   3.117   9.178  0.5192 -0.0599 -0.0688
   56CHL1   C13 6576   0.789   3.283   9.312  0.1323 -0.4698  0.0673
   56CHL1   C18 6577   0.859   3.424   9.297 -0.4753 -0.2641 -0.0350
   56CHL1  H18A 6578   0.871   3.481   9.391 -2.0522  1.0916 -0.6215
   56CHL1  H18B 6579   0.956   3.420   9.243 -0.4640 -1.8541  0.0615
   56CHL1  H18C 6580   0.786   3.489   9.245  0.5537  1.0205  0.0835
   56CHL1   C12 6581   0.653   3.294   9.379  0.0918  0.1447  0.1053
   56CHL1  H12A 6582   0.587   3.364   9.323  2.1243  1.1033 -1.1891
   56CHL1  H12B 6583   0.607   3.195   9.364  0.2504  0.2801 -1.4229
   56CHL1   C11 6584   0.656   3.330   9.528  0.1212 -0.6889  0.5576
   56CHL1  H11A 6585   0.690   3.436   9.529 -1.2763 -0.2188 -0.0687
   56CHL1  H11B 6586   0.557   3.315   9.576  0.8338 -0.5032  2.1571
   56CHL1    C9 6587   0.756   3.238   9.606 -0.3161  0.1100  0.2539
   56CHL1    H9 6588   0.712   3.136   9.613  0.3701 -0.0824  2.9878
   56CHL1   C10 6589   0.770   3.268   9.756  0.3120  0.2672 -0.4073
   56CHL1   C19 6590   0.800   3.420   9.772  0.4219 -0.2740 -0.1019
   56CHL1  H19A 6591   0.902   3.442   9.734  0.9012 -1.5140  0.4133
   56CHL1  H19B 6592   0.723   3.490   9.732  0.2349 -0.8265 -0.7323
   56CHL1  H19C 6593   0.805   3.450   9.878  1.3512  1.4101 -0.5862
   56CHL1    C1 6594   0.633   3.233   9.830 -0.3473  0.1627 -1.0291
   56CHL1   H1A 6595   0.554   3.303   9.797 -1.7279  0.2271  2.0367
   56CHL1   H1B 6596   0.601   3.128   9.810  3.2712 -1.6658  1.5079
   56CHL1    C2 6597   0.658   3.235   9.982  0.7215  0.6156  0.7173
   56CHL1   H2A 6598   0.567   3.191  10.027 -1.3846  1.1402 -2.7042
   56CHL1   H2B 6599   0.682   3.343   9.995 -1.5556  1.4604 -1.3747
   56CHL1   C20 6600   0.765   3.283   9.051  0.6481 -0.1265  0.0329
   56CHL1   H20 6601   0.702   3.369   9.079  0.4769  0.2388 -1.3634
   56CHL1   C21 6602   0.665   3.198   8.966 -0.5642  0.3196 -0.0561
   56CHL1  H21A 6603   0.584   3.178   9.039  0.0045  0.2413  0.5723
   56CHL1  H21B 6604   0.715   3.108   8.926  0.4638  0.7106  0.3008
   56CHL1  H21C 6605   0.631   3.264   8.884 -3.1001 -0.9496 -0.1162
   56CHL1   C22 6606   0.870   3.335   8.949 -0.1530 -0.6705  0.4006
   56CHL1  H22A 6607   0.952   3.383   9.007  0.6145  0.1175 -1.2859
   56CHL1  H22B 6608   0.922   3.252   8.897  0.8128  0.5388 -0.6131
   56CHL1   C23 6609   0.817   3.444   8.849  0.1896 -0.8478 -0.5730
   56CHL1  H23A 6610   0.761   3.401   8.763 -1.9706  0.4831  0.0625
   56CHL1  H23B 6611   0.750   3.517   8.900  0.3790 -1.3165  0.3523
   56CHL1   C24 6612   0.934   3.520   8.777  0.3582  0.7145 -0.5490
   56CHL1  H24A 6613   0.892   3.607   8.723 -0.0672  0.6160 -0.3840
   56CHL1  H24B 6614   1.012   3.554   8.849  0.3392 -0.4966  0.0803
   56CHL1   C25 6615   1.011   3.433   8.678  0.5401 -0.6417 -0.1739
   56CHL1   H25 6616   1.038   3.332   8.714  2.3981 -0.1366 -0.0334
   56CHL1   C26 6617   0.919   3.410   8.559 -0.2975  0.4541 -0.8166
   56CHL1  H26A 6618   0.862   3.506   8.551 -0.0854  0.7451  0.9189
   56CHL1  H26B 6619   0.983   3.403   8.468  0.4781 -1.5921 -0.1777
   56CHL1  H26C 6620   0.856   3.319   8.567  0.9522 -0.3274  0.4991
   56CHL1   C27 6621   1.138   3.502   8.641 -0.2818 -0.6213 -0.3484
   56CHL1  H27A 6622   1.194   3.449   8.561 -1.1617  1.3472 -2.3817
   56CHL1  H27B 6623   1.126   3.606   8.601 -3.6441 -1.1004 -0.8604
   56CHL1  H27C 6624   1.196   3.504   8.736 -1.4662 -0.9007  0.3898
   57CHL1    C3 6625   1.856   5.464  10.239 -1.0783  0.6369 -0.7345
   57CHL1    H3 6626   1.855   5.368  10.183 -1.3616  0.7765 -0.9710
   57CHL1    O3 6627   1.816   5.427  10.370 -0.5706 -0.1340  0.4883
   57CHL1   H3' 6628   1.845   5.505  10.417 -1.4222  1.2629 -1.1961
   57CHL1    C4 6629   1.994   5.531  10.235  0.6036  0.6311  0.1228
   57CHL1   H4A 6630   2.001   5.621  10.300 -0.1315  0.4592  0.4571
   57CHL1   H4B 6631   2.058   5.453  10.280 -1.3832 -0.4176  1.2567
   57CHL1    C5 6632   2.038   5.565  10.098 -0.7875  0.0534  0.2629
   57CHL1    C6 6633   2.145   5.511  10.038  0.0310 -0.0487 -0.5829
   57CHL1    H6 6634   2.222   5.463  10.101  1.6425  2.8307 -0.1819
   57CHL1    C7 6635   2.184   5.532   9.901  0.3154 -0.1409  0.4439
   57CHL1   H7A 6636   2.294   5.535   9.887  0.5494 -3.8822  0.4544
   57CHL1   H7B 6637   2.159   5.443   9.840  1.3121 -0.2081  0.1167
   57CHL1    C8 6638   2.111   5.657   9.840  0.1108  1.3413 -0.8164
   57CHL1    H8 6639   2.166   5.746   9.878 -0.0549 -0.0977  3.3351
   57CHL1   C14 6640   2.123   5.646   9.691  0.2605 -0.1522 -0.0210
   57CHL1   H14 6641   2.062   5.557   9.664  1.7042 -1.0614 -0.3715
   57CHL1   C15 6642   2.266   5.629   9.637  0.3768  0.0260 -0.6506
   57CHL1  H15A 6643   2.328   5.675   9.716 -1.5635  0.9430  0.4112
   57CHL1  H15B 6644   2.292   5.524   9.611  1.1214  0.4946 -1.9085
   57CHL1   C16 6645   2.262   5.689   9.501 -0.6821 -0.7091  0.1857
   57CHL1  H16A 6646   2.322   5.782   9.512 -0.8886 -0.2785 -1.9607
   57CHL1  H16B 6647   2.300   5.617   9.426 -2.8249 -2.8223  1.0188
   57CHL1   C17 6648   2.116   5.735   9.475  0.3032  0.1155 -0.2511
   57CHL1   H17 6649   2.060   5.647   9.438  0.2581  0.5173 -1.1431
   57CHL1   C13 6650   2.062   5.764   9.614 -0.5018 -0.0135  0.0734
   57CHL1   C18 6651   2.110   5.898   9.668  0.9599 -0.4614  0.0382
   57CHL1  H18A 6652   2.052   5.986   9.632  0.9672  0.3916  1.9568
   57CHL1  H18B 6653   2.108   5.917   9.778  0.7673 -0.5837  0.0562
   57CHL1  H18C 6654   2.218   5.912   9.649  1.3789 -0.9683  1.8419
   57CHL1   C12 6655   1.908   5.750   9.635 -0.3732 -0.2323 -0.0607
   57CHL1  H12A 6656   1.863   5.841   9.589 -0.8461 -1.3054 -1.8412
   57CHL1  H12B 6657   1.873   5.663   9.575 -1.8715  0.3930 -0.1311
   57CHL1   C11 6658   1.867   5.749   9.789 -0.0397  0.5885  0.4387
   57CHL1  H11A 6659   1.867   5.857   9.817 -2.4503  0.6279  0.4637
   57CHL1  H11B 6660   1.766   5.704   9.800 -0.0769  0.2287 -1.0943
   57CHL1    C9 6661   1.959   5.659   9.879  0.2399 -0.1386  0.2641
   57CHL1    H9 6662   1.924   5.561   9.840  0.3169 -0.4957  1.0813
   57CHL1   C10 6663   1.938   5.656  10.029  0.2615 -0.4361 -0.0341
   57CHL1   C19 6664   1.941   5.801  10.083 -0.7037 -0.7141  0.0395
   57CHL1  H19A 6665   2.040   5.849  10.067 -0.6902 -0.6578  0.2944
   57CHL1  H19B 6666   1.863   5.866  10.039 -0.1562  0.3499  0.6217
   57CHL1  H19C 6667   1.906   5.806  10.188 -0.8539 -2.2076  0.0879
   57CHL1    C1 6668   1.795   5.586  10.036  0.7342  0.0731  0.0923
   57CHL1   H1A 6669   1.721   5.656   9.991  0.9660  0.9335  1.0118
   57CHL1   H1B 6670   1.793   5.495   9.972  0.1653 -0.5763  1.0100
   57CHL1    C2 6671   1.746   5.547  10.170  0.4239 -0.1909  0.2521
   57CHL1   H2A 6672   1.652   5.488  10.165 -0.5369  0.8664  3.4624
   57CHL1   H2B 6673   1.728   5.639  10.230 -1.1248  0.7269 -1.5164
   57CHL1   C20 6674   2.107   5.840   9.367 -0.3685 -0.9253 -0.0958
   57CHL1   H20 6675   2.140   5.937   9.410  1.0469 -1.0872 -0.7698
   57CHL1   C21 6676   1.960   5.878   9.341  0.2001  0.0572 -0.8963
   57CHL1  H21A 6677   1.919   5.938   9.426 -0.5897 -0.7523 -0.6838
   57CHL1  H21B 6678   1.901   5.787   9.317  1.3427 -0.2052 -2.8572
   57CHL1  H21C 6679   1.962   5.946   9.254  0.6442  1.4233  0.1414
   57CHL1   C22 6680   2.186   5.823   9.236  0.6808  0.3394 -0.3873
   57CHL1  H22A 6681   2.154   5.912   9.178  2.7420  0.7375 -0.9580
   57CHL1  H22B 6682   2.294   5.839   9.255  0.7632 -1.2860  0.6935
   57CHL1   C23 6683   2.149   5.711   9.150  0.3016  0.5653  0.1606
   57CHL1  H23A 6684   2.205   5.622   9.188  0.7972 -0.8273 -3.4030
   57CHL1  H23B 6685   2.044   5.696   9.181  0.1364  3.9503  1.6436
   57CHL1   C24 6686   2.187   5.725   9.007  0.3128  0.4997 -0.2474
   57CHL1  H24A 6687   2.124   5.803   8.959  1.1186  0.7297 -0.9489
   57CHL1  H24B 6688   2.294   5.755   9.008 -0.0762  2.0003 -0.9301
   57CHL1   C25 6689   2.174   5.599   8.913  0.5776  0.3033 -0.3095
   57CHL1   H25 6690   2.234   5.522   8.967 -1.8812 -1.4370  0.1299
   57CHL1   C26 6691   2.034   5.537   8.898  0.2862 -0.7243  0.2442
   57CHL1  H26A 6692   1.974   5.613   8.843  1.9303 -0.3679 -1.1289
   57CHL1  H26B 6693   2.042   5.445   8.838  4.5281 -0.3539 -0.0291
   57CHL1  H26C 6694   1.992   5.511   8.998  2.4363 -1.3473  1.0395
   57CHL1   C27 6695   2.234   5.625   8.773 -0.6686  0.0234 -0.1568
   57CHL1  H27A 6696   2.184   5.698   8.706  1.6993  0.4833 -1.5475
   57CHL1  H27B 6697   2.337   5.661   8.795 -0.3481  0.9682 -2.8657
   57CHL1  H27C 6698   2.237   5.528   8.718 -0.6172  0.7391 -1.4578
   58CHL1    C3 6699   6.417   4.112  10.181  0.7000  0.3218 -0.4466
   58CHL1    H3 6700   6.369   4.019  10.143  1.2445  0.0420 -0.4504
   58CHL1    O3 6701   6.486   4.075  10.298 -0.2333  0.6186 -0.0682
   58CHL1   H3' 6702   6.486   4.144  10.364 -0.3746  0.8094 -0.2691
   58CHL1    C4 6703   6.512   4.169  10.077 -0.0845  0.4201 -0.4819
   58CHL1   H4A 6704   6.555   4.265  10.112  0.2438  0.4827 -1.0414
   58CHL1   H4B 6705   6.586   4.086  10.066 -1.4885 -0.9265 -0.1170
   58CHL1    C5 6706   6.442   4.182   9.944  0.3887 -0.0999 -0.1240
   58CHL1    C6 6707   6.480   4.120   9.829 -0.2751 -0.2969  0.8729
   58CHL1    H6 6708   6.571   4.058   9.829 -0.5436 -0.7272 -0.2508
   58CHL1    C7 6709   6.412   4.151   9.697  0.2031  0.0094  0.2636
   58CHL1   H7A 6710   6.485   4.183   9.621 -1.0497 -0.4936 -1.2114
   58CHL1   H7B 6711   6.358   4.062   9.657  1.8129 -0.5255 -0.7955
   58CHL1    C8 6712   6.324   4.277   9.689 -0.4081  0.6924  0.1170
   58CHL1    H8 6713   6.393   4.365   9.696  0.7780 -0.2000  0.0429
   58CHL1   C14 6714   6.245   4.279   9.561  0.6845  0.2245  0.1504
   58CHL1   H14 6715   6.189   4.183   9.558 -1.8522  1.5774  1.1108
   58CHL1   C15 6716   6.312   4.293   9.423 -0.4322  0.1697  0.3484
   58CHL1  H15A 6717   6.382   4.379   9.424  0.0692 -0.2284  0.5963
   58CHL1  H15B 6718   6.385   4.211   9.403 -1.7136 -0.5713 -1.5443
   58CHL1   C16 6719   6.193   4.320   9.325 -0.0680 -0.4699  0.1668
   58CHL1  H16A 6720   6.225   4.396   9.251  1.5411 -2.0344 -0.8245
   58CHL1  H16B 6721   6.155   4.226   9.279  2.4538 -1.2866 -0.4203
   58CHL1   C17 6722   6.073   4.375   9.417 -0.3170 -0.0766  0.5279
   58CHL1   H17 6723   6.003   4.291   9.439 -0.4701  0.3917  1.9121
   58CHL1   C13 6724   6.136   4.392   9.560  0.3480  0.1351  0.0330
   58CHL1   C18 6725   6.207   4.519   9.552 -0.1997 -0.0314 -0.6945
   58CHL1  H18A 6726   6.262   4.545   9.459  0.0940  0.5743 -0.3555
   58CHL1  H18B 6727   6.136   4.601   9.580  1.4145  0.7632  1.3211
   58CHL1  H18C 6728   6.283   4.536   9.631  0.0499  0.4834 -1.0380
   58CHL1   C12 6729   6.040   4.377   9.681 -0.0560  0.5000  0.4443
   58CHL1  H12A 6730   5.964   4.458   9.680  1.7790  2.3401  1.9907
   58CHL1  H12B 6731   5.997   4.274   9.679  2.1895 -0.5095 -1.4636
   58CHL1   C11 6732   6.119   4.373   9.809  0.3511 -0.6965 -0.6431
   58CHL1  H11A 6733   6.158   4.476   9.823  0.9398 -1.0171  0.1540
   58CHL1  H11B 6734   6.062   4.332   9.895  2.5637 -1.3884  0.5784
   58CHL1    C9 6735   6.243   4.281   9.815  0.1388 -0.6547  0.0405
   58CHL1    H9 6736   6.199   4.180   9.833  0.1356 -0.1463  3.6412
   58CHL1   C10 6737   6.325   4.284   9.943 -0.7719 -0.5786  0.7622
   58CHL1   C19 6738   6.390   4.427   9.966  0.5046 -0.8541  0.5292
   58CHL1  H19A 6739   6.451   4.440  10.058  0.1175  0.6719  0.5961
   58CHL1  H19B 6740   6.438   4.463   9.873 -0.4657  0.1883  0.4111
   58CHL1  H19C 6741   6.302   4.494   9.978 -0.2737 -1.9777  1.4455
   58CHL1    C1 6742   6.238   4.246  10.067 -0.4358 -0.1245 -0.2703
   58CHL1   H1A 6743   6.157   4.319  10.088  0.5385  0.6430  0.9106
   58CHL1   H1B 6744   6.181   4.153  10.047 -0.2699 -0.2608 -0.1140
   58CHL1    C2 6745   6.301   4.218  10.207 -0.8225  0.9152 -0.1728
   58CHL1   H2A 6746   6.235   4.166  10.279  0.5256  0.7285  0.9787
   58CHL1   H2B 6747   6.345   4.306  10.258 -0.8288  0.0397  1.3896
   58CHL1   C20 6748   5.997   4.491   9.351  0.2619  0.5744  0.3625
   58CHL1   H20 6749   6.064   4.578   9.337  1.3077  0.1654  2.4008
   58CHL1   C21 6750   5.880   4.540   9.445 -0.0555  0.0788 -0.2358
   58CHL1  H21A 6751   5.815   4.603   9.381  1.6158  1.3654 -0.7205
   58CHL1  H21B 6752   5.907   4.610   9.528  3.1508 -1.6202  0.3324
   58CHL1  H21C 6753   5.822   4.455   9.488 -0.7367 -0.1868 -1.6294
   58CHL1   C22 6754   5.938   4.447   9.214 -0.4860  0.2810  0.1225
   58CHL1  H22A 6755   5.995   4.358   9.178  0.0755  0.5469  0.3454
   58CHL1  H22B 6756   5.834   4.414   9.232 -0.6124  0.4307 -0.3254
   58CHL1   C23 6757   5.939   4.547   9.099 -0.3401  0.0023 -0.9299
   58CHL1  H23A 6758   5.887   4.642   9.123  1.7326  0.7211  1.0521
   58CHL1  H23B 6759   6.042   4.577   9.072  0.9878 -2.7028  0.6722
   58CHL1   C24 6760   5.865   4.498   8.973 -0.7294 -0.0915  0.0282
   58CHL1  H24A 6761   5.920   4.413   8.928 -0.0776 -1.1050  2.5663
   58CHL1  H24B 6762   5.765   4.462   9.005 -1.4229 -0.1256 -2.0735
   58CHL1   C25 6763   5.838   4.602   8.863 -0.2544 -0.1347 -0.0838
   58CHL1   H25 6764   5.842   4.705   8.906 -1.0899  0.8911 -2.3135
   58CHL1   C26 6765   5.940   4.584   8.758  0.4169  0.1824  0.0139
   58CHL1  H26A 6766   6.042   4.615   8.791  1.3523 -1.6689 -0.9472
   58CHL1  H26B 6767   5.958   4.479   8.727  0.1710 -0.0666  0.6856
   58CHL1  H26C 6768   5.921   4.641   8.665 -1.8098 -2.5691 -1.3466
   58CHL1   C27 6769   5.697   4.593   8.804  0.6217  0.1656  0.6495
   58CHL1  H27A 6770   5.629   4.639   8.879 -0.6991  1.7034 -1.3718
   58CHL1  H27B 6771   5.687   4.663   8.718  3.2091 -0.3643 -0.1519
   58CHL1  H27C 6772   5.664   4.489   8.782  2.3018 -0.3555  0.4781
   59CHL1    C3 6773   4.300   2.373  10.448  0.2140 -0.2580  0.6405
   59CHL1    H3 6774   4.408   2.348  10.434  0.0824 -1.2638  1.3033
   59CHL1    O3 6775   4.279   2.391  10.584  0.3098 -0.0921  0.1732
   59CHL1   H3' 6776   4.185   2.404  10.599 -0.1309 -1.8313 -0.7739
   59CHL1    C4 6777   4.242   2.497  10.376 -0.6454 -0.1725 -0.2670
   59CHL1   H4A 6778   4.134   2.504  10.403 -0.4501  2.9397  0.0210
   59CHL1   H4B 6779   4.285   2.589  10.421  0.1482 -1.0669  0.8813
   59CHL1    C5 6780   4.259   2.492  10.225 -0.3645  0.0963 -0.3030
   59CHL1    C6 6781   4.324   2.584  10.160 -0.9546  0.0850  0.4068
   59CHL1    H6 6782   4.356   2.673  10.214 -0.4795 -0.5771  1.2322
   59CHL1    C7 6783   4.335   2.576  10.009  0.2279 -0.0575  0.2596
   59CHL1   H7A 6784   4.309   2.678   9.975  5.0272  2.1028  2.1471
   59CHL1   H7B 6785   4.439   2.556   9.975  0.0074 -1.2205  0.2144
   59CHL1    C8 6786   4.249   2.474   9.937 -0.2784  0.1634 -0.8036
   59CHL1    H8 6787   4.147   2.517   9.946  0.3765  1.2995  2.7566
   59CHL1   C14 6788   4.308   2.450   9.797  0.3464  0.6450 -0.4862
   59CHL1   H14 6789   4.412   2.415   9.814  0.1830  0.3943 -0.0031
   59CHL1   C15 6790   4.325   2.567   9.704  0.6299 -0.3506 -0.0216
   59CHL1  H15A 6791   4.227   2.621   9.702  1.1969  0.7249 -2.6083
   59CHL1  H15B 6792   4.406   2.636   9.736  0.6188 -0.5615  0.4741
   59CHL1   C16 6793   4.341   2.503   9.571 -0.3672 -0.3800 -0.1274
   59CHL1  H16A 6794   4.262   2.540   9.503 -0.5421 -0.8039 -0.1563
   59CHL1  H16B 6795   4.444   2.525   9.535  0.5674  0.0871  2.5782
   59CHL1   C17 6796   4.334   2.350   9.588 -0.0614 -0.4904 -0.1288
   59CHL1   H17 6797   4.437   2.319   9.616 -0.2648  0.9645  2.5979
   59CHL1   C13 6798   4.251   2.334   9.720  0.3462 -0.1599  0.0028
   59CHL1   C18 6799   4.108   2.370   9.683  0.0776  0.1013  0.7969
   59CHL1  H18A 6800   4.045   2.394   9.772  0.6951  0.9011  1.0335
   59CHL1  H18B 6801   4.091   2.455   9.613 -2.9005 -1.7978 -0.9967
   59CHL1  H18C 6802   4.064   2.287   9.624  0.6719  0.5463 -0.2997
   59CHL1   C12 6803   4.260   2.209   9.799  0.4374  0.6158  0.8614
   59CHL1  H12A 6804   4.206   2.127   9.747  2.5052  0.8760 -1.9062
   59CHL1  H12B 6805   4.365   2.183   9.820  0.7496  0.6704 -0.5376
   59CHL1   C11 6806   4.199   2.223   9.939  0.3289 -0.6667  0.1546
   59CHL1  H11A 6807   4.090   2.241   9.930  0.5992  0.2003 -1.8409
   59CHL1  H11B 6808   4.219   2.129   9.996  1.5743 -1.0925 -0.9305
   59CHL1    C9 6809   4.251   2.343  10.017 -0.2047  0.3360  0.6449
   59CHL1    H9 6810   4.357   2.314  10.029 -0.2264 -0.5735 -1.0555
   59CHL1   C10 6811   4.197   2.364  10.167 -0.1516  0.5974  1.0404
   59CHL1   C19 6812   4.045   2.376  10.172  0.6808  0.6351 -0.6808
   59CHL1  H19A 6813   3.998   2.284  10.132  1.9232  0.5084 -1.9038
   59CHL1  H19B 6814   4.008   2.382  10.276 -1.4200  2.2011 -1.4278
   59CHL1  H19C 6815   4.001   2.456  10.107 -1.3046  0.1769  0.0197
   59CHL1    C1 6816   4.246   2.240  10.249  0.6007  0.6271 -0.0889
   59CHL1   H1A 6817   4.181   2.154  10.223  0.8214  0.2907  0.4688
   59CHL1   H1B 6818   4.353   2.213  10.232  0.3117  0.5921 -2.1185
   59CHL1    C2 6819   4.230   2.249  10.401 -0.0586  0.3098  0.6104
   59CHL1   H2A 6820   4.283   2.166  10.451 -0.0182 -0.2627 -0.3542
   59CHL1   H2B 6821   4.126   2.239  10.437  0.4686  0.2407  2.1874
   59CHL1   C20 6822   4.306   2.269   9.457 -0.5785 -0.3390 -0.6029
   59CHL1   H20 6823   4.207   2.300   9.417 -0.6055  1.4684  0.7077
   59CHL1   C21 6824   4.288   2.118   9.492  0.6155  0.5916 -0.0635
   59CHL1  H21A 6825   4.372   2.079   9.555 -0.7274 -0.5574  1.0970
   59CHL1  H21B 6826   4.279   2.054   9.402  0.6639 -0.5805  0.7373
   59CHL1  H21C 6827   4.198   2.095   9.552 -2.1442  2.2254 -3.2700
   59CHL1   C22 6828   4.408   2.290   9.348 -0.4164  0.6021  0.0434
   59CHL1  H22A 6829   4.414   2.394   9.308 -0.3546 -0.4702 -2.9952
   59CHL1  H22B 6830   4.506   2.265   9.394 -0.5285 -0.7892 -0.4411
   59CHL1   C23 6831   4.385   2.203   9.230 -0.0875 -0.8109 -0.1704
   59CHL1  H23A 6832   4.406   2.095   9.238  0.8652 -0.5707  0.7521
   59CHL1  H23B 6833   4.285   2.220   9.184 -1.3541 -1.5137  2.1850
   59CHL1   C24 6834   4.486   2.250   9.122  0.2322  0.4843 -0.4777
   59CHL1  H24A 6835   4.472   2.357   9.097 -0.5836  0.6077  0.4790
   59CHL1  H24B 6836   4.591   2.232   9.155 -0.3921 -0.8516  0.8953
   59CHL1   C25 6837   4.474   2.161   8.992 -0.4644 -0.4231 -0.2671
   59CHL1   H25 6838   4.503   2.057   9.020 -0.7119 -0.4490 -0.1054
   59CHL1   C26 6839   4.336   2.140   8.921 -0.1746  0.1805 -0.3918
   59CHL1  H26A 6840   4.348   2.069   8.835  1.7557  0.2552 -0.2357
   59CHL1  H26B 6841   4.272   2.105   9.004 -2.1294 -1.2817 -2.3929
   59CHL1  H26C 6842   4.287   2.234   8.887 -3.8403 -0.9228  1.3418
   59CHL1   C27 6843   4.582   2.189   8.888 -0.1167  0.7074  0.5704
   59CHL1  H27A 6844   4.670   2.250   8.919 -1.1425  0.9603  3.2345
   59CHL1  H27B 6845   4.608   2.093   8.837  1.0827  0.6253  1.2916
   59CHL1  H27C 6846   4.540   2.249   8.805  0.2351 -0.4479 -0.4712
   60CHL1    C3 6847   4.459   1.927  10.415 -0.3661  0.5556 -0.7234
   60CHL1    H3 6848   4.362   1.982  10.411  1.0466  3.2208 -0.9381
   60CHL1    O3 6849   4.513   1.945  10.546  0.5224 -0.3178  0.1833
   60CHL1   H3' 6850   4.602   1.908  10.542  0.2796 -0.9784  0.5653
   60CHL1    C4 6851   4.451   1.777  10.387  0.8503 -0.2028  0.5472
   60CHL1   H4A 6852   4.548   1.728  10.409  0.1108 -1.4497  1.1482
   60CHL1   H4B 6853   4.384   1.731  10.463  0.9644  1.1089  1.4869
   60CHL1    C5 6854   4.408   1.759  10.239  0.1522 -0.3298 -0.1709
   60CHL1    C6 6855   4.301   1.685  10.205 -0.3761  0.0495  0.1820
   60CHL1    H6 6856   4.250   1.626  10.283 -2.7412 -0.0277 -1.3224
   60CHL1    C7 6857   4.256   1.643  10.068  0.3149 -0.1690  0.5047
   60CHL1   H7A 6858   4.244   1.532  10.066 -0.5739 -0.0712 -0.5572
   60CHL1   H7B 6859   4.160   1.690  10.038  1.5621  1.6421 -0.8812
   60CHL1    C8 6860   4.372   1.680   9.966  0.2944  0.9011 -0.4116
   60CHL1    H8 6861   4.451   1.603   9.980  1.5893  1.6508 -2.9899
   60CHL1   C14 6862   4.320   1.677   9.826 -0.9317 -0.6032  0.8260
   60CHL1   H14 6863   4.242   1.755   9.811  0.2709  0.4400 -0.1802
   60CHL1   C15 6864   4.255   1.548   9.780  0.5999 -0.8108  0.8040
   60CHL1  H15A 6865   4.327   1.467   9.808 -0.8811 -1.7507  2.0452
   60CHL1  H15B 6866   4.155   1.538   9.827 -1.4648 -2.1276 -3.4036
   60CHL1   C16 6867   4.240   1.578   9.623 -0.7510 -0.1236  0.0617
   60CHL1  H16A 6868   4.261   1.476   9.584  1.4705  0.0213  0.6915
   60CHL1  H16B 6869   4.137   1.589   9.585  0.0434  0.5198 -2.0310
   60CHL1   C17 6870   4.346   1.690   9.586  0.4465 -0.2651 -0.5380
   60CHL1   H17 6871   4.280   1.778   9.570 -0.7882 -1.0332  0.0966
   60CHL1   C13 6872   4.427   1.712   9.714  0.0055  0.4515 -0.4622
   60CHL1   C18 6873   4.538   1.607   9.717  0.6880  0.0549 -0.0008
   60CHL1  H18A 6874   4.499   1.510   9.679 -0.9354  1.1221 -1.1872
   60CHL1  H18B 6875   4.619   1.643   9.650  2.5373 -0.6811  1.7253
   60CHL1  H18C 6876   4.586   1.603   9.818 -0.8340 -1.0699  0.7150
   60CHL1   C12 6877   4.495   1.850   9.749  0.4463  0.9111  0.7251
   60CHL1  H12A 6878   4.580   1.878   9.683  0.2095 -1.2390 -0.5831
   60CHL1  H12B 6879   4.414   1.926   9.744 -0.6619 -0.2591  0.1828
   60CHL1   C11 6880   4.537   1.863   9.890 -0.2150 -0.1302  0.3719
   60CHL1  H11A 6881   4.629   1.801   9.897 -0.1510 -0.1538 -0.5545
   60CHL1  H11B 6882   4.578   1.965   9.901  1.4462 -0.7008 -0.2359
   60CHL1    C9 6883   4.431   1.822   9.995 -0.2480 -0.2148 -0.7700
   60CHL1    H9 6884   4.345   1.892   9.987  0.6782  1.1221  0.6835
   60CHL1   C10 6885   4.489   1.824  10.137 -0.4089  0.4099 -0.0603
   60CHL1   C19 6886   4.627   1.749  10.147 -1.1256  0.1174  0.1074
   60CHL1  H19A 6887   4.661   1.746  10.252  0.6048  0.1709 -0.4264
   60CHL1  H19B 6888   4.619   1.646  10.105 -1.3301 -0.6688  1.9995
   60CHL1  H19C 6889   4.701   1.810  10.091 -2.9248  0.5015 -2.0146
   60CHL1    C1 6890   4.499   1.974  10.170 -0.1390  0.2646  0.1849
   60CHL1   H1A 6891   4.564   2.026  10.097 -1.2945 -0.4202 -1.3797
   60CHL1   H1B 6892   4.398   2.020  10.159  0.9769  2.3244 -2.5944
   60CHL1    C2 6893   4.545   2.001  10.311 -0.3634 -0.5502  0.1269
   60CHL1   H2A 6894   4.551   2.110  10.330  3.1417 -0.9918  2.4740
   60CHL1   H2B 6895   4.652   1.972  10.322 -0.2848  0.2114  1.5639
   60CHL1   C20 6896   4.413   1.658   9.453 -0.7842 -0.5670  0.2061
   60CHL1   H20 6897   4.484   1.575   9.474  0.8040  0.7044  0.0114
   60CHL1   C21 6898   4.497   1.782   9.404  0.2075  0.2688  0.0885
   60CHL1  H21A 6899   4.553   1.767   9.309 -1.7343  0.8013 -1.2097
   60CHL1  H21B 6900   4.560   1.813   9.490 -2.0295  1.4055  1.4291
   60CHL1  H21C 6901   4.437   1.870   9.371 -0.3245 -0.4734 -0.9939
   60CHL1   C22 6902   4.317   1.611   9.348 -0.2076 -0.4009 -0.1644
   60CHL1  H22A 6903   4.297   1.508   9.383  0.6772 -0.0257  1.5506
   60CHL1  H22B 6904   4.232   1.678   9.369  2.3514  2.6733  1.3053
   60CHL1   C23 6905   4.365   1.612   9.202 -0.3839 -0.6001 -0.2490
   60CHL1  H23A 6906   4.391   1.712   9.161  0.4882  0.3897  2.4588
   60CHL1  H23B 6907   4.460   1.554   9.202 -0.5819 -0.9409 -1.3412
   60CHL1   C24 6908   4.263   1.542   9.113  0.2689  0.1359 -0.5988
   60CHL1  H24A 6909   4.212   1.461   9.169 -0.3022  1.0492  0.2214
   60CHL1  H24B 6910   4.180   1.616   9.108  2.0992  2.8843  3.7122
   60CHL1   C25 6911   4.310   1.505   8.972 -0.6044 -0.0521  0.1457
   60CHL1   H25 6912   4.226   1.449   8.925  0.8985 -0.8527 -1.7094
   60CHL1   C26 6913   4.333   1.634   8.883 -0.4930  0.5138  0.2985
   60CHL1  H26A 6914   4.243   1.699   8.875 -0.2086  0.7158 -2.3755
   60CHL1  H26B 6915   4.420   1.700   8.905  1.3610 -1.4908 -0.6264
   60CHL1  H26C 6916   4.360   1.602   8.780 -1.5108  0.1478  0.1364
   60CHL1   C27 6917   4.429   1.410   8.961  0.6747 -0.4730  0.5650
   60CHL1  H27A 6918   4.438   1.393   8.852  0.4279  0.0974  0.4518
   60CHL1  H27B 6919   4.525   1.460   8.989  0.8176 -0.0896 -0.5776
   60CHL1  H27C 6920   4.419   1.315   9.017  0.0438 -0.8314 -0.1432
   61CHL1    C3 6921   0.651   1.770  10.263 -0.0913  0.2145 -0.1253
   61CHL1    H3 6922   0.741   1.741  10.205 -1.3596  0.6069 -2.3838
   61CHL1    O3 6923   0.681   1.773  10.400  0.4197 -0.6029 -0.6245
   61CHL1   H3' 6924   0.612   1.829  10.438 -1.2101 -0.1138 -3.9473
   61CHL1    C4 6925   0.611   1.908  10.203 -0.1131  0.6015 -0.2043
   61CHL1   H4A 6926   0.526   1.956  10.256  0.8244  1.0356  0.9410
   61CHL1   H4B 6927   0.698   1.969  10.234  0.8833 -1.0787  0.4605
   61CHL1    C5 6928   0.588   1.917  10.055  0.4967  0.6490  0.8687
   61CHL1    C6 6929   0.654   2.001   9.976 -0.6066 -0.7992 -1.1430
   61CHL1    H6 6930   0.713   2.077  10.029 -0.1678 -2.9794  1.7876
   61CHL1    C7 6931   0.617   2.016   9.829  0.1627  0.3258  0.0279
   61CHL1   H7A 6932   0.583   2.119   9.805 -1.8464 -0.2203  0.3525
   61CHL1   H7B 6933   0.706   1.994   9.767 -0.4363  0.6719 -0.9637
   61CHL1    C8 6934   0.497   1.926   9.780 -0.2631  0.3151 -0.7547
   61CHL1    H8 6935   0.400   1.980   9.791 -0.3204 -0.2391  2.9103
   61CHL1   C14 6936   0.516   1.905   9.630  0.1433  0.5109  0.2050
   61CHL1   H14 6937   0.606   1.841   9.616  0.1475  0.2612  1.2442
   61CHL1   C15 6938   0.537   2.034   9.543 -0.0160  0.1802 -0.4227
   61CHL1  H15A 6939   0.473   2.117   9.580  0.8334  0.8627 -0.4483
   61CHL1  H15B 6940   0.636   2.082   9.558 -0.7092  1.7539 -0.6828
   61CHL1   C16 6941   0.511   1.982   9.400  0.3305  0.9890 -0.9575
   61CHL1  H16A 6942   0.439   2.038   9.337 -2.1666 -0.2796  0.6095
   61CHL1  H16B 6943   0.605   1.987   9.342  1.2424  2.7290  0.5527
   61CHL1   C17 6944   0.452   1.841   9.416 -0.1100 -0.5017  0.4605
   61CHL1   H17 6945   0.546   1.782   9.410  0.7209  0.8099  0.2482
   61CHL1   C13 6946   0.403   1.825   9.562  0.8633  0.6141  0.6681
   61CHL1   C18 6947   0.267   1.895   9.589 -0.4184  0.4092 -0.1832
   61CHL1  H18A 6948   0.265   1.995   9.542  0.7541  0.6933  0.3419
   61CHL1  H18B 6949   0.177   1.843   9.548 -2.0771  1.6442  1.6939
   61CHL1  H18C 6950   0.244   1.922   9.694 -1.5306  1.0321 -0.5710
   61CHL1   C12 6951   0.401   1.688   9.629  0.3336 -0.0635 -0.8952
   61CHL1  H12A 6952   0.318   1.626   9.589 -0.9959  0.3956  1.0244
   61CHL1  H12B 6953   0.502   1.649   9.605  1.4332  2.0803 -0.0568
   61CHL1   C11 6954   0.387   1.691   9.786  0.1348 -0.4432 -0.3328
   61CHL1  H11A 6955   0.284   1.730   9.805  0.4031  0.5979 -0.9083
   61CHL1  H11B 6956   0.389   1.587   9.825  0.6661  0.6189  2.7311
   61CHL1    C9 6957   0.492   1.786   9.854  0.3075 -0.1975  0.0667
   61CHL1    H9 6958   0.587   1.738   9.823 -1.1336 -0.9251 -3.6715
   61CHL1   C10 6959   0.490   1.808  10.007  0.2481 -0.0593 -0.4376
   61CHL1   C19 6960   0.349   1.849  10.050 -0.1873 -0.4378 -0.3833
   61CHL1  H19A 6961   0.290   1.756  10.043  2.3702 -2.1070 -1.6593
   61CHL1  H19B 6962   0.329   1.895  10.149 -1.3842  0.2869 -0.9434
   61CHL1  H19C 6963   0.306   1.908   9.967  1.8694 -0.1369 -1.3093
   61CHL1    C1 6964   0.515   1.670  10.076 -0.4021  0.4721  0.0767
   61CHL1   H1A 6965   0.429   1.607  10.043  1.4111 -2.6403  0.9113
   61CHL1   H1B 6966   0.610   1.638  10.030 -0.0515  0.8922  0.4878
   61CHL1    C2 6967   0.534   1.675  10.234  0.3442  0.1624 -0.3736
   61CHL1   H2A 6968   0.560   1.574  10.273 -4.1555 -1.0094  0.1238
   61CHL1   H2B 6969   0.440   1.706  10.284  1.3251  2.2646  0.3076
   61CHL1   C20 6970   0.359   1.798   9.303  0.1633 -0.1287  0.5674
   61CHL1   H20 6971   0.260   1.848   9.310 -0.3093 -0.9178 -0.3155
   61CHL1   C21 6972   0.330   1.652   9.302  0.2458  0.8258  0.3660
   61CHL1  H21A 6973   0.274   1.620   9.393  0.0740 -0.4990 -0.1869
   61CHL1  H21B 6974   0.427   1.603   9.322  0.5007  1.3405  0.3985
   61CHL1  H21C 6975   0.287   1.606   9.210 -3.9263  2.0360  1.4780
   61CHL1   C22 6976   0.410   1.832   9.163  0.3767 -0.1848 -0.3947
   61CHL1  H22A 6977   0.436   1.940   9.165  0.9215 -0.2820  2.4726
   61CHL1  H22B 6978   0.509   1.785   9.150  0.9872  1.0521 -0.3827
   61CHL1   C23 6979   0.319   1.793   9.046  0.2134 -0.4707  0.4404
   61CHL1  H23A 6980   0.319   1.683   9.030 -0.2796  0.0588 -4.6360
   61CHL1  H23B 6981   0.211   1.806   9.066 -0.3586 -2.7827 -0.8595
   61CHL1   C24 6982   0.354   1.866   8.915 -0.0590 -0.6128 -0.5110
   61CHL1  H24A 6983   0.310   1.968   8.910 -0.9919 -0.9884 -0.2345
   61CHL1  H24B 6984   0.463   1.870   8.897 -0.0563 -1.6390 -0.7742
   61CHL1   C25 6985   0.301   1.795   8.785  0.5676 -0.6217  0.2460
   61CHL1   H25 6986   0.305   1.686   8.806 -1.9098 -0.5409  1.4470
   61CHL1   C26 6987   0.154   1.827   8.760 -0.5441  0.5999  0.4033
   61CHL1  H26A 6988   0.093   1.820   8.853  0.5414  0.6430  1.1367
   61CHL1  H26B 6989   0.144   1.930   8.720 -0.7472  0.2944 -0.3587
   61CHL1  H26C 6990   0.118   1.763   8.676 -0.7845  0.9625  0.2290
   61CHL1   C27 6991   0.385   1.834   8.660 -0.2791 -0.2181 -0.5427
   61CHL1  H27A 6992   0.494   1.825   8.679  0.2129  1.3663 -2.3225
   61CHL1  H27B 6993   0.373   1.759   8.579 -2.1036  0.0507 -0.5512
   61CHL1  H27C 6994   0.358   1.937   8.627 -0.2134 -0.6339 -1.9833
   62CHL1    C3 6995   1.129   3.953  10.077 -0.2822 -1.2630  0.0329
   62CHL1    H3 6996   1.216   3.898  10.035  0.0216 -0.4338 -0.4481
   62CHL1    O3 6997   1.139   3.975  10.220 -0.2328  0.1181  0.4184
   62CHL1   H3' 6998   1.075   4.043  10.242 -0.3104  0.1046  0.2404
   62CHL1    C4 6999   1.123   4.092  10.006  0.5459  0.9231 -0.2367
   62CHL1   H4A 7000   1.036   4.155  10.033 -0.0184  0.2851 -0.5263
   62CHL1   H4B 7001   1.213   4.150  10.034 -0.3185  2.4890 -0.6149
   62CHL1    C5 7002   1.107   4.065   9.860 -0.2288  0.2592 -0.9293
   62CHL1    C6 7003   1.204   4.103   9.779  0.5325 -0.5526  0.3290
   62CHL1    H6 7004   1.284   4.162   9.825 -0.2639  0.6474  0.2137
   62CHL1    C7 7005   1.195   4.082   9.627  0.2402  0.2790  0.4015
   62CHL1   H7A 7006   1.229   4.174   9.575 -3.0111  1.3822  0.0505
   62CHL1   H7B 7007   1.270   4.004   9.602 -0.2899 -0.1193  0.0470
   62CHL1    C8 7008   1.049   4.045   9.583  0.8268  0.0479  0.3083
   62CHL1    H8 7009   0.980   4.131   9.594 -1.7804 -1.8971 -0.0097
   62CHL1   C14 7010   1.042   4.007   9.431 -0.9132 -0.1809 -0.5971
   62CHL1   H14 7011   1.103   3.914   9.429 -2.4344 -1.2334 -3.5683
   62CHL1   C15 7012   1.120   4.092   9.332 -0.0445  0.0609 -0.0001
   62CHL1  H15A 7013   1.110   4.202   9.341  0.6398  0.1921 -0.7271
   62CHL1  H15B 7014   1.227   4.066   9.352  0.4539 -0.4500 -2.8605
   62CHL1   C16 7015   1.066   4.044   9.196 -0.1672  0.0131 -0.2700
   62CHL1  H16A 7016   1.014   4.121   9.135  1.7419 -0.6975 -2.9304
   62CHL1  H16B 7017   1.153   4.006   9.139  0.6005 -1.3587  1.7030
   62CHL1   C17 7018   0.967   3.925   9.223  0.6933 -0.5987  0.2987
   62CHL1   H17 7019   1.032   3.834   9.227  1.5513 -0.3011 -3.4810
   62CHL1   C13 7020   0.911   3.953   9.367 -0.0903 -0.4210 -0.5749
   62CHL1   C18 7021   0.809   4.064   9.363  0.1127 -0.3408 -0.5881
   62CHL1  H18A 7022   0.721   4.057   9.295 -0.0733 -0.3111 -0.3524
   62CHL1  H18B 7023   0.771   4.094   9.463  0.0417 -0.8917 -0.4502
   62CHL1  H18C 7024   0.871   4.148   9.325  3.5218 -2.0903  0.6445
   62CHL1   C12 7025   0.873   3.837   9.458  0.2658 -0.6444  0.3101
   62CHL1  H12A 7026   0.779   3.789   9.424  0.6442  0.7082 -3.0143
   62CHL1  H12B 7027   0.955   3.762   9.458  0.3144 -0.6136 -0.7790
   62CHL1   C11 7028   0.860   3.878   9.612 -0.4320 -0.2775  0.9912
   62CHL1  H11A 7029   0.776   3.950   9.618 -2.1899 -2.2565  1.0564
   62CHL1  H11B 7030   0.832   3.788   9.671  0.4629 -0.3212  1.3761
   62CHL1    C9 7031   0.991   3.937   9.674 -0.4052 -0.1278  0.1302
   62CHL1    H9 7032   1.067   3.856   9.675  0.4026  0.5915 -1.0874
   62CHL1   C10 7033   0.985   3.984   9.818 -0.1900 -0.0280  0.3600
   62CHL1   C19 7034   0.856   4.068   9.837 -0.2129 -0.0305 -0.2668
   62CHL1  H19A 7035   0.834   4.136   9.752 -1.5055  1.7138  1.3621
   62CHL1  H19B 7036   0.772   3.996   9.845  0.6987 -1.2064 -0.9879
   62CHL1  H19C 7037   0.854   4.125   9.933  0.0827 -0.5108  0.0271
   62CHL1    C1 7038   0.981   3.856   9.902 -0.0151  0.2783  0.6466
   62CHL1   H1A 7039   0.895   3.787   9.890 -0.2768  0.6047  0.6171
   62CHL1   H1B 7040   1.066   3.788   9.878 -0.0186  0.1003  1.1236
   62CHL1    C2 7041   1.001   3.878  10.053 -0.2380 -0.1205 -0.3335
   62CHL1   H2A 7042   0.999   3.776  10.099 -0.8855  0.7118  1.6232
   62CHL1   H2B 7043   0.911   3.928  10.095  0.9849  0.3181  1.9300
   62CHL1   C20 7044   0.872   3.889   9.113  0.0779  0.0009  0.3758
   62CHL1   H20 7045   0.770   3.931   9.127  0.6762  1.7187 -0.1321
   62CHL1   C21 7046   0.854   3.738   9.121 -0.1382 -0.0538 -0.0302
   62CHL1  H21A 7047   0.770   3.704   9.056  2.0334 -0.8097 -2.6157
   62CHL1  H21B 7048   0.834   3.703   9.225 -1.8742 -2.3067 -1.0331
   62CHL1  H21C 7049   0.937   3.672   9.087 -1.0634 -0.6029 -1.2972
   62CHL1   C22 7050   0.905   3.940   8.970 -0.1622  0.5196  0.2958
   62CHL1  H22A 7051   0.915   4.051   8.971 -0.2989  0.5318  0.6076
   62CHL1  H22B 7052   1.007   3.903   8.946 -0.6669 -0.0459 -1.0828
   62CHL1   C23 7053   0.811   3.899   8.859  0.1925 -0.0760  1.3095
   62CHL1  H23A 7054   0.802   3.788   8.853  0.4976 -0.0155 -1.7798
   62CHL1  H23B 7055   0.720   3.957   8.887  1.5851  3.7697 -1.3426
   62CHL1   C24 7056   0.848   3.950   8.716 -0.0069 -0.1160  0.1330
   62CHL1  H24A 7057   0.892   4.052   8.724  0.4281 -0.4411  2.7268
   62CHL1  H24B 7058   0.934   3.894   8.674  0.3341 -0.5864  1.4323
   62CHL1   C25 7059   0.725   3.925   8.623 -0.0952 -0.7245 -0.4399
   62CHL1   H25 7060   0.639   3.952   8.687  0.3596 -1.7945  0.6643
   62CHL1   C26 7061   0.744   4.011   8.502  0.4157  0.0771  0.0204
   62CHL1  H26A 7062   0.838   3.994   8.445  0.1352  0.6898 -0.6389
   62CHL1  H26B 7063   0.665   3.995   8.425  0.9006  1.3964 -0.7914
   62CHL1  H26C 7064   0.748   4.119   8.524 -1.6274  0.3773 -0.8420
   62CHL1   C27 7065   0.699   3.779   8.587 -0.1161  0.4466  0.3168
   62CHL1  H27A 7066   0.703   3.712   8.676 -0.7892  0.1325  0.1124
   62CHL1  H27B 7067   0.596   3.763   8.549 -0.9483  1.6271  1.9374
   62CHL1  H27C 7068   0.779   3.761   8.512  0.1254  1.2551  0.3607
   63CHL1    C3 7069   3.198   5.304  10.513 -0.4390 -0.2234  0.0098
   63CHL1    H3 7070   3.111   5.372  10.500 -0.9952 -0.8069  0.6382
   63CHL1    O3 7071   3.210   5.271  10.652  0.2148 -0.4085 -0.2002
   63CHL1   H3' 7072   3.297   5.305  10.675  0.8401 -1.7218 -0.5104
   63CHL1    C4 7073   3.197   5.172  10.433 -0.3139 -0.1242 -0.6121
   63CHL1   H4A 7074   3.292   5.115  10.448 -0.0139  0.6726  0.6151
   63CHL1   H4B 7075   3.117   5.108  10.477 -1.2392  0.1259 -1.8919
   63CHL1    C5 7076   3.175   5.192  10.293 -0.2668 -0.2756  0.7163
   63CHL1    C6 7077   3.068   5.139  10.232 -0.0881  0.8720  0.5218
   63CHL1    H6 7078   2.999   5.076  10.289 -0.4094  2.5250  2.0454
   63CHL1    C7 7079   3.042   5.160  10.087  0.8722 -0.0729  0.4786
   63CHL1   H7A 7080   3.001   5.064  10.049 -1.0252  1.2735 -1.0583
   63CHL1   H7B 7081   2.965   5.236  10.065  0.7452 -0.1098  0.7809
   63CHL1    C8 7082   3.174   5.199  10.009  0.3179 -0.2398 -0.3530
   63CHL1    H8 7083   3.247   5.116  10.011  0.3523 -0.2306 -0.9686
   63CHL1   C14 7084   3.145   5.238   9.865  0.0304 -0.2750  0.2111
   63CHL1   H14 7085   3.080   5.327   9.870 -2.3078 -1.8713 -0.1447
   63CHL1   C15 7086   3.046   5.147   9.782  0.4030  0.2292  0.2548
   63CHL1  H15A 7087   3.081   5.043   9.799  0.5580 -0.0332 -1.5088
   63CHL1  H15B 7088   2.939   5.152   9.812  0.7174  0.7788  1.3466
   63CHL1   C16 7089   3.071   5.185   9.632 -0.6516  0.0318 -0.2876
   63CHL1  H16A 7090   3.106   5.096   9.576 -3.2377 -0.7990 -0.7233
   63CHL1  H16B 7091   2.974   5.219   9.589 -0.6201  0.1344 -0.2784
   63CHL1   C17 7092   3.174   5.308   9.639 -0.5214  0.6457 -0.6582
   63CHL1   H17 7093   3.129   5.408   9.652 -1.0423  0.6194 -2.0958
   63CHL1   C13 7094   3.251   5.274   9.768  0.0133 -0.3166  0.6369
   63CHL1   C18 7095   3.358   5.173   9.765  0.0195 -0.1577  0.3189
   63CHL1  H18A 7096   3.325   5.075   9.723 -0.9297  0.6105 -0.7615
   63CHL1  H18B 7097   3.442   5.208   9.702 -0.0914  0.2718  0.4049
   63CHL1  H18C 7098   3.386   5.134   9.866  0.9662  1.0591  0.5562
   63CHL1   C12 7099   3.307   5.399   9.839  0.4717 -0.2823  0.3086
   63CHL1  H12A 7100   3.399   5.439   9.792  0.2001  0.3191  0.2923
   63CHL1  H12B 7101   3.224   5.472   9.827  0.8246  0.0490 -0.1132
   63CHL1   C11 7102   3.350   5.381   9.987  0.0571  0.2585  0.2942
   63CHL1  H11A 7103   3.446   5.326   9.979 -0.2356 -0.0969 -1.1737
   63CHL1  H11B 7104   3.364   5.481  10.032  1.1832  2.0015 -3.5401
   63CHL1    C9 7105   3.238   5.316  10.079 -0.2102  0.5481  0.1520
   63CHL1    H9 7106   3.164   5.399  10.078  3.1368  3.8410 -3.0710
   63CHL1   C10 7107   3.276   5.284  10.225  0.3315  0.1132 -0.7998
   63CHL1   C19 7108   3.417   5.218  10.231 -0.2027 -0.5662 -0.1544
   63CHL1  H19A 7109   3.463   5.212  10.332 -0.9098  2.6987  0.4721
   63CHL1  H19B 7110   3.423   5.118  10.182 -3.3895  0.4585 -3.0619
   63CHL1  H19C 7111   3.492   5.280  10.177  1.3248 -1.8151  0.4413
   63CHL1    C1 7112   3.297   5.416  10.313 -0.4092  0.4445 -0.2698
   63CHL1   H1A 7113   3.388   5.474  10.286 -0.4293  0.1519 -0.9887
   63CHL1   H1B 7114   3.207   5.478  10.293 -0.0364  0.5084 -1.8547
   63CHL1    C2 7115   3.315   5.390  10.470  0.1096  0.7375  0.0025
   63CHL1   H2A 7116   3.311   5.488  10.522 -2.0419  0.4623  0.4355
   63CHL1   H2B 7117   3.415   5.351  10.498  0.4121  2.7399  2.0146
   63CHL1   C20 7118   3.255   5.309   9.510  0.5754  0.3034 -0.1870
   63CHL1   H20 7119   3.302   5.212   9.484  0.5580 -0.5337  2.5631
   63CHL1   C21 7120   3.355   5.418   9.510  0.6685 -0.4630 -0.3442
   63CHL1  H21A 7121   3.433   5.402   9.588 -0.5358 -0.7993  0.8200
   63CHL1  H21B 7122   3.307   5.518   9.519 -1.0915 -1.4366  1.8020
   63CHL1  H21C 7123   3.405   5.425   9.411  0.0580  1.6001 -0.5583
   63CHL1   C22 7124   3.151   5.349   9.397 -0.2158  0.2104 -0.4762
   63CHL1  H22A 7125   3.064   5.280   9.388  1.1027 -1.5430 -0.3767
   63CHL1  H22B 7126   3.113   5.453   9.400  0.9441  1.0508 -5.2694
   63CHL1   C23 7127   3.210   5.347   9.249  0.2225  0.5357 -0.1854
   63CHL1  H23A 7128   3.270   5.438   9.225  0.5739 -0.4638 -3.7066
   63CHL1  H23B 7129   3.256   5.251   9.217 -0.6279  0.4232 -1.0989
   63CHL1   C24 7130   3.098   5.368   9.148  0.3725  0.0743  0.6154
   63CHL1  H24A 7131   3.027   5.283   9.157 -0.1743  0.6249  1.6469
   63CHL1  H24B 7132   3.053   5.465   9.175 -0.4451  0.1195 -0.8216
   63CHL1   C25 7133   3.165   5.371   9.008  0.6454  0.6120  0.1235
   63CHL1   H25 7134   3.276   5.382   9.016  0.5897  1.8153 -0.5744
   63CHL1   C26 7135   3.139   5.236   8.938  0.3533 -0.4447 -0.3306
   63CHL1  H26A 7136   3.221   5.221   8.865  0.6231  1.7598 -0.5353
   63CHL1  H26B 7137   3.145   5.151   9.009 -1.5133  0.7750  1.3576
   63CHL1  H26C 7138   3.043   5.236   8.881  1.9049  1.5356 -3.2112
   63CHL1   C27 7139   3.115   5.494   8.919  0.0322 -0.2326  0.2125
   63CHL1  H27A 7140   3.005   5.489   8.911  0.1012 -0.0289 -1.1986
   63CHL1  H27B 7141   3.149   5.589   8.965 -1.2286  0.6963 -0.6929
   63CHL1  H27C 7142   3.162   5.490   8.818  2.5250 -0.5603  1.2924
   64CHL1    C3 7143   2.663   5.188  10.117  0.9156  0.6114 -0.0535
   64CHL1    H3 7144   2.770   5.216  10.103  0.4604  2.4225 -0.2466
   64CHL1    O3 7145   2.618   5.154  10.248 -0.6993  0.2832 -0.2400
   64CHL1   H3' 7146   2.522   5.146  10.240 -0.8045  1.4023 -0.2492
   64CHL1    C4 7147   2.574   5.297  10.079 -0.0784 -0.5838 -0.2102
   64CHL1   H4A 7148   2.464   5.292  10.095 -0.0949  0.6396  0.1500
   64CHL1   H4B 7149   2.610   5.379  10.144 -0.7011 -0.3021 -0.2228
   64CHL1    C5 7150   2.589   5.335   9.934 -0.3109 -0.6059 -0.4471
   64CHL1    C6 7151   2.631   5.460   9.901 -0.5289  0.2945  0.6762
   64CHL1    H6 7152   2.631   5.532   9.984 -0.3647  1.0093  0.0701
   64CHL1    C7 7153   2.650   5.513   9.765  0.2856  0.7478 -0.2632
   64CHL1   H7A 7154   2.594   5.609   9.756 -1.1791  0.3199  2.9279
   64CHL1   H7B 7155   2.757   5.538   9.754  0.4619  0.2796  0.3806
   64CHL1    C8 7156   2.602   5.412   9.657 -0.1563 -0.3345  0.2894
   64CHL1    H8 7157   2.491   5.414   9.661 -0.2297 -1.1382 -0.9725
   64CHL1   C14 7158   2.661   5.455   9.526  0.3116  0.2472  0.4535
   64CHL1   H14 7159   2.772   5.457   9.531  0.4377 -2.1909 -0.2554
   64CHL1   C15 7160   2.615   5.592   9.482 -0.4541  0.1376 -0.4112
   64CHL1  H15A 7161   2.510   5.625   9.491  0.0442  2.4057 -1.8166
   64CHL1  H15B 7162   2.668   5.668   9.543 -2.6077 -0.4041  2.3101
   64CHL1   C16 7163   2.653   5.588   9.332 -0.1901 -0.1413  0.1218
   64CHL1  H16A 7164   2.575   5.621   9.260 -0.4042 -0.2074  0.3221
   64CHL1  H16B 7165   2.745   5.644   9.307 -1.3641  1.0730 -1.6992
   64CHL1   C17 7166   2.680   5.443   9.297 -0.4356  0.3239 -0.1204
   64CHL1   H17 7167   2.790   5.443   9.312 -0.5328  0.2410  0.6735
   64CHL1   C13 7168   2.622   5.366   9.408  0.5771  0.6981 -1.4561
   64CHL1   C18 7169   2.464   5.361   9.393  0.1643 -0.1969  0.9234
   64CHL1  H18A 7170   2.431   5.271   9.335  1.7702 -0.6108  0.6039
   64CHL1  H18B 7171   2.406   5.339   9.485 -1.0198 -0.3575  0.1668
   64CHL1  H18C 7172   2.418   5.451   9.347 -0.3557 -0.1229  1.5652
   64CHL1   C12 7173   2.670   5.221   9.444  0.2571  0.0302 -0.5791
   64CHL1  H12A 7174   2.636   5.147   9.368  0.9513 -1.8720  0.8816
   64CHL1  H12B 7175   2.780   5.211   9.448  0.2070 -0.8604 -1.0008
   64CHL1   C11 7176   2.611   5.172   9.580  0.1053  0.0096  0.4550
   64CHL1  H11A 7177   2.505   5.144   9.559  0.2462 -1.1825  1.2120
   64CHL1  H11B 7178   2.661   5.073   9.595  1.8816  0.6585 -0.8438
   64CHL1    C9 7179   2.637   5.265   9.692  0.1349 -0.5004 -0.1119
   64CHL1    H9 7180   2.743   5.269   9.725 -0.5539 -1.2151  2.3733
   64CHL1   C10 7181   2.574   5.227   9.831  0.4932  1.0380  0.0444
   64CHL1   C19 7182   2.419   5.204   9.807 -0.0502 -0.3543 -0.7896
   64CHL1  H19A 7183   2.369   5.284   9.749 -0.5308  0.1845  0.3256
   64CHL1  H19B 7184   2.403   5.109   9.752  0.9455 -0.7109 -0.4895
   64CHL1  H19C 7185   2.375   5.191   9.908  0.3037 -0.0653 -0.5983
   64CHL1    C1 7186   2.642   5.095   9.879 -0.5066  0.2993 -1.1465
   64CHL1   H1A 7187   2.602   5.004   9.830  1.0435 -1.3997  0.5642
   64CHL1   H1B 7188   2.751   5.096   9.855  0.3291 -3.2481  1.7175
   64CHL1    C2 7189   2.631   5.078  10.025  0.4859  0.4801  0.2557
   64CHL1   H2A 7190   2.687   4.987  10.054 -0.4871 -0.8855 -1.8720
   64CHL1   H2B 7191   2.532   5.031  10.045  2.1485 -3.0331  1.0239
   64CHL1   C20 7192   2.639   5.410   9.152  0.4891  0.4609  0.3897
   64CHL1   H20 7193   2.531   5.427   9.131  0.2704 -2.2233 -1.0148
   64CHL1   C21 7194   2.674   5.256   9.121  0.0698  0.1904 -0.2940
   64CHL1  H21A 7195   2.661   5.222   9.016  0.1467  0.3627 -0.3600
   64CHL1  H21B 7196   2.599   5.196   9.177  0.8574  0.1562  0.7498
   64CHL1  H21C 7197   2.769   5.225   9.168 -1.4790  1.0900  3.8322
   64CHL1   C22 7198   2.708   5.504   9.048 -0.6774 -0.4355 -0.5343
   64CHL1  H22A 7199   2.658   5.603   9.053  1.0171  0.3988  1.4966
   64CHL1  H22B 7200   2.816   5.520   9.071 -0.2692  1.8167 -3.3233
   64CHL1   C23 7201   2.698   5.454   8.905  0.1755 -0.1511  0.6602
   64CHL1  H23A 7202   2.784   5.386   8.885 -0.0967 -0.2949 -0.0425
   64CHL1  H23B 7203   2.607   5.393   8.890  1.2897 -2.0972  1.3945
   64CHL1   C24 7204   2.715   5.577   8.810  0.4631  0.0062  0.9423
   64CHL1  H24A 7205   2.630   5.642   8.839  2.1754  2.3470  1.0182
   64CHL1  H24B 7206   2.813   5.624   8.835 -0.5585  3.0347 -0.2578
   64CHL1   C25 7207   2.723   5.547   8.662  0.3127 -0.4000  0.1551
   64CHL1   H25 7208   2.735   5.437   8.645 -2.0315 -0.5895 -0.5695
   64CHL1   C26 7209   2.591   5.584   8.598 -0.9250 -0.5644 -0.0925
   64CHL1  H26A 7210   2.565   5.691   8.614 -1.9377 -0.8339  0.1367
   64CHL1  H26B 7211   2.592   5.571   8.488 -1.5208 -0.6383 -0.0904
   64CHL1  H26C 7212   2.513   5.525   8.650 -0.1724 -0.0522  1.7243
   64CHL1   C27 7213   2.846   5.610   8.593  0.0306  0.5290 -0.1467
   64CHL1  H27A 7214   2.845   5.582   8.485  3.9300  1.1242 -0.4727
   64CHL1  H27B 7215   2.828   5.719   8.604 -1.7745  0.3436 -0.9648
   64CHL1  H27C 7216   2.943   5.576   8.635  1.0966  0.2189 -2.6754
   65CHL1    C3 7217   5.632   3.681  10.183 -0.5903  0.3900 -0.0307
   65CHL1    H3 7218   5.540   3.638  10.228  0.5028 -0.3106  1.6238
   65CHL1    O3 7219   5.716   3.706  10.292 -0.2098 -0.2679 -0.0116
   65CHL1   H3' 7220   5.668   3.777  10.336 -1.2678 -1.9065  1.5656
   65CHL1    C4 7221   5.706   3.569  10.097 -0.0027 -0.6485  0.2749
   65CHL1   H4A 7222   5.810   3.606  10.082  0.2803 -1.5650 -0.1332
   65CHL1   H4B 7223   5.712   3.475  10.156 -0.9080 -0.6304  0.4062
   65CHL1    C5 7224   5.647   3.542   9.952 -0.0610  0.4309 -0.1205
   65CHL1    C6 7225   5.606   3.417   9.909 -0.3434  0.2487  0.0908
   65CHL1    H6 7226   5.623   3.332   9.977  2.4054 -0.9166 -1.8585
   65CHL1    C7 7227   5.550   3.393   9.772 -0.6054  0.0432  0.1830
   65CHL1   H7A 7228   5.589   3.297   9.730  0.1536  0.3460  0.1823
   65CHL1   H7B 7229   5.439   3.381   9.773 -0.5366 -0.9475  2.3339
   65CHL1    C8 7230   5.580   3.503   9.668 -1.3033  0.0053 -0.6935
   65CHL1    H8 7231   5.689   3.495   9.647 -1.0947 -1.8578  0.8869
   65CHL1   C14 7232   5.498   3.496   9.547  0.6823  0.2406 -0.2706
   65CHL1   H14 7233   5.392   3.516   9.575  0.0804 -1.7199 -0.9230
   65CHL1   C15 7234   5.497   3.360   9.486  0.1740 -0.0692 -0.1103
   65CHL1  H15A 7235   5.602   3.326   9.473  0.8220  1.0375  1.7786
   65CHL1  H15B 7236   5.426   3.288   9.533 -0.5424  0.6770 -0.0307
   65CHL1   C16 7237   5.437   3.389   9.346 -0.1320 -0.1919 -0.1453
   65CHL1  H16A 7238   5.504   3.344   9.270  0.4494  0.7769 -0.2263
   65CHL1  H16B 7239   5.333   3.351   9.339 -0.6984  0.6626  2.5763
   65CHL1   C17 7240   5.449   3.545   9.321  0.0864  0.2513  0.1265
   65CHL1   H17 7241   5.346   3.581   9.343 -0.4050 -0.2919 -1.2105
   65CHL1   C13 7242   5.537   3.593   9.435  0.0133 -0.2648  0.5059
   65CHL1   C18 7243   5.688   3.570   9.396  0.0306  0.0669 -0.9041
   65CHL1  H18A 7244   5.759   3.577   9.482  1.1146 -1.6469 -1.6244
   65CHL1  H18B 7245   5.691   3.471   9.348 -1.0116  0.0903 -1.0382
   65CHL1  H18C 7246   5.720   3.646   9.321  1.4027  0.7513  0.3145
   65CHL1   C12 7247   5.500   3.733   9.497  0.2070  0.3104 -0.3933
   65CHL1  H12A 7248   5.543   3.807   9.427  2.7561 -1.9400 -1.3936
   65CHL1  H12B 7249   5.390   3.744   9.486  0.2247  0.1277 -0.7716
   65CHL1   C11 7250   5.564   3.759   9.628 -0.5382 -0.0046  0.1914
   65CHL1  H11A 7251   5.672   3.772   9.604 -0.6458 -0.3106 -0.4988
   65CHL1  H11B 7252   5.517   3.852   9.665 -1.1065  0.0199 -0.5723
   65CHL1    C9 7253   5.553   3.642   9.729 -0.4681 -0.6978  0.1161
   65CHL1    H9 7254   5.444   3.643   9.752 -0.7710  0.2088 -1.2284
   65CHL1   C10 7255   5.635   3.670   9.863 -0.0032 -0.5326 -0.6120
   65CHL1   C19 7256   5.772   3.727   9.830 -0.3775  0.1239  0.1448
   65CHL1  H19A 7257   5.828   3.741   9.925 -1.8148 -0.3390  1.0981
   65CHL1  H19B 7258   5.836   3.653   9.778  0.2924  1.4227 -0.9269
   65CHL1  H19C 7259   5.777   3.827   9.782  0.0947  0.1418  0.2296
   65CHL1    C1 7260   5.553   3.773   9.951 -0.8046 -0.7556 -0.7572
   65CHL1   H1A 7261   5.541   3.867   9.894 -2.6655  0.1840  1.0293
   65CHL1   H1B 7262   5.448   3.739   9.968 -0.8209 -0.1205  0.5511
   65CHL1    C2 7263   5.610   3.803  10.092 -0.5211 -0.5793 -0.0219
   65CHL1   H2A 7264   5.538   3.871  10.143  1.4847  1.7711 -0.1510
   65CHL1   H2B 7265   5.709   3.853  10.084 -1.6281  2.1563  1.6841
   65CHL1   C20 7266   5.486   3.585   9.178 -0.2115  0.0908  0.3842
   65CHL1   H20 7267   5.586   3.545   9.153 -0.3921  0.4860 -1.0985
   65CHL1   C21 7268   5.490   3.743   9.175  0.5677  0.6076 -0.1963
   65CHL1  H21A 7269   5.408   3.787   9.234 -0.0268 -2.2032  1.2256
   65CHL1  H21B 7270   5.495   3.782   9.071 -3.4755 -2.2792 -1.6799
   65CHL1  H21C 7271   5.585   3.781   9.220 -0.1989  0.2384  1.8171
   65CHL1   C22 7272   5.392   3.515   9.074  0.7011 -0.0243  0.4959
   65CHL1  H22A 7273   5.380   3.407   9.096  0.6436 -0.2106 -0.4103
   65CHL1  H22B 7274   5.290   3.558   9.081  0.6800  0.2744 -1.2548
   65CHL1   C23 7275   5.423   3.535   8.928 -0.5176 -0.5989  0.3897
   65CHL1  H23A 7276   5.427   3.642   8.899  0.5527 -0.9673 -0.9217
   65CHL1  H23B 7277   5.528   3.504   8.912 -0.1180 -0.1995  2.0533
   65CHL1   C24 7278   5.322   3.475   8.831 -0.2670  0.8024  0.4980
   65CHL1  H24A 7279   5.291   3.371   8.856  0.7439  0.4856  0.4527
   65CHL1  H24B 7280   5.239   3.548   8.819  0.8491  1.9262 -0.6113
   65CHL1   C25 7281   5.386   3.465   8.689  0.2233  0.6454 -0.0514
   65CHL1   H25 7282   5.432   3.562   8.661  0.1451 -0.0981 -3.1798
   65CHL1   C26 7283   5.493   3.354   8.678  0.2613 -0.1252 -0.4926
   65CHL1  H26A 7284   5.527   3.347   8.573  0.5601 -3.1619 -0.3012
   65CHL1  H26B 7285   5.572   3.358   8.757  0.7797 -1.0644 -0.9504
   65CHL1  H26C 7286   5.424   3.268   8.693  1.3845 -0.6905  1.8784
   65CHL1   C27 7287   5.286   3.455   8.583  0.5162 -0.2749  0.2626
   65CHL1  H27A 7288   5.243   3.352   8.577 -0.5058  0.0174  1.8770
   65CHL1  H27B 7289   5.195   3.518   8.588 -0.0384 -0.9344 -0.9918
   65CHL1  H27C 7290   5.325   3.475   8.481 -0.1689  0.7367  0.1856
   66CHL1    C3 7291   2.758   1.455  10.603  0.1567  0.5217  0.3254
   66CHL1    H3 7292   2.850   1.446  10.542  2.0555  1.1014  2.9112
   66CHL1    O3 7293   2.789   1.534  10.718  0.1838 -0.0109 -0.3437
   66CHL1   H3' 7294   2.738   1.507  10.795  0.9817  3.0982  1.4383
   66CHL1    C4 7295   2.662   1.536  10.517 -0.0141  0.1738 -0.8551
   66CHL1   H4A 7296   2.573   1.557  10.581  0.2166 -3.5605  0.9306
   66CHL1   H4B 7297   2.698   1.635  10.480  1.1062  0.0930 -0.0392
   66CHL1    C5 7298   2.613   1.457  10.392 -0.4458 -0.5321 -0.9238
   66CHL1    C6 7299   2.620   1.511  10.276 -0.6087  0.7875 -0.2578
   66CHL1    H6 7300   2.639   1.619  10.270 -0.7153  0.7774 -0.9475
   66CHL1    C7 7301   2.570   1.440  10.156 -0.1105 -0.1832 -0.2798
   66CHL1   H7A 7302   2.510   1.500  10.084 -0.6288 -2.3695 -1.7844
   66CHL1   H7B 7303   2.663   1.408  10.104  0.1977  1.0929 -0.5310
   66CHL1    C8 7304   2.483   1.316  10.180  0.5248  0.3512 -0.0931
   66CHL1    H8 7305   2.379   1.346  10.206  0.8883  1.0707  0.6022
   66CHL1   C14 7306   2.487   1.229  10.052  0.0351 -0.0094  0.2728
   66CHL1   H14 7307   2.595   1.202  10.047  0.3583  0.7185  2.4623
   66CHL1   C15 7308   2.447   1.293   9.924  0.3821  0.1986  0.2210
   66CHL1  H15A 7309   2.359   1.358   9.942 -0.0504 -0.7166  1.5872
   66CHL1  H15B 7310   2.535   1.346   9.883  1.2746 -3.2669 -2.9091
   66CHL1   C16 7311   2.416   1.173   9.823 -1.1589  0.0493 -0.0961
   66CHL1  H16A 7312   2.317   1.187   9.773 -0.5307  2.9704 -0.7032
   66CHL1  H16B 7313   2.500   1.176   9.750 -0.0017  0.8203  1.2187
   66CHL1   C17 7314   2.412   1.045   9.913 -0.4585  0.7064  0.1483
   66CHL1   H17 7315   2.512   0.999   9.899 -0.8255 -0.5013  1.3137
   66CHL1   C13 7316   2.401   1.103  10.056  0.9261  0.1351  0.0800
   66CHL1   C18 7317   2.250   1.135  10.082 -0.4358  0.1067  0.3314
   66CHL1  H18A 7318   2.190   1.043  10.067  0.5706 -0.3453 -1.2077
   66CHL1  H18B 7319   2.222   1.163  10.186 -1.7793  1.6637 -0.4168
   66CHL1  H18C 7320   2.207   1.213  10.016 -1.4135 -0.6731  0.0275
   66CHL1   C12 7321   2.461   1.012  10.170  0.1507  0.0690 -0.5117
   66CHL1  H12A 7322   2.389   0.932  10.198  0.4106  0.3744  1.1455
   66CHL1  H12B 7323   2.564   0.974  10.149  0.4742  0.4647  0.3431
   66CHL1   C11 7324   2.478   1.094  10.305  0.3141 -0.4341 -0.2053
   66CHL1  H11A 7325   2.373   1.100  10.339 -0.3882 -1.1134 -2.1514
   66CHL1  H11B 7326   2.540   1.038  10.379  1.7729  2.0816  0.6224
   66CHL1    C9 7327   2.542   1.226  10.288 -0.5050  0.3632  0.0747
   66CHL1    H9 7328   2.641   1.198  10.246 -0.6237  1.9765 -1.3573
   66CHL1   C10 7329   2.574   1.309  10.414  0.1568 -0.1452 -0.2389
   66CHL1   C19 7330   2.440   1.313  10.497  0.2327 -0.3938  0.2895
   66CHL1  H19A 7331   2.459   1.374  10.587  1.0627  1.3036 -0.9814
   66CHL1  H19B 7332   2.358   1.357  10.436  0.5732  0.3288  0.3423
   66CHL1  H19C 7333   2.416   1.212  10.538 -0.2338  0.4648  2.2071
   66CHL1    C1 7334   2.673   1.232  10.511 -0.4500 -0.6969  0.4304
   66CHL1   H1A 7335   2.638   1.130  10.540  0.8323 -0.4414  3.2110
   66CHL1   H1B 7336   2.767   1.213  10.454 -0.9873  1.0645 -1.1239
   66CHL1    C2 7337   2.715   1.308  10.642 -0.1331  0.9003  0.1989
   66CHL1   H2A 7338   2.806   1.261  10.684 -1.0041  0.4951  1.7176
   66CHL1   H2B 7339   2.628   1.298  10.711 -0.6947  0.6072 -0.5380
   66CHL1   C20 7340   2.316   0.937   9.858 -0.1575  0.4771  0.6694
   66CHL1   H20 7341   2.212   0.978   9.855  0.5745  2.4311 -0.8376
   66CHL1   C21 7342   2.320   0.821   9.940  0.8735 -0.4488 -0.7586
   66CHL1  H21A 7343   2.420   0.780   9.963  0.4609 -1.7159 -1.1537
   66CHL1  H21B 7344   2.245   0.745   9.909 -0.3609 -0.0936  1.2214
   66CHL1  H21C 7345   2.283   0.852  10.040  1.5775  0.2200 -0.6897
   66CHL1   C22 7346   2.344   0.892   9.712  0.3559  0.2628 -0.1735
   66CHL1  H22A 7347   2.454   0.880   9.720  0.1658 -0.7268  1.2228
   66CHL1  H22B 7348   2.301   0.792   9.689  0.4935 -0.2600  1.7062
   66CHL1   C23 7349   2.306   0.990   9.597 -0.0071  0.2215 -0.0413
   66CHL1  H23A 7350   2.210   1.041   9.622 -0.2110 -0.4242  0.5279
   66CHL1  H23B 7351   2.383   1.067   9.575  0.8934 -1.0020 -1.3356
   66CHL1   C24 7352   2.286   0.921   9.463  0.6470  0.2982  0.2729
   66CHL1  H24A 7353   2.374   0.856   9.444  1.3313  1.1041  0.6136
   66CHL1  H24B 7354   2.200   0.853   9.482  0.7926  0.0844  0.1685
   66CHL1   C25 7355   2.252   1.007   9.343 -0.0539  0.0705 -0.1286
   66CHL1   H25 7356   2.257   0.937   9.257 -1.2262 -1.2800  0.8423
   66CHL1   C26 7357   2.108   1.065   9.345  0.1750 -0.4037  1.3095
   66CHL1  H26A 7358   2.087   1.122   9.252 -0.5732 -0.6252  1.3371
   66CHL1  H26B 7359   2.035   0.983   9.331  0.2706 -0.1688 -1.0415
   66CHL1  H26C 7360   2.087   1.128   9.433  0.3674  1.5389  0.0281
   66CHL1   C27 7361   2.354   1.118   9.327  0.1476 -0.4261  1.5918
   66CHL1  H27A 7362   2.344   1.165   9.227 -0.7883 -0.6720  1.5576
   66CHL1  H27B 7363   2.338   1.198   9.403 -2.6728  1.5856 -0.8592
   66CHL1  H27C 7364   2.459   1.085   9.334  0.6907  0.9209  0.2827
   67CHL1    C3 7365   0.418   1.164  10.331 -0.0262 -0.2783  0.8789
   67CHL1    H3 7366   0.501   1.094  10.355  0.8296  1.1735  2.3864
   67CHL1    O3 7367   0.364   1.195  10.456 -0.6950  0.3605  0.5106
   67CHL1   H3' 7368   0.418   1.267  10.488  2.4604 -2.2713  1.6633
   67CHL1    C4 7369   0.468   1.285  10.264  0.1940 -0.1547 -0.4879
   67CHL1   H4A 7370   0.393   1.367  10.263 -0.2891 -0.5967 -0.7745
   67CHL1   H4B 7371   0.546   1.327  10.331 -0.6231  1.9791 -0.7952
   67CHL1    C5 7372   0.509   1.269  10.119  0.7802 -0.1221 -0.4059
   67CHL1    C6 7373   0.632   1.303  10.076  0.5095  0.6758  0.0699
   67CHL1    H6 7374   0.707   1.348  10.143  0.7254  0.7319 -0.2072
   67CHL1    C7 7375   0.670   1.293   9.937  0.4380 -0.5084 -0.1429
   67CHL1   H7A 7376   0.723   1.384   9.902  0.5449 -0.8893 -0.9913
   67CHL1   H7B 7377   0.734   1.203   9.927  2.2662  0.6375  0.7051
   67CHL1    C8 7378   0.555   1.270   9.834  0.4985 -0.0532  0.6363
   67CHL1    H8 7379   0.500   1.367   9.828 -0.0412 -0.4477 -2.7668
   67CHL1   C14 7380   0.603   1.222   9.704 -0.4564 -0.1478 -0.8935
   67CHL1   H14 7381   0.655   1.132   9.741 -1.0512  0.0687  0.5617
   67CHL1   C15 7382   0.711   1.302   9.629 -0.3150 -0.1984  0.1002
   67CHL1  H15A 7383   0.673   1.402   9.600  1.4041  0.2739 -0.6352
   67CHL1  H15B 7384   0.810   1.316   9.677 -0.5783  0.0392  0.5764
   67CHL1   C16 7385   0.726   1.215   9.501 -0.9797  0.2128 -0.2854
   67CHL1  H16A 7386   0.736   1.276   9.408 -1.4771  1.1358  0.2522
   67CHL1  H16B 7387   0.819   1.155   9.505 -0.6260  0.6518 -1.3869
   67CHL1   C17 7388   0.598   1.124   9.494 -0.0589 -0.0709  0.3316
   67CHL1   H17 7389   0.622   1.023   9.533  3.0937  0.7153  0.7161
   67CHL1   C13 7390   0.504   1.178   9.601 -0.1697 -0.3595  0.3389
   67CHL1   C18 7391   0.424   1.298   9.543 -0.0425  0.3828 -0.5299
   67CHL1  H18A 7392   0.336   1.264   9.485 -2.0175  0.2391  2.3207
   67CHL1  H18B 7393   0.368   1.341   9.629  0.7330 -0.6587  0.5265
   67CHL1  H18C 7394   0.482   1.374   9.486  1.1152 -1.9609 -2.6530
   67CHL1   C12 7395   0.404   1.080   9.658  0.9855  0.8991 -0.1025
   67CHL1  H12A 7396   0.328   1.054   9.581  1.2779  0.0701 -0.1197
   67CHL1  H12B 7397   0.458   0.989   9.693 -3.6924 -1.5808  1.4689
   67CHL1   C11 7398   0.340   1.132   9.787  0.9368  0.1336  0.1149
   67CHL1  H11A 7399   0.281   1.218   9.749  1.8952 -0.4489 -2.9872
   67CHL1  H11B 7400   0.269   1.055   9.824 -0.7312  1.6308  0.1572
   67CHL1    C9 7401   0.451   1.168   9.892  0.1181  0.2036  0.1384
   67CHL1    H9 7402   0.504   1.073   9.913  1.6265  0.7942 -0.8584
   67CHL1   C10 7403   0.402   1.208  10.033  0.1164  0.3394 -0.0884
   67CHL1   C19 7404   0.289   1.312  10.011 -0.5673 -0.4426 -1.0270
   67CHL1  H19A 7405   0.243   1.357  10.101  0.4101  1.3351 -1.3613
   67CHL1  H19B 7406   0.324   1.399   9.952  2.1670  0.3192  1.5047
   67CHL1  H19C 7407   0.200   1.268   9.961 -1.2439 -0.8651  0.4919
   67CHL1    C1 7408   0.342   1.077  10.095  0.6629 -1.0714  0.0633
   67CHL1   H1A 7409   0.249   1.035  10.052 -1.5802  1.0625  2.5005
   67CHL1   H1B 7410   0.418   0.995  10.094 -1.2650 -2.9548  0.5215
   67CHL1    C2 7411   0.306   1.098  10.242  0.1123 -0.2944 -0.0060
   67CHL1   H2A 7412   0.277   1.001  10.288 -0.4122  0.4791  1.3612
   67CHL1   H2B 7413   0.212   1.157  10.236  0.3316  0.0005 -0.5413
   67CHL1   C20 7414   0.538   1.099   9.349 -0.4635 -0.1466 -0.1302
   67CHL1   H20 7415   0.434   1.065   9.370 -0.1171 -1.0630  0.1636
   67CHL1   C21 7416   0.618   0.977   9.293 -0.3793 -0.2626  0.3042
   67CHL1  H21A 7417   0.617   0.894   9.367 -2.0847 -1.5069 -1.0442
   67CHL1  H21B 7418   0.721   1.003   9.263 -0.4150 -1.1110 -0.6042
   67CHL1  H21C 7419   0.552   0.940   9.211  1.2173 -0.5422 -0.8853
   67CHL1   C22 7420   0.548   1.218   9.249 -0.7660 -0.3680  0.4857
   67CHL1  H22A 7421   0.500   1.303   9.303 -0.0003  0.0581  0.5065
   67CHL1  H22B 7422   0.653   1.251   9.235 -0.1950 -0.8694  3.0691
   67CHL1   C23 7423   0.488   1.198   9.111  1.0575 -0.1812  0.1151
   67CHL1  H23A 7424   0.546   1.116   9.063  1.2030 -1.1259  1.8340
   67CHL1  H23B 7425   0.392   1.147   9.129  1.8203 -2.7597 -2.3566
   67CHL1   C24 7426   0.469   1.321   9.026 -0.5791  0.7622  0.6037
   67CHL1  H24A 7427   0.407   1.289   8.939  0.3150  0.7411 -0.0369
   67CHL1  H24B 7428   0.403   1.391   9.082 -2.6902 -1.0898  0.5781
   67CHL1   C25 7429   0.598   1.381   8.973 -0.0325  0.8996 -1.5265
   67CHL1   H25 7430   0.672   1.298   8.974 -0.3452  0.5021  2.0675
   67CHL1   C26 7431   0.566   1.436   8.833 -0.1051 -0.0939 -0.6753
   67CHL1  H26A 7432   0.485   1.511   8.841 -0.7117 -0.6442 -1.4342
   67CHL1  H26B 7433   0.655   1.490   8.796 -1.8682  3.2506 -0.3691
   67CHL1  H26C 7434   0.535   1.349   8.771 -0.4663 -0.0374 -0.5783
   67CHL1   C27 7435   0.640   1.488   9.069 -0.0562 -0.5275  0.3234
   67CHL1  H27A 7436   0.555   1.558   9.074 -0.9612 -1.4893 -0.8695
   67CHL1  H27B 7437   0.661   1.444   9.169  0.0828 -1.2757 -0.0240
   67CHL1  H27C 7438   0.734   1.541   9.043 -0.1576  0.2071  1.3842
   68CHL1    C3 7439   3.432   1.981  10.340 -0.6555 -0.5796 -0.3159
   68CHL1    H3 7440   3.496   2.072  10.349 -1.7873  0.3573 -1.3331
   68CHL1    O3 7441   3.438   1.924  10.471  0.1560  0.6481 -0.2729
   68CHL1   H3' 7442   3.369   1.858  10.472 -0.3547  1.0899  2.3674
   68CHL1    C4 7443   3.283   2.010  10.315 -0.4632 -0.3556 -0.6898
   68CHL1   H4A 7444   3.220   1.922  10.340 -2.1735  0.8075 -0.7796
   68CHL1   H4B 7445   3.255   2.089  10.388  0.2581  0.0307 -0.8151
   68CHL1    C5 7446   3.249   2.066  10.181  0.1248  0.1218 -0.4473
   68CHL1    C6 7447   3.184   2.182  10.163 -0.0516  0.5027  0.2743
   68CHL1    H6 7448   3.162   2.236  10.256  0.5325  1.7443 -0.2972
   68CHL1    C7 7449   3.137   2.226  10.031 -0.2911  0.0872  0.6279
   68CHL1   H7A 7450   3.028   2.244  10.036 -0.4592 -0.7522  0.2444
   68CHL1   H7B 7451   3.183   2.323  10.004  0.7134 -0.2390  1.1068
   68CHL1    C8 7452   3.159   2.126   9.908  0.0007  0.3277 -0.2704
   68CHL1    H8 7453   3.087   2.041   9.900  0.4188  0.0257 -0.9515
   68CHL1   C14 7454   3.163   2.199   9.773  0.0077 -0.8398  0.2710
   68CHL1   H14 7455   3.253   2.263   9.785 -2.3303  2.5001  1.2048
   68CHL1   C15 7456   3.049   2.291   9.727  0.1080  0.1534 -0.2194
   68CHL1  H15A 7457   2.950   2.249   9.755 -0.5432 -0.5083 -3.2006
   68CHL1  H15B 7458   3.049   2.384   9.788  2.3727 -0.4880  0.9094
   68CHL1   C16 7459   3.065   2.310   9.571 -0.1006  0.6167 -0.1288
   68CHL1  H16A 7460   2.970   2.275   9.526  0.6494  0.3899 -1.5987
   68CHL1  H16B 7461   3.101   2.415   9.562 -0.3621  1.2845  4.2588
   68CHL1   C17 7462   3.181   2.208   9.538  0.1346  0.1492  0.2211
   68CHL1   H17 7463   3.279   2.260   9.534  0.7740 -0.9814  0.8236
   68CHL1   C13 7464   3.190   2.108   9.648  0.1295  0.1777 -1.0426
   68CHL1   C18 7465   3.068   2.017   9.635 -0.0404  0.9332  0.1050
   68CHL1  H18A 7466   3.082   1.934   9.706  2.5354  0.8518 -0.3942
   68CHL1  H18B 7467   2.970   2.064   9.660 -0.5175 -1.2093  2.6940
   68CHL1  H18C 7468   3.057   1.971   9.534  0.9405 -0.5078  0.6296
   68CHL1   C12 7469   3.323   2.017   9.671 -0.5115  1.0686 -0.8521
   68CHL1  H12A 7470   3.324   1.942   9.588 -1.6745 -1.5576  1.3497
   68CHL1  H12B 7471   3.414   2.080   9.669  0.4627 -0.1658  1.2720
   68CHL1   C11 7472   3.327   1.941   9.808  0.1239 -0.9749  0.3198
   68CHL1  H11A 7473   3.252   1.860   9.796  1.5468 -2.0959 -1.7072
   68CHL1  H11B 7474   3.431   1.903   9.816  1.5730  2.2661 -1.2675
   68CHL1    C9 7475   3.289   2.041   9.929  0.1426  0.3196 -0.3343
   68CHL1    H9 7476   3.372   2.115   9.919 -1.0639  2.0138  1.3560
   68CHL1   C10 7477   3.294   1.973  10.068  0.0740  0.4975  0.2599
   68CHL1   C19 7478   3.203   1.852  10.069  0.3439 -0.0578  0.4269
   68CHL1  H19A 7479   3.099   1.885  10.053  0.4926 -0.0121 -0.5057
   68CHL1  H19B 7480   3.225   1.770   9.997 -1.1586 -0.9855  0.9823
   68CHL1  H19C 7481   3.201   1.810  10.172  0.7987  2.2474  1.4474
   68CHL1    C1 7482   3.445   1.934  10.094  0.4176 -0.4078 -0.4652
   68CHL1   H1A 7483   3.475   1.855  10.022 -0.2385 -1.6253  0.5409
   68CHL1   H1B 7484   3.515   2.017  10.074  0.0215 -0.4059 -1.9173
   68CHL1    C2 7485   3.479   1.881  10.235  0.9533  0.0058 -0.1519
   68CHL1   H2A 7486   3.586   1.854  10.241  0.4113 -2.2874  0.2610
   68CHL1   H2B 7487   3.425   1.784  10.246 -0.1707  0.5458 -0.7152
   68CHL1   C20 7488   3.172   2.163   9.386  0.8177 -0.1805 -0.1551
   68CHL1   H20 7489   3.081   2.102   9.368  1.9146 -1.0264 -3.5338
   68CHL1   C21 7490   3.298   2.067   9.351 -0.2823  0.0371 -0.0843
   68CHL1  H21A 7491   3.277   1.960   9.373 -1.3131  0.0601 -0.8992
   68CHL1  H21B 7492   3.388   2.108   9.402  1.0235 -0.2008 -2.0939
   68CHL1  H21C 7493   3.335   2.071   9.247  1.4601  0.2904  0.5002
   68CHL1   C22 7494   3.166   2.284   9.287 -0.3003 -0.6165  0.0361
   68CHL1  H22A 7495   3.100   2.365   9.324  0.3078 -0.1307  0.0758
   68CHL1  H22B 7496   3.268   2.328   9.278 -0.7035  0.7186  1.5515
   68CHL1   C23 7497   3.125   2.255   9.146 -0.0302 -0.2999 -0.3868
   68CHL1  H23A 7498   3.109   2.349   9.089 -1.0309  0.1961  0.6715
   68CHL1  H23B 7499   3.206   2.210   9.085 -0.9232 -1.2281 -0.9366
   68CHL1   C24 7500   3.009   2.162   9.118  0.9063  0.3169  0.2137
   68CHL1  H24A 7501   3.033   2.057   9.143  1.0417  0.5305  1.0251
   68CHL1  H24B 7502   2.927   2.194   9.186 -0.9293  0.0464 -1.7739
   68CHL1   C25 7503   2.936   2.186   8.980 -0.2708  0.8338 -0.2171
   68CHL1   H25 7504   2.924   2.293   8.952  1.6688  1.2300  0.3303
   68CHL1   C26 7505   3.036   2.129   8.879 -0.5912 -0.2768  0.2618
   68CHL1  H26A 7506   2.993   2.140   8.777  1.3604 -1.3372 -0.7156
   68CHL1  H26B 7507   3.135   2.178   8.881 -0.4130 -0.5168 -1.2024
   68CHL1  H26C 7508   3.056   2.021   8.893  2.2654  0.2685  1.1378
   68CHL1   C27 7509   2.799   2.110   8.961 -0.0575 -0.4026  0.2638
   68CHL1  H27A 7510   2.763   2.133   8.859 -2.1086  3.3071  1.6236
   68CHL1  H27B 7511   2.814   2.000   8.971 -0.6161 -0.4546  0.5984
   68CHL1  H27C 7512   2.719   2.127   9.036  1.2076  1.9366  1.1901
   69CHL1    C3 7513   4.229   1.659   6.780 -0.3731 -0.4130 -0.4337
   69CHL1    H3 7514   4.337   1.645   6.798 -0.2925  0.5899 -0.0667
   69CHL1    O3 7515   4.188   1.647   6.646  0.6497  0.0018 -0.1127
   69CHL1   H3' 7516   4.240   1.574   6.612  1.2122 -0.2430  1.1956
   69CHL1    C4 7517   4.150   1.546   6.840 -0.2913  0.1340 -0.8677
   69CHL1   H4A 7518   4.044   1.543   6.807 -0.5415 -2.9748 -0.1396
   69CHL1   H4B 7519   4.197   1.453   6.800 -1.7792 -0.6124 -0.9406
   69CHL1    C5 7520   4.150   1.541   6.990  0.5211  0.5638  0.4747
   69CHL1    C6 7521   4.190   1.425   7.048 -0.0546  0.3879 -0.2161
   69CHL1    H6 7522   4.220   1.341   6.984 -0.8882  1.7778 -2.5482
   69CHL1    C7 7523   4.198   1.417   7.196  0.0189  0.0431  0.0693
   69CHL1   H7A 7524   4.131   1.334   7.230 -0.8147  1.0598  0.9588
   69CHL1   H7B 7525   4.301   1.398   7.233  0.8185  2.4827 -0.7732
   69CHL1    C8 7526   4.139   1.532   7.282 -0.5101  0.2370  0.4393
   69CHL1    H8 7527   4.030   1.517   7.291 -0.5673 -0.1948 -0.7988
   69CHL1   C14 7528   4.186   1.529   7.426  0.3994 -0.1078 -1.1324
   69CHL1   H14 7529   4.297   1.533   7.423  0.6253 -3.0023  0.3178
   69CHL1   C15 7530   4.170   1.398   7.504 -0.5327  0.0003  0.7408
   69CHL1  H15A 7531   4.072   1.352   7.483  0.6927 -0.9603 -3.9261
   69CHL1  H15B 7532   4.247   1.319   7.489  0.1785  0.7357  0.4643
   69CHL1   C16 7533   4.184   1.447   7.650 -0.0071 -0.1065 -0.0179
   69CHL1  H16A 7534   4.093   1.411   7.702  1.1963 -1.8822  0.9819
   69CHL1  H16B 7535   4.270   1.396   7.699 -0.6529 -0.8989  0.3309
   69CHL1   C17 7536   4.191   1.601   7.652  0.9035  0.0618  0.1609
   69CHL1   H17 7537   4.295   1.641   7.647  0.7796  0.2699 -1.0484
   69CHL1   C13 7538   4.133   1.640   7.510 -0.3799  0.6294 -0.2360
   69CHL1   C18 7539   3.979   1.625   7.534 -1.0733  0.0657 -0.1096
   69CHL1  H18A 7540   3.946   1.722   7.577 -2.4490 -0.5398  0.2815
   69CHL1  H18B 7541   3.922   1.628   7.438 -0.5995  0.9895 -0.3664
   69CHL1  H18C 7542   3.946   1.548   7.607  1.0235  0.0066  0.8295
   69CHL1   C12 7543   4.172   1.775   7.444 -0.4856  1.0063 -0.5105
   69CHL1  H12A 7544   4.137   1.857   7.510  0.2047  0.7987  0.1167
   69CHL1  H12B 7545   4.283   1.780   7.446 -0.4536  0.1445  1.0991
   69CHL1   C11 7546   4.115   1.787   7.300  0.1551  0.3719 -1.3564
   69CHL1  H11A 7547   4.005   1.798   7.292 -0.5688 -2.4755  2.1633
   69CHL1  H11B 7548   4.164   1.882   7.268  0.7623  0.9170  1.0130
   69CHL1    C9 7549   4.169   1.671   7.217 -0.5766  0.3173 -0.7406
   69CHL1    H9 7550   4.280   1.671   7.207 -0.4617 -1.3314  0.1882
   69CHL1   C10 7551   4.126   1.676   7.067  0.3624  0.3208  0.1264
   69CHL1   C19 7552   3.979   1.711   7.060  0.0387  0.0791  0.3303
   69CHL1  H19A 7553   3.936   1.693   6.959 -2.4703  0.2896  1.3000
   69CHL1  H19B 7554   3.924   1.638   7.123 -0.7811  0.9612  0.6645
   69CHL1  H19C 7555   3.955   1.812   7.099 -1.3791 -0.6178  1.3500
   69CHL1    C1 7556   4.212   1.780   6.989  0.0641 -0.3863  0.7570
   69CHL1   H1A 7557   4.210   1.881   7.035  1.3007 -0.7310  1.5938
   69CHL1   H1B 7558   4.320   1.760   7.004  0.2979  0.4909  0.3112
   69CHL1    C2 7559   4.182   1.793   6.835  0.0549  0.0317  0.2270
   69CHL1   H2A 7560   4.229   1.885   6.793 -2.5094  0.7086 -1.4280
   69CHL1   H2B 7561   4.071   1.803   6.826  0.0369  0.2695  0.6434
   69CHL1   C20 7562   4.132   1.670   7.780 -0.2912 -0.1587  0.3453
   69CHL1   H20 7563   4.022   1.656   7.785 -0.4339  0.9981  0.7741
   69CHL1   C21 7564   4.180   1.821   7.784 -0.5773 -0.1282  0.1795
   69CHL1  H21A 7565   4.176   1.875   7.881 -0.2565  0.4549 -0.1279
   69CHL1  H21B 7566   4.118   1.878   7.712  2.6701  1.2336 -1.7686
   69CHL1  H21C 7567   4.289   1.822   7.762 -0.3897 -0.8292  1.0222
   69CHL1   C22 7568   4.195   1.617   7.915  0.3690  0.2449  0.5701
   69CHL1  H22A 7569   4.205   1.506   7.913 -0.8650  0.0999 -2.1212
   69CHL1  H22B 7570   4.293   1.667   7.933  0.5799 -0.0781  0.3464
   69CHL1   C23 7571   4.106   1.640   8.032  0.0506 -0.8326 -0.3428
   69CHL1  H23A 7572   4.076   1.746   8.037 -1.0567 -1.0981 -0.9266
   69CHL1  H23B 7573   4.008   1.588   8.016 -0.5391  0.3911 -0.8203
   69CHL1   C24 7574   4.170   1.583   8.158 -0.0334  0.0261  0.0738
   69CHL1  H24A 7575   4.169   1.473   8.148  2.1972 -0.2661  2.1885
   69CHL1  H24B 7576   4.278   1.609   8.163  0.2281 -0.6450 -1.5869
   69CHL1   C25 7577   4.091   1.615   8.290 -0.6354 -0.4181 -0.3005
   69CHL1   H25 7578   3.988   1.640   8.256 -0.4290  0.0271 -0.5944
   69CHL1   C26 7579   4.096   1.504   8.395  0.0809 -0.6528  0.0945
   69CHL1  H26A 7580   4.052   1.409   8.358  0.1590 -0.9432  0.7402
   69CHL1  H26B 7581   4.201   1.485   8.425 -0.3568  0.3595  2.4678
   69CHL1  H26C 7582   4.020   1.510   8.475  0.5013  1.5836  0.4001
   69CHL1   C27 7583   4.131   1.750   8.342  0.5466 -0.3777 -0.7148
   69CHL1  H27A 7584   4.233   1.741   8.385 -0.0094  1.5694  1.1671
   69CHL1  H27B 7585   4.136   1.824   8.259 -0.7023 -0.7253 -1.1193
   69CHL1  H27C 7586   4.064   1.787   8.422  1.2167  1.1417 -0.8185
   70CHL1    C3 7587   3.190   6.019   7.319 -0.2641 -1.5217 -0.0859
   70CHL1    H3 7588   3.280   5.966   7.282  0.6671 -1.9684  2.5548
   70CHL1    O3 7589   3.109   6.058   7.210 -0.0869 -0.1013  0.0303
   70CHL1   H3' 7590   3.087   6.150   7.228  2.7058  0.4370  1.3403
   70CHL1    C4 7591   3.104   5.924   7.410 -0.1338  0.1251 -0.1635
   70CHL1   H4A 7592   3.006   5.961   7.446  0.2125  0.4162  0.5179
   70CHL1   H4B 7593   3.077   5.836   7.349 -0.1567 -0.5443  0.7848
   70CHL1    C5 7594   3.183   5.888   7.537  0.2995 -0.4209  1.3083
   70CHL1    C6 7595   3.206   5.759   7.568 -0.0347  0.2074 -0.3617
   70CHL1    H6 7596   3.164   5.685   7.500  0.9076 -0.2545 -0.4593
   70CHL1    C7 7597   3.283   5.713   7.695  0.0304  0.2165 -0.0399
   70CHL1   H7A 7598   3.232   5.629   7.747  2.2022  0.9783  3.6753
   70CHL1   H7B 7599   3.379   5.661   7.677  0.0382  0.2975 -0.2412
   70CHL1    C8 7600   3.297   5.824   7.800 -0.1863  0.0455  0.0095
   70CHL1    H8 7601   3.196   5.842   7.843 -0.2858 -0.9057  0.2098
   70CHL1   C14 7602   3.403   5.777   7.911  0.6800 -0.0204 -0.3013
   70CHL1   H14 7603   3.500   5.767   7.859  0.9954 -0.7404  0.4016
   70CHL1   C15 7604   3.378   5.659   8.006  0.0476  0.3113  1.1497
   70CHL1  H15A 7605   3.271   5.678   8.028 -0.7555 -1.1613 -1.0961
   70CHL1  H15B 7606   3.392   5.559   7.959  2.6690 -0.0051  2.4339
   70CHL1   C16 7607   3.483   5.682   8.112  0.0881 -0.5884 -0.5528
   70CHL1  H16A 7608   3.431   5.662   8.208  1.7492  1.2728  0.8242
   70CHL1  H16B 7609   3.568   5.611   8.108  1.0076  0.4622 -0.0497
   70CHL1   C17 7610   3.542   5.826   8.095  0.7290  0.5043 -0.1344
   70CHL1   H17 7611   3.639   5.828   8.039  1.6928 -2.5488  1.2221
   70CHL1   C13 7612   3.440   5.898   8.002  0.0008 -0.0441 -0.3508
   70CHL1   C18 7613   3.318   5.944   8.084  0.2566 -0.2411 -0.5819
   70CHL1  H18A 7614   3.234   5.953   8.013 -0.6837 -2.2495  0.2074
   70CHL1  H18B 7615   3.283   5.874   8.163  1.0650 -0.9884 -0.8614
   70CHL1  H18C 7616   3.344   6.034   8.144 -0.2646 -0.5483  0.1188
   70CHL1   C12 7617   3.492   6.007   7.918 -0.4102  0.0397 -0.4468
   70CHL1  H12A 7618   3.518   6.098   7.977 -3.0388  0.6341 -0.0777
   70CHL1  H12B 7619   3.578   5.961   7.865  0.3259 -1.3690  1.8316
   70CHL1   C11 7620   3.391   6.060   7.814  0.1416  0.2149 -0.6827
   70CHL1  H11A 7621   3.300   6.107   7.857 -0.2156  0.2747 -1.4991
   70CHL1  H11B 7622   3.450   6.132   7.753  1.8702 -1.0635 -0.5949
   70CHL1    C9 7623   3.339   5.952   7.724  0.0061 -0.0073 -0.1159
   70CHL1    H9 7624   3.425   5.912   7.666 -1.0248 -1.2881 -0.8193
   70CHL1   C10 7625   3.243   6.007   7.616 -0.3113 -0.0165 -0.1042
   70CHL1   C19 7626   3.123   6.071   7.684 -0.3290 -0.6761 -0.0882
   70CHL1  H19A 7627   3.157   6.163   7.737  1.5243 -1.6236  0.4536
   70CHL1  H19B 7628   3.044   6.100   7.612 -0.7677  0.1751  0.6993
   70CHL1  H19C 7629   3.085   5.998   7.759 -0.2871 -0.1558  0.4502
   70CHL1    C1 7630   3.315   6.107   7.524 -0.2151  0.2162 -0.5747
   70CHL1   H1A 7631   3.328   6.207   7.569 -0.8924  0.0713 -0.0389
   70CHL1   H1B 7632   3.416   6.066   7.500 -0.3179  0.6991 -1.9239
   70CHL1    C2 7633   3.241   6.148   7.395  0.1036  0.0153 -0.8594
   70CHL1   H2A 7634   3.311   6.194   7.322 -0.6344  3.3954  0.3712
   70CHL1   H2B 7635   3.159   6.218   7.424 -0.8414 -1.6474  0.6744
   70CHL1   C20 7636   3.570   5.889   8.231  0.0929  0.0489 -0.0257
   70CHL1   H20 7637   3.467   5.899   8.273 -0.3064  1.6520 -1.2762
   70CHL1   C21 7638   3.628   6.035   8.213  0.0173  0.0370 -0.3150
   70CHL1  H21A 7639   3.556   6.110   8.173 -1.5350 -2.1430 -1.8717
   70CHL1  H21B 7640   3.718   6.026   8.147 -0.6364  1.1099 -1.3864
   70CHL1  H21C 7641   3.670   6.079   8.306 -1.6867  0.2323  0.3950
   70CHL1   C22 7642   3.661   5.797   8.316 -0.1003  0.1892 -0.2873
   70CHL1  H22A 7643   3.631   5.691   8.328 -0.1182  0.4667  3.1639
   70CHL1  H22B 7644   3.754   5.792   8.256 -0.8232  1.8047 -1.6143
   70CHL1   C23 7645   3.692   5.847   8.460 -0.5684  0.0915  0.8458
   70CHL1  H23A 7646   3.723   5.954   8.462  1.3496 -0.3625 -1.2041
   70CHL1  H23B 7647   3.602   5.828   8.523  0.2471 -0.0349  2.0127
   70CHL1   C24 7648   3.812   5.768   8.528 -0.3677 -0.3124  0.0993
   70CHL1  H24A 7649   3.799   5.659   8.514  0.1540 -0.4228  0.4407
   70CHL1  H24B 7650   3.904   5.789   8.470 -1.6344 -0.7916 -2.2158
   70CHL1   C25 7651   3.834   5.801   8.677 -0.1613 -0.6179 -0.1925
   70CHL1   H25 7652   3.744   5.851   8.717  2.2299  1.0446  3.6927
   70CHL1   C26 7653   3.859   5.677   8.763 -0.3163  0.1653 -0.5249
   70CHL1  H26A 7654   3.885   5.703   8.867  1.3280 -1.2076 -0.5609
   70CHL1  H26B 7655   3.767   5.615   8.770  0.5742 -0.9971  1.6839
   70CHL1  H26C 7656   3.932   5.610   8.713  1.0511 -0.2617  1.9349
   70CHL1   C27 7657   3.948   5.896   8.703  0.1466 -0.7729 -0.5082
   70CHL1  H27A 7658   3.927   5.999   8.667 -0.4432 -0.2558  1.2065
   70CHL1  H27B 7659   3.960   5.899   8.814 -1.0833 -0.4013 -0.3688
   70CHL1  H27C 7660   4.047   5.860   8.669 -0.1705 -2.1693 -0.0217
   71CHL1    C3 7661   3.187   1.228   6.859 -0.3578  0.4487  0.3517
   71CHL1    H3 7662   3.129   1.142   6.898 -1.0393 -0.0203 -1.5860
   71CHL1    O3 7663   3.203   1.195   6.724 -0.4442  0.1680 -0.2104
   71CHL1   H3' 7664   3.261   1.266   6.695 -0.9349  1.5167  1.9200
   71CHL1    C4 7665   3.123   1.365   6.870 -0.0436  0.7941 -0.0036
   71CHL1   H4A 7666   3.182   1.442   6.816  0.7010 -0.2584 -0.7267
   71CHL1   H4B 7667   3.024   1.351   6.820 -0.7608  0.1390  1.5045
   71CHL1    C5 7668   3.106   1.390   7.015  0.5627 -0.3590  0.6017
   71CHL1    C6 7669   2.979   1.393   7.067 -0.3288 -0.5210  0.2824
   71CHL1    H6 7670   2.898   1.385   6.993  1.7029  1.3709 -2.3407
   71CHL1    C7 7671   2.951   1.442   7.212 -0.0615 -0.2093 -0.0703
   71CHL1   H7A 7672   2.883   1.530   7.205  0.5941  0.3318  0.3141
   71CHL1   H7B 7673   2.889   1.366   7.264 -1.0393 -1.8572 -3.3553
   71CHL1    C8 7674   3.079   1.492   7.287 -0.1485  0.4656 -0.1944
   71CHL1    H8 7675   3.099   1.599   7.270  1.9881  0.1984  0.2566
   71CHL1   C14 7676   3.061   1.469   7.440 -0.6976  0.5787 -0.3269
   71CHL1   H14 7677   3.080   1.361   7.460  0.4881  0.9752  0.8972
   71CHL1   C15 7678   2.925   1.502   7.498 -0.0379  0.2525  0.0720
   71CHL1  H15A 7679   2.875   1.594   7.462  1.2215  1.4313  1.2408
   71CHL1  H15B 7680   2.852   1.419   7.487 -0.0171  0.1973  0.3436
   71CHL1   C16 7681   2.953   1.534   7.647  0.9161 -0.2655 -0.4762
   71CHL1  H16A 7682   2.910   1.634   7.668  0.9081  0.3200 -3.0170
   71CHL1  H16B 7683   2.892   1.469   7.714 -0.3504  1.1589 -0.1763
   71CHL1   C17 7684   3.099   1.509   7.669 -0.3093 -0.3409  0.3795
   71CHL1   H17 7685   3.128   1.403   7.690 -0.5709 -0.3646  0.6223
   71CHL1   C13 7686   3.166   1.534   7.533  0.3584  0.3922 -0.0163
   71CHL1   C18 7687   3.148   1.683   7.508 -0.0786  0.1361  0.4299
   71CHL1  H18A 7688   3.225   1.718   7.580  2.1544 -2.1276 -0.7161
   71CHL1  H18B 7689   3.173   1.721   7.406  0.9306 -1.2057  0.1542
   71CHL1  H18C 7690   3.046   1.723   7.527 -0.7878 -0.8188 -1.1172
   71CHL1   C12 7691   3.306   1.483   7.487 -0.6278 -0.1857 -0.0600
   71CHL1  H12A 7692   3.374   1.560   7.529 -2.8680  0.6442  2.2644
   71CHL1  H12B 7693   3.329   1.383   7.531  0.3798 -0.1734 -0.5197
   71CHL1   C11 7694   3.326   1.492   7.331  0.3215  0.0940  0.1265
   71CHL1  H11A 7695   3.340   1.593   7.287 -2.1330 -0.1385 -1.3716
   71CHL1  H11B 7696   3.418   1.436   7.301  0.1617 -0.7823  1.2211
   71CHL1    C9 7697   3.208   1.423   7.251  0.2888  0.2467 -0.2186
   71CHL1    H9 7698   3.205   1.319   7.290  0.7634 -0.2664 -1.4905
   71CHL1   C10 7699   3.237   1.410   7.099  0.0061  0.6911  0.3141
   71CHL1   C19 7700   3.295   1.541   7.036 -0.5413 -1.2590  0.1033
   71CHL1  H19A 7701   3.221   1.624   7.045 -0.4023 -1.1968  0.7032
   71CHL1  H19B 7702   3.383   1.580   7.091 -1.2593  3.5120 -1.6838
   71CHL1  H19C 7703   3.342   1.529   6.936  3.4312  1.6845  1.3530
   71CHL1    C1 7704   3.317   1.281   7.074 -0.0498 -0.2148 -0.7124
   71CHL1   H1A 7705   3.417   1.297   7.119  0.5296 -3.1062 -0.8007
   71CHL1   H1B 7706   3.276   1.202   7.141  2.5002 -1.4095 -0.4175
   71CHL1    C2 7707   3.327   1.234   6.933 -0.0911  0.6562  0.7423
   71CHL1   H2A 7708   3.359   1.128   6.924 -0.6870  0.5708 -0.4941
   71CHL1   H2B 7709   3.407   1.289   6.880 -1.6859  2.1397 -0.2314
   71CHL1   C20 7710   3.147   1.590   7.791 -0.2035  0.0241  0.0054
   71CHL1   H20 7711   3.130   1.699   7.786  1.9399  0.4038  0.1476
   71CHL1   C21 7712   3.294   1.569   7.805  0.1024  0.1344  0.4072
   71CHL1  H21A 7713   3.345   1.612   7.717  0.5465  0.4856  0.8303
   71CHL1  H21B 7714   3.318   1.461   7.823 -0.5823  0.2536  2.2150
   71CHL1  H21C 7715   3.329   1.626   7.894  2.7305 -1.5163  0.5688
   71CHL1   C22 7716   3.085   1.536   7.920  0.1492 -0.4992  0.0415
   71CHL1  H22A 7717   2.980   1.507   7.898  0.6125 -1.3758 -1.1515
   71CHL1  H22B 7718   3.149   1.451   7.952  0.0415 -0.1264  1.2980
   71CHL1   C23 7719   3.091   1.646   8.033 -0.0208  0.7809 -0.4851
   71CHL1  H23A 7720   3.186   1.704   8.039 -0.0091  1.0029 -2.2523
   71CHL1  H23B 7721   3.008   1.718   8.013 -0.0929  0.4417 -1.4700
   71CHL1   C24 7722   3.066   1.577   8.170 -0.2966 -0.0203 -0.1719
   71CHL1  H24A 7723   2.966   1.530   8.162 -0.6119  0.3428  1.3539
   71CHL1  H24B 7724   3.144   1.499   8.188  1.0969  0.7471 -2.4469
   71CHL1   C25 7725   3.074   1.677   8.285 -0.2926  0.4201  0.1035
   71CHL1   H25 7726   3.051   1.778   8.246 -0.1869  0.6879  0.7231
   71CHL1   C26 7727   2.973   1.652   8.402 -0.0547 -0.0687 -0.0871
   71CHL1  H26A 7728   2.871   1.670   8.361  0.5429 -0.9482 -2.0907
   71CHL1  H26B 7729   2.981   1.544   8.430  1.1163 -0.2336 -0.9778
   71CHL1  H26C 7730   2.986   1.710   8.496 -1.8164 -0.1551  0.2433
   71CHL1   C27 7731   3.219   1.678   8.349 -0.4586  0.9948  0.4784
   71CHL1  H27A 7732   3.285   1.690   8.260 -3.0449  1.0747 -1.5355
   71CHL1  H27B 7733   3.231   1.761   8.421 -0.0071  0.8149  0.6146
   71CHL1  H27C 7734   3.241   1.579   8.394  0.8604  0.5904 -0.9451
   72CHL1    C3 7735   3.550   6.000   6.952 -0.1311 -0.0115 -0.0308
   72CHL1    H3 7736   3.478   6.077   6.989 -3.1787 -1.9836 -1.4058
   72CHL1    O3 7737   3.519   5.965   6.817  0.2590  0.0935 -0.5655
   72CHL1   H3' 7738   3.577   5.890   6.805 -1.6985 -1.3238 -1.7601
   72CHL1    C4 7739   3.691   6.053   6.968 -0.8369 -0.3994  0.1455
   72CHL1   H4A 7740   3.757   5.972   6.929  0.8041  0.8737  0.1596
   72CHL1   H4B 7741   3.706   6.145   6.907  0.7306  0.4485  1.7225
   72CHL1    C5 7742   3.738   6.075   7.107  0.6544 -0.1434 -0.1671
   72CHL1    C6 7743   3.775   6.197   7.137  0.5357 -0.3855 -0.1521
   72CHL1    H6 7744   3.789   6.274   7.060  1.1880 -2.0279 -1.7159
   72CHL1    C7 7745   3.827   6.226   7.275  0.0617  0.8634  0.0744
   72CHL1   H7A 7746   3.933   6.260   7.270  0.7853 -1.3591 -1.2993
   72CHL1   H7B 7747   3.761   6.298   7.328 -2.4376 -0.3947 -1.1482
   72CHL1    C8 7748   3.836   6.098   7.371  1.4448 -0.4566  0.0584
   72CHL1    H8 7749   3.930   6.048   7.341 -0.1041 -2.7760 -1.2820
   72CHL1   C14 7750   3.850   6.145   7.516  0.4810 -0.9169  0.3610
   72CHL1   H14 7751   3.761   6.204   7.543  1.9817  1.2086  0.9123
   72CHL1   C15 7752   3.969   6.241   7.546  0.2442  0.4740 -0.2827
   72CHL1  H15A 7753   4.048   6.201   7.479  0.5643 -4.3959  2.5196
   72CHL1  H15B 7754   3.938   6.342   7.511 -0.3846  1.8092  3.6317
   72CHL1   C16 7755   3.981   6.230   7.697 -0.0808 -1.8750  0.3890
   72CHL1  H16A 7756   4.088   6.207   7.719  0.4059 -0.4231 -0.2903
   72CHL1  H16B 7757   3.965   6.327   7.748  2.0927 -1.7835  1.0209
   72CHL1   C17 7758   3.891   6.117   7.752  0.3828  1.1551  1.2744
   72CHL1   H17 7759   3.791   6.152   7.786  1.7348  3.2839  3.3854
   72CHL1   C13 7760   3.868   6.035   7.618 -0.5049 -0.7081  0.1228
   72CHL1   C18 7761   4.001   5.952   7.584  0.4368  0.6582  0.2875
   72CHL1  H18A 7762   4.001   5.908   7.482  1.0692 -2.4413  1.5373
   72CHL1  H18B 7763   4.094   6.012   7.594  0.7930 -0.1035  1.8442
   72CHL1  H18C 7764   4.007   5.862   7.649 -1.2638 -0.6917 -1.3166
   72CHL1   C12 7765   3.743   5.943   7.607  0.3025 -0.7709  0.7844
   72CHL1  H12A 7766   3.722   5.882   7.697 -0.4562 -0.3895  0.8776
   72CHL1  H12B 7767   3.652   6.006   7.605  0.0772 -1.1139 -1.2649
   72CHL1   C11 7768   3.727   5.881   7.463 -0.0376  0.1716  0.9230
   72CHL1  H11A 7769   3.805   5.804   7.448  1.6207  1.5955  1.8878
   72CHL1  H11B 7770   3.633   5.822   7.460  0.4214 -0.5511  0.5835
   72CHL1    C9 7771   3.722   5.998   7.356  0.0210  0.9803  0.5930
   72CHL1    H9 7772   3.625   6.048   7.374 -0.9091  0.3613 -2.1657
   72CHL1   C10 7773   3.706   5.956   7.203 -0.1266  0.8421 -0.5113
   72CHL1   C19 7774   3.813   5.846   7.187  0.0155 -0.1226 -0.1126
   72CHL1  H19A 7775   3.786   5.751   7.239  0.9805 -0.3351  0.0072
   72CHL1  H19B 7776   3.817   5.817   7.080 -0.9755 -0.4207 -0.0905
   72CHL1  H19C 7777   3.916   5.882   7.207 -0.7307  1.8861  0.3489
   72CHL1    C1 7778   3.575   5.891   7.182  0.4429  0.2917 -0.3737
   72CHL1   H1A 7779   3.561   5.810   7.256 -0.8180  0.8388  0.0219
   72CHL1   H1B 7780   3.489   5.956   7.210 -0.4477 -0.5787 -1.0208
   72CHL1    C2 7781   3.536   5.869   7.034  0.2172  0.5390 -0.0462
   72CHL1   H2A 7782   3.435   5.823   7.026  1.0855 -1.6537  0.6692
   72CHL1   H2B 7783   3.609   5.793   6.998  0.1707 -1.2253  3.1954
   72CHL1   C20 7784   3.948   6.059   7.878  0.2933 -0.3193  0.3970
   72CHL1   H20 7785   4.052   6.029   7.853  1.7084  2.8549  1.8886
   72CHL1   C21 7786   3.869   5.932   7.915  0.0273 -0.2343  0.4867
   72CHL1  H21A 7787   3.888   5.851   7.841  1.6342  1.3175 -0.8816
   72CHL1  H21B 7788   3.763   5.967   7.920  0.1533  0.3414 -0.6021
   72CHL1  H21C 7789   3.900   5.898   8.016  0.6939 -1.0099  0.0323
   72CHL1   C22 7790   3.949   6.156   8.001  0.2115 -0.3391  1.0841
   72CHL1  H22A 7791   3.995   6.252   7.969  2.1839 -1.8073 -0.7267
   72CHL1  H22B 7792   3.843   6.172   8.031  0.4196 -0.7522  2.0629
   72CHL1   C23 7793   4.033   6.101   8.122  0.7975 -0.5265 -0.1458
   72CHL1  H23A 7794   3.992   6.001   8.149  2.4180 -1.2360 -0.2174
   72CHL1  H23B 7795   4.135   6.077   8.086  0.9856  0.9602 -0.6410
   72CHL1   C24 7796   4.042   6.185   8.239  0.1538 -0.2161 -0.3971
   72CHL1  H24A 7797   4.064   6.290   8.210  1.4141 -0.6668 -1.1228
   72CHL1  H24B 7798   3.944   6.174   8.291  0.1203  0.1922 -0.3632
   72CHL1   C25 7799   4.148   6.124   8.340  0.1418  0.1349  0.1970
   72CHL1   H25 7800   4.238   6.112   8.276 -0.2800  0.3532 -0.4409
   72CHL1   C26 7801   4.170   6.223   8.457  0.6099 -0.0994 -0.0237
   72CHL1  H26A 7802   4.232   6.177   8.537 -0.0454 -1.5848 -0.3322
   72CHL1  H26B 7803   4.223   6.314   8.423 -2.4813  2.6860  2.0584
   72CHL1  H26C 7804   4.077   6.263   8.502  0.5804  1.9426 -1.7658
   72CHL1   C27 7805   4.110   5.986   8.396 -0.4156  0.2270  0.0893
   72CHL1  H27A 7806   4.065   6.009   8.495 -1.7330  2.9937 -1.0316
   72CHL1  H27B 7807   4.028   5.937   8.339 -0.4767  0.2152  0.1869
   72CHL1  H27C 7808   4.199   5.925   8.420 -0.9540 -0.8880 -0.6522
   73CHL1    C3 7809   2.504   1.948   7.011  0.1384 -0.0275 -0.1444
   73CHL1    H3 7810   2.427   2.026   6.995  1.4160  1.1080 -1.0095
   73CHL1    O3 7811   2.552   1.900   6.884 -0.3846 -0.2087 -0.6806
   73CHL1   H3' 7812   2.614   1.958   6.839  0.7156 -0.3327  0.6165
   73CHL1    C4 7813   2.627   2.007   7.083 -0.1709 -0.5374  0.5451
   73CHL1   H4A 7814   2.717   1.944   7.072  0.2319  0.4757 -3.2800
   73CHL1   H4B 7815   2.663   2.093   7.022 -0.9047  0.7111  1.7890
   73CHL1    C5 7816   2.597   2.045   7.224 -0.3818 -0.6337  0.0070
   73CHL1    C6 7817   2.622   2.174   7.268 -0.0033 -0.3962 -0.8980
   73CHL1    H6 7818   2.665   2.241   7.193  1.0913 -0.3084 -0.2114
   73CHL1    C7 7819   2.606   2.223   7.410 -1.0517  0.2601 -0.0161
   73CHL1   H7A 7820   2.703   2.264   7.447 -0.2985 -0.9777 -0.5726
   73CHL1   H7B 7821   2.519   2.292   7.417 -0.6579  0.7675 -0.0502
   73CHL1    C8 7822   2.589   2.096   7.501 -0.3044 -0.7315  0.3625
   73CHL1    H8 7823   2.689   2.051   7.515 -0.8338 -1.8753  0.5656
   73CHL1   C14 7824   2.536   2.153   7.636 -0.0018  0.3486  0.0178
   73CHL1   H14 7825   2.437   2.194   7.608 -0.8262  0.2550  2.5662
   73CHL1   C15 7826   2.611   2.267   7.702 -0.0089 -0.4150  0.0946
   73CHL1  H15A 7827   2.722   2.269   7.693 -0.1254 -1.4161 -2.0701
   73CHL1  H15B 7828   2.573   2.362   7.659  0.3553 -0.2808  0.0658
   73CHL1   C16 7829   2.565   2.261   7.849 -0.3948 -0.4075 -0.0112
   73CHL1  H16A 7830   2.653   2.246   7.914 -1.0241  0.3915  1.0690
   73CHL1  H16B 7831   2.522   2.357   7.884  2.3429  1.7986 -2.2491
   73CHL1   C17 7832   2.483   2.128   7.865  0.2603 -0.3850 -0.1583
   73CHL1   H17 7833   2.376   2.153   7.852  0.0490 -0.7818  0.7446
   73CHL1   C13 7834   2.516   2.042   7.742  0.1221 -0.0584  0.9050
   73CHL1   C18 7835   2.651   1.958   7.760  0.2121  0.0746  0.2993
   73CHL1  H18A 7836   2.684   1.899   7.672 -0.7448  0.8126 -0.5825
   73CHL1  H18B 7837   2.730   2.036   7.770 -0.2495  0.7911 -1.4017
   73CHL1  H18C 7838   2.636   1.891   7.847 -1.9867 -0.5399 -0.4871
   73CHL1   C12 7839   2.409   1.942   7.691 -0.0738  0.6691 -0.4470
   73CHL1  H12A 7840   2.392   1.862   7.766 -0.2052  0.8225 -0.3106
   73CHL1  H12B 7841   2.315   2.002   7.687 -0.7488 -0.4543 -2.1564
   73CHL1   C11 7842   2.439   1.887   7.551 -0.5375  0.3077  0.3299
   73CHL1  H11A 7843   2.513   1.804   7.560  0.9639  1.4372 -0.9707
   73CHL1  H11B 7844   2.352   1.825   7.521 -0.1657 -0.1007  0.0734
   73CHL1    C9 7845   2.486   1.994   7.447  0.3272  0.8608 -0.1573
   73CHL1    H9 7846   2.402   2.061   7.420 -0.0822  1.0191  1.4177
   73CHL1   C10 7847   2.539   1.937   7.314  0.2109 -0.1037  0.1515
   73CHL1   C19 7848   2.654   1.834   7.347  0.5004  0.0151  0.3728
   73CHL1  H19A 7849   2.700   1.806   7.250 -1.3421 -1.1451 -0.2233
   73CHL1  H19B 7850   2.726   1.881   7.417 -1.5640 -0.4170  2.9537
   73CHL1  H19C 7851   2.614   1.738   7.386 -2.4135  0.8318 -0.3516
   73CHL1    C1 7852   2.421   1.868   7.242 -0.5595 -0.2358  0.0041
   73CHL1   H1A 7853   2.415   1.771   7.296 -0.6241 -2.2077 -3.2305
   73CHL1   H1B 7854   2.331   1.931   7.248 -0.6348 -0.1193 -1.7439
   73CHL1    C2 7855   2.449   1.829   7.092  0.8740  0.4098 -0.5698
   73CHL1   H2A 7856   2.366   1.771   7.046 -0.2009 -0.2286  1.9732
   73CHL1   H2B 7857   2.534   1.758   7.100  2.3085  1.7864 -2.7782
   73CHL1   C20 7858   2.495   2.071   8.009  0.1034  0.0060 -0.4471
   73CHL1   H20 7859   2.600   2.044   8.029  1.1413  4.9582  2.4644
   73CHL1   C21 7860   2.410   1.943   8.023  0.4758 -0.5641  0.3942
   73CHL1  H21A 7861   2.403   1.920   8.132  2.0431 -1.6946  0.2798
   73CHL1  H21B 7862   2.463   1.866   7.963  2.9523  2.2952 -1.3497
   73CHL1  H21C 7863   2.307   1.969   7.990 -0.0787 -1.4867  1.3252
   73CHL1   C22 7864   2.451   2.191   8.108 -0.2469  0.7928  0.4969
   73CHL1  H22A 7865   2.517   2.279   8.091 -1.5884  1.3565 -2.3130
   73CHL1  H22B 7866   2.349   2.222   8.078 -1.9221 -3.6268  0.9681
   73CHL1   C23 7867   2.454   2.157   8.259 -0.2160  0.6958 -0.1058
   73CHL1  H23A 7868   2.371   2.089   8.285 -0.4572  1.9717  2.8099
   73CHL1  H23B 7869   2.557   2.118   8.272 -0.5816 -0.0587  0.5705
   73CHL1   C24 7870   2.438   2.286   8.341 -0.0964 -0.5203  0.2632
   73CHL1  H24A 7871   2.490   2.369   8.289  0.7202 -0.6958  0.7724
   73CHL1  H24B 7872   2.333   2.319   8.352 -0.2021 -1.0502  0.9137
   73CHL1   C25 7873   2.491   2.257   8.483 -0.8859 -0.2918 -0.2542
   73CHL1   H25 7874   2.461   2.154   8.511  0.0251 -0.2710  0.8843
   73CHL1   C26 7875   2.643   2.270   8.497  0.3494  0.3042  0.5382
   73CHL1  H26A 7876   2.683   2.215   8.409  3.2920  1.4474  1.0312
   73CHL1  H26B 7877   2.672   2.376   8.479 -4.3576  2.0780  1.9399
   73CHL1  H26C 7878   2.689   2.229   8.590 -1.2678  0.6705  1.5299
   73CHL1   C27 7879   2.433   2.349   8.588  0.3677  0.5018  0.3491
   73CHL1  H27A 7880   2.482   2.327   8.685  3.8393  0.9159 -1.1741
   73CHL1  H27B 7881   2.455   2.455   8.565  2.9817 -0.3681 -1.7515
   73CHL1  H27C 7882   2.324   2.334   8.601 -0.2112  3.2149 -0.7360
   74CHL1    C3 7883   2.701   0.732   6.951  0.2486  0.5352  0.2598
   74CHL1    H3 7884   2.640   0.825   6.940 -0.6889 -0.2020 -1.0270
   74CHL1    O3 7885   2.714   0.688   6.814  0.1499 -0.0748  0.3152
   74CHL1   H3' 7886   2.753   0.600   6.808  2.2336  0.7840  0.4052
   74CHL1    C4 7887   2.838   0.765   7.023  0.4630  0.5513  0.0883
   74CHL1   H4A 7888   2.911   0.681   7.021  0.9087  0.9169 -2.5942
   74CHL1   H4B 7889   2.887   0.846   6.966  2.9234 -0.8077  0.1444
   74CHL1    C5 7890   2.812   0.819   7.161 -0.6001  0.2440 -0.8111
   74CHL1    C6 7891   2.855   0.942   7.189 -0.1405 -0.5038  0.5331
   74CHL1    H6 7892   2.912   0.999   7.114 -1.0795  0.7543  0.7404
   74CHL1    C7 7893   2.836   0.997   7.328  0.4168 -0.2678 -0.1270
   74CHL1   H7A 7894   2.932   1.034   7.371  0.1350 -1.9773  2.1564
   74CHL1   H7B 7895   2.766   1.083   7.326  1.0361  0.2754  0.7770
   74CHL1    C8 7896   2.792   0.892   7.430  0.2160 -0.8248 -0.5971
   74CHL1    H8 7897   2.867   0.811   7.437 -0.9297 -1.9145 -0.6226
   74CHL1   C14 7898   2.757   0.965   7.556  0.2417  0.3139 -0.2346
   74CHL1   H14 7899   2.672   1.030   7.526  1.1000  1.1321 -1.0001
   74CHL1   C15 7900   2.856   1.057   7.620  0.3029 -0.1087 -0.6188
   74CHL1  H15A 7901   2.945   0.992   7.635  0.0888 -0.8265 -2.2343
   74CHL1  H15B 7902   2.886   1.152   7.571  0.0841  1.4574  2.0726
   74CHL1   C16 7903   2.792   1.096   7.754  0.1092 -0.2803  0.0677
   74CHL1  H16A 7904   2.871   1.083   7.831  1.4294 -3.3659 -1.6268
   74CHL1  H16B 7905   2.755   1.200   7.746 -0.0275 -0.2829  0.5986
   74CHL1   C17 7906   2.668   0.994   7.776 -0.2128  0.7401  0.7371
   74CHL1   H17 7907   2.580   1.050   7.737  0.2315  1.2519  0.4431
   74CHL1   C13 7908   2.693   0.882   7.667  0.0195  0.0055  0.1887
   74CHL1   C18 7909   2.789   0.767   7.714  0.1052 -0.0824  0.1042
   74CHL1  H18A 7910   2.878   0.800   7.773  0.4213 -0.0815 -0.3664
   74CHL1  H18B 7911   2.745   0.690   7.780  2.6609 -0.6332  1.3141
   74CHL1  H18C 7912   2.828   0.719   7.622 -2.1774 -0.0332 -0.9465
   74CHL1   C12 7913   2.562   0.821   7.613  0.4886 -0.6724  0.0748
   74CHL1  H12A 7914   2.520   0.748   7.685  0.8966 -0.9449  0.0412
   74CHL1  H12B 7915   2.481   0.896   7.600 -0.5047 -1.2367  2.5285
   74CHL1   C11 7916   2.591   0.740   7.482  0.5625  0.2442  0.2755
   74CHL1  H11A 7917   2.654   0.651   7.509  0.3182  0.4361  1.5341
   74CHL1  H11B 7918   2.497   0.696   7.442 -0.2514  1.3269  0.9526
   74CHL1    C9 7919   2.665   0.826   7.376 -0.3050 -0.5294  0.1158
   74CHL1    H9 7920   2.601   0.905   7.332  0.9873 -1.0842 -2.9777
   74CHL1   C10 7921   2.713   0.742   7.254 -0.2714  1.0018 -0.0198
   74CHL1   C19 7922   2.794   0.614   7.291  0.3593  0.0876  0.1481
   74CHL1  H19A 7923   2.829   0.565   7.197 -1.6651  1.4977 -1.4283
   74CHL1  H19B 7924   2.887   0.632   7.348  0.9743 -2.7432  0.1841
   74CHL1  H19C 7925   2.721   0.546   7.341  1.2717 -0.7856  0.3346
   74CHL1    C1 7926   2.586   0.698   7.169 -0.5933 -0.4274  0.3001
   74CHL1   H1A 7927   2.522   0.631   7.229 -1.4278  0.5404  0.5034
   74CHL1   H1B 7928   2.521   0.786   7.150 -1.7943 -1.8074 -2.4488
   74CHL1    C2 7929   2.608   0.638   7.028  0.7502 -0.4703  0.2351
   74CHL1   H2A 7930   2.514   0.618   6.971 -1.1564  2.8988  1.8905
   74CHL1   H2B 7931   2.643   0.533   7.035 -3.0028 -1.8335  1.1387
   74CHL1   C20 7932   2.646   0.955   7.925  0.3217  0.6065  0.0843
   74CHL1   H20 7933   2.730   0.891   7.958 -1.2236 -0.4314  2.2165
   74CHL1   C21 7934   2.509   0.884   7.933 -0.3283  0.0479  0.4388
   74CHL1  H21A 7935   2.507   0.779   7.897  0.1132 -0.7822  2.6636
   74CHL1  H21B 7936   2.433   0.945   7.879  1.5958 -1.1462 -4.1417
   74CHL1  H21C 7937   2.474   0.879   8.038  0.1481 -1.6149  0.5342
   74CHL1   C22 7938   2.638   1.073   8.016 -0.2191 -0.5299 -0.1830
   74CHL1  H22A 7939   2.702   1.157   7.980 -1.7253  1.3958  1.4032
   74CHL1  H22B 7940   2.538   1.118   8.033  0.2036  0.2251  0.3374
   74CHL1   C23 7941   2.688   1.028   8.156  0.5411  0.0063  0.1201
   74CHL1  H23A 7942   2.614   0.959   8.202 -0.4913 -0.0024 -1.4684
   74CHL1  H23B 7943   2.779   0.967   8.139 -0.9179 -2.4259  0.6417
   74CHL1   C24 7944   2.705   1.157   8.237 -0.9552 -0.0117  0.6570
   74CHL1  H24A 7945   2.756   1.238   8.179  1.2540 -1.3774  0.5732
   74CHL1  H24B 7946   2.603   1.200   8.239 -0.8769  0.2246 -0.0617
   74CHL1   C25 7947   2.774   1.153   8.375  0.3801 -0.5163 -0.6068
   74CHL1   H25 7948   2.731   1.066   8.430  1.1207 -1.7302 -1.8794
   74CHL1   C26 7949   2.934   1.134   8.357  0.2632  0.0610 -0.0974
   74CHL1  H26A 7950   2.959   1.060   8.279  1.1860  0.7470 -0.4673
   74CHL1  H26B 7951   2.979   1.232   8.328 -1.5950  0.5666 -1.5040
   74CHL1  H26C 7952   2.980   1.103   8.453  0.9195 -1.6133 -0.9240
   74CHL1   C27 7953   2.754   1.282   8.456 -0.3480  0.0170 -0.0004
   74CHL1  H27A 7954   2.655   1.274   8.506  0.8567 -1.9774  2.2913
   74CHL1  H27B 7955   2.823   1.290   8.543 -1.5921  0.4221  0.9835
   74CHL1  H27C 7956   2.774   1.370   8.393  1.5533  0.1958  0.7992
   75CHL1    C3 7957   5.580   1.477   6.880 -0.0832  0.6713 -0.3162
   75CHL1    H3 7958   5.499   1.549   6.855  1.7784  3.2729  0.7112
   75CHL1    O3 7959   5.616   1.404   6.763 -0.2117  0.3106  0.9327
   75CHL1   H3' 7960   5.571   1.322   6.781  0.1590  0.0384  0.6271
   75CHL1    C4 7961   5.698   1.555   6.929 -0.3529 -0.4733 -0.1656
   75CHL1   H4A 7962   5.785   1.488   6.940  1.6881  2.1919  0.9994
   75CHL1   H4B 7963   5.728   1.626   6.849 -2.2169 -0.7708 -1.1889
   75CHL1    C5 7964   5.667   1.620   7.069 -0.1496  0.4246  0.1322
   75CHL1    C6 7965   5.684   1.752   7.090  0.5280 -0.1549 -0.2503
   75CHL1    H6 7966   5.726   1.816   7.011  1.1539  0.6525  0.7078
   75CHL1    C7 7967   5.657   1.823   7.222  0.3656 -0.8196  0.4816
   75CHL1   H7A 7968   5.743   1.887   7.251  0.0835 -0.3263  0.2386
   75CHL1   H7B 7969   5.563   1.880   7.210 -1.1738 -3.3363 -0.2022
   75CHL1    C8 7970   5.649   1.722   7.338  0.3321  0.0094  0.4189
   75CHL1    H8 7971   5.746   1.674   7.362  1.4751  1.7562 -0.4901
   75CHL1   C14 7972   5.597   1.800   7.454  0.5519 -0.2824 -0.1538
   75CHL1   H14 7973   5.497   1.839   7.423  0.7958  0.4248 -0.0554
   75CHL1   C15 7974   5.672   1.918   7.509  0.0253 -0.2800 -0.7300
   75CHL1  H15A 7975   5.782   1.903   7.518  0.2737 -0.6689 -3.4728
   75CHL1  H15B 7976   5.666   2.010   7.446  1.6338 -0.6826 -1.5333
   75CHL1   C16 7977   5.601   1.950   7.642 -0.9894  0.4481  0.8279
   75CHL1  H16A 7978   5.676   1.966   7.723 -1.6624  1.0356  1.3471
   75CHL1  H16B 7979   5.525   2.030   7.630 -1.6172 -0.2036  0.3376
   75CHL1   C17 7980   5.516   1.821   7.680  0.1342 -0.7768 -0.5433
   75CHL1   H17 7981   5.414   1.840   7.641 -0.2749 -0.1817  0.7573
   75CHL1   C13 7982   5.557   1.712   7.579  0.1963  0.8454 -0.2501
   75CHL1   C18 7983   5.688   1.643   7.618 -0.9383 -0.1247 -0.3003
   75CHL1  H18A 7984   5.678   1.580   7.709  2.6905 -1.9843 -0.9998
   75CHL1  H18B 7985   5.737   1.572   7.549 -0.4682 -0.0349 -0.0625
   75CHL1  H18C 7986   5.756   1.724   7.652 -1.5873  0.5381 -0.5546
   75CHL1   C12 7987   5.446   1.618   7.528  0.8364 -0.4969 -0.5980
   75CHL1  H12A 7988   5.411   1.552   7.611 -0.2262  2.1232  1.1485
   75CHL1  H12B 7989   5.366   1.668   7.470  1.2105 -2.5763 -3.0826
   75CHL1   C11 7990   5.494   1.525   7.415  0.2806  0.1592 -0.1245
   75CHL1  H11A 7991   5.570   1.458   7.460  0.5633  1.9711  2.2856
   75CHL1  H11B 7992   5.410   1.461   7.380 -2.0125  1.8463  1.9559
   75CHL1    C9 7993   5.544   1.608   7.293  0.7620  0.4342  0.8240
   75CHL1    H9 7994   5.466   1.674   7.250  1.3328  0.6334  0.0684
   75CHL1   C10 7995   5.602   1.531   7.176  0.8614  0.2354 -0.3976
   75CHL1   C19 7996   5.708   1.427   7.226  0.1041 -0.3546  0.7090
   75CHL1  H19A 7997   5.663   1.346   7.287  0.0056 -0.3571  0.6337
   75CHL1  H19B 7998   5.745   1.371   7.137  0.4457  1.0664 -0.0783
   75CHL1  H19C 7999   5.804   1.473   7.255 -0.3537  1.4732 -0.5355
   75CHL1    C1 8000   5.488   1.450   7.119  0.4665  0.3430 -0.0167
   75CHL1   H1A 8001   5.456   1.374   7.192 -0.2777 -1.6315 -2.2736
   75CHL1   H1B 8002   5.396   1.509   7.098  0.1497 -0.5883 -1.3530
   75CHL1    C2 8003   5.523   1.374   6.987 -0.3876 -0.4673 -0.4915
   75CHL1   H2A 8004   5.437   1.318   6.944  0.6853 -0.7819 -2.3244
   75CHL1   H2B 8005   5.599   1.296   7.007 -0.6680 -0.0412  2.8899
   75CHL1   C20 8006   5.505   1.783   7.824 -0.1054 -0.3843  0.6882
   75CHL1   H20 8007   5.468   1.678   7.836 -0.0163 -0.6937 -1.4559
   75CHL1   C21 8008   5.390   1.867   7.871 -0.1670 -0.2847  0.3313
   75CHL1  H21A 8009   5.421   1.974   7.875 -2.3107  0.3261  1.8370
   75CHL1  H21B 8010   5.361   1.837   7.974 -0.6144  0.7725  0.5225
   75CHL1  H21C 8011   5.301   1.874   7.805 -0.1462 -3.5380 -0.2216
   75CHL1   C22 8012   5.629   1.799   7.911 -0.4171 -0.4927 -0.1179
   75CHL1  H22A 8013   5.706   1.727   7.879 -1.5109 -2.5453  1.5791
   75CHL1  H22B 8014   5.652   1.908   7.903 -3.8505  0.2404 -2.2007
   75CHL1   C23 8015   5.603   1.772   8.061  0.9725  0.6332  0.1056
   75CHL1  H23A 8016   5.536   1.848   8.106 -0.9681 -1.3010  0.6393
   75CHL1  H23B 8017   5.548   1.675   8.061 -1.2715  1.8308 -0.5366
   75CHL1   C24 8018   5.735   1.760   8.139  0.0538  0.4574  0.7395
   75CHL1  H24A 8019   5.805   1.690   8.089 -1.4346 -0.2204 -0.4571
   75CHL1  H24B 8020   5.784   1.860   8.143  0.9399  0.0320  0.6660
   75CHL1   C25 8021   5.729   1.711   8.288  0.1950  0.8293 -0.1821
   75CHL1   H25 8022   5.828   1.679   8.328 -0.3446  1.4388  1.7692
   75CHL1   C26 8023   5.681   1.822   8.379 -0.2584  0.0196 -0.4940
   75CHL1  H26A 8024   5.604   1.880   8.324  1.1232 -0.0695 -2.6591
   75CHL1  H26B 8025   5.626   1.783   8.467 -1.8678  2.5988 -0.2378
   75CHL1  H26C 8026   5.765   1.890   8.403 -0.8019  0.4997  0.0792
   75CHL1   C27 8027   5.637   1.587   8.306 -0.0982  0.3690 -0.0210
   75CHL1  H27A 8028   5.640   1.552   8.411  0.0361 -1.3262 -0.5511
   75CHL1  H27B 8029   5.529   1.605   8.286 -0.2897  1.3774  1.7315
   75CHL1  H27C 8030   5.675   1.512   8.233  1.3262 -0.6289  1.6596
   76CHL1    C3 8031   2.833   3.508   7.087 -0.1680 -0.4738  0.4071
   76CHL1    H3 8032   2.775   3.601   7.106  1.2753  0.8776 -1.4868
   76CHL1    O3 8033   2.815   3.468   6.955 -0.4087  0.0417  0.7670
   76CHL1   H3' 8034   2.823   3.548   6.902 -1.4036 -0.2972  0.0751
   76CHL1    C4 8035   2.987   3.536   7.112  0.3889  0.4915 -0.2483
   76CHL1   H4A 8036   3.038   3.444   7.077 -2.6248 -1.3526 -0.1756
   76CHL1   H4B 8037   3.024   3.612   7.041 -0.3780  0.8818 -0.2373
   76CHL1    C5 8038   3.004   3.576   7.260 -0.3356  0.2314 -0.3405
   76CHL1    C6 8039   3.064   3.695   7.283  0.4536  0.1669 -0.2951
   76CHL1    H6 8040   3.096   3.760   7.201  1.7448 -0.7838 -0.5676
   76CHL1    C7 8041   3.066   3.743   7.427 -0.3929 -0.5657  0.3545
   76CHL1   H7A 8042   3.166   3.788   7.438  0.3579 -1.8859 -0.7688
   76CHL1   H7B 8043   2.982   3.814   7.448 -0.4283 -0.7581  0.8889
   76CHL1    C8 8044   3.059   3.635   7.534 -0.3484  0.2320 -0.1675
   76CHL1    H8 8045   3.152   3.575   7.530 -0.8999 -0.7657  1.0807
   76CHL1   C14 8046   3.051   3.700   7.673 -0.3217  0.5590  0.4345
   76CHL1   H14 8047   2.961   3.765   7.673 -0.6443  0.1212  0.3470
   76CHL1   C15 8048   3.167   3.788   7.721  0.0524 -0.0665  0.3770
   76CHL1  H15A 8049   3.260   3.745   7.678  1.6495  1.0806  2.4664
   76CHL1  H15B 8050   3.169   3.890   7.677 -1.0756 -0.4600 -0.6133
   76CHL1   C16 8051   3.149   3.790   7.881  0.2922 -0.1177  0.3959
   76CHL1  H16A 8052   3.253   3.770   7.914  1.1677 -1.9146 -2.9311
   76CHL1  H16B 8053   3.119   3.890   7.918 -0.4970  0.0512 -0.6691
   76CHL1   C17 8054   3.056   3.676   7.922 -0.0543  1.1125  0.4191
   76CHL1   H17 8055   2.961   3.734   7.925  0.6767  2.3222  0.3772
   76CHL1   C13 8056   3.039   3.593   7.791 -0.1878 -0.0638 -0.3077
   76CHL1   C18 8057   3.154   3.488   7.778  0.7854  0.1095  0.8763
   76CHL1  H18A 8058   3.255   3.530   7.798  0.7631  0.6191 -0.0629
   76CHL1  H18B 8059   3.137   3.409   7.855 -3.3312  1.0836  1.2159
   76CHL1  H18C 8060   3.158   3.438   7.679 -1.4753  0.6473  0.4654
   76CHL1   C12 8061   2.902   3.511   7.767  0.5059 -0.6196 -0.1928
   76CHL1  H12A 8062   2.881   3.435   7.845  0.9897 -0.5624  0.0019
   76CHL1  H12B 8063   2.823   3.587   7.785  1.5657 -0.1792  3.5744
   76CHL1   C11 8064   2.891   3.449   7.627 -0.5590  1.1033  0.1787
   76CHL1  H11A 8065   2.965   3.367   7.637 -1.6810 -0.3278 -2.1788
   76CHL1  H11B 8066   2.790   3.408   7.606 -0.2769  0.5492 -0.1088
   76CHL1    C9 8067   2.937   3.541   7.512  0.3181  0.0557  1.0924
   76CHL1    H9 8068   2.855   3.616   7.506  0.7374  0.5790  1.7577
   76CHL1   C10 8069   2.942   3.483   7.368 -0.0882 -0.6353 -0.4564
   76CHL1   C19 8070   3.036   3.365   7.367 -0.2662  0.4543  0.1138
   76CHL1  H19A 8071   3.054   3.315   7.269  1.7897  1.9177 -0.3137
   76CHL1  H19B 8072   3.138   3.393   7.403  0.1148 -2.8013  1.9915
   76CHL1  H19C 8073   2.994   3.289   7.436  0.5322  0.1399  0.2715
   76CHL1    C1 8074   2.799   3.438   7.319  0.1357 -0.3282 -0.0423
   76CHL1   H1A 8075   2.747   3.360   7.378  0.9956  0.1183  1.3485
   76CHL1   H1B 8076   2.734   3.528   7.325  0.6617  0.0932 -0.5607
   76CHL1    C2 8077   2.782   3.392   7.174  0.3992 -0.0728 -0.0496
   76CHL1   H2A 8078   2.677   3.378   7.142  0.7318  2.4368 -2.7820
   76CHL1   H2B 8079   2.850   3.305   7.167 -0.0481 -0.4345  0.1073
   76CHL1   C20 8080   3.084   3.606   8.057 -0.5805 -0.5277 -0.1094
   76CHL1   H20 8081   3.179   3.550   8.051 -0.3623 -0.3465  1.2686
   76CHL1   C21 8082   2.974   3.506   8.094  0.3149  0.4990  0.1005
   76CHL1  H21A 8083   2.967   3.417   8.028  3.1258  1.2394 -1.3295
   76CHL1  H21B 8084   2.873   3.552   8.085 -0.6190 -1.5076 -0.2554
   76CHL1  H21C 8085   2.990   3.474   8.199  0.2893 -0.8436 -0.2871
   76CHL1   C22 8086   3.117   3.708   8.175  0.0888  0.1269 -0.0817
   76CHL1  H22A 8087   3.140   3.646   8.264 -0.3724 -1.1752 -0.8422
   76CHL1  H22B 8088   3.204   3.769   8.143  0.1045  0.8188  1.2216
   76CHL1   C23 8089   3.003   3.793   8.221  0.1233 -0.4438  0.4845
   76CHL1  H23A 8090   2.973   3.850   8.131  0.1479 -1.5662 -0.2563
   76CHL1  H23B 8091   2.913   3.741   8.260 -1.4969  1.0679 -1.0702
   76CHL1   C24 8092   3.042   3.887   8.343  0.2893 -0.3141  0.4622
   76CHL1  H24A 8093   3.066   3.817   8.425  0.2205 -1.0344 -0.1238
   76CHL1  H24B 8094   3.137   3.941   8.324 -0.4395  0.1384 -2.3235
   76CHL1   C25 8095   2.940   3.996   8.392 -0.4445  0.1341  0.3791
   76CHL1   H25 8096   2.991   4.058   8.469  1.0632  0.7060 -1.0243
   76CHL1   C26 8097   2.914   4.107   8.286 -0.0935 -0.3890  0.0975
   76CHL1  H26A 8098   3.013   4.143   8.250  1.2621 -0.7781  3.0753
   76CHL1  H26B 8099   2.854   4.057   8.208 -1.2521 -0.2811  0.8916
   76CHL1  H26C 8100   2.848   4.188   8.324  1.0409  0.0829  1.1208
   76CHL1   C27 8101   2.813   3.937   8.457 -0.3946  1.0986  0.4345
   76CHL1  H27A 8102   2.748   4.026   8.471  1.6699  3.3920 -2.9328
   76CHL1  H27B 8103   2.755   3.875   8.384  2.7873  0.9150 -2.1888
   76CHL1  H27C 8104   2.837   3.876   8.547 -3.0673 -1.1142 -0.2069
   77CHL1    C3 8105   4.771   2.870   6.835 -0.1260  0.7219  0.3333
   77CHL1    H3 8106   4.682   2.936   6.846  1.2448  2.8114 -0.4860
   77CHL1    O3 8107   4.745   2.812   6.713 -0.2475  0.5367 -0.5727
   77CHL1   H3' 8108   4.649   2.808   6.709 -0.2943 -1.4059  0.8461
   77CHL1    C4 8109   4.900   2.949   6.832  0.1317  0.2114  0.9632
   77CHL1   H4A 8110   4.980   2.882   6.792  0.6557  2.3564 -1.9415
   77CHL1   H4B 8111   4.882   3.019   6.747  1.2063  0.4136  0.8932
   77CHL1    C5 8112   4.925   3.014   6.965  0.6053  0.2030 -0.5790
   77CHL1    C6 8113   4.947   3.145   6.972 -0.9924  0.6027 -0.0950
   77CHL1    H6 8114   4.960   3.207   6.882 -0.3121  2.2237  1.0684
   77CHL1    C7 8115   4.947   3.223   7.101  0.4636  0.1070 -0.6421
   77CHL1   H7A 8116   5.028   3.298   7.100  1.7486 -1.1129  2.0117
   77CHL1   H7B 8117   4.852   3.281   7.102  0.4851  0.2008 -1.9570
   77CHL1    C8 8118   4.959   3.132   7.230 -0.3622 -0.4868  0.3032
   77CHL1    H8 8119   5.061   3.090   7.234 -0.5658 -1.1869 -1.2921
   77CHL1   C14 8120   4.920   3.203   7.358  0.0746  0.4388 -0.4799
   77CHL1   H14 8121   4.812   3.227   7.346  0.3864  0.9967 -2.4683
   77CHL1   C15 8122   4.993   3.335   7.382  0.2364 -0.3149 -0.5856
   77CHL1  H15A 8123   5.100   3.340   7.353  1.4866  1.4067  3.5967
   77CHL1  H15B 8124   4.950   3.415   7.317 -1.1906  1.4252  2.3106
   77CHL1   C16 8125   4.976   3.359   7.529 -0.0441  0.0290 -0.8425
   77CHL1  H16A 8126   5.072   3.362   7.584  0.2050 -0.1238 -1.2602
   77CHL1  H16B 8127   4.923   3.452   7.560 -1.8048 -1.2283  0.0332
   77CHL1   C17 8128   4.911   3.231   7.593  0.4803  0.2091  0.3702
   77CHL1   H17 8129   4.803   3.255   7.584  0.7274  0.7511 -1.8044
   77CHL1   C13 8130   4.943   3.119   7.487  0.0712  0.2283 -0.3795
   77CHL1   C18 8131   5.089   3.068   7.505  0.2100  0.7842 -0.2532
   77CHL1  H18A 8132   5.086   3.003   7.595  0.1400 -1.9288 -2.0876
   77CHL1  H18B 8133   5.126   3.011   7.417  1.3822  2.3369 -0.8011
   77CHL1  H18C 8134   5.165   3.148   7.517  1.5233 -0.5065  0.3347
   77CHL1   C12 8135   4.849   2.992   7.477  0.3080 -0.3577  0.2769
   77CHL1  H12A 8136   4.856   2.926   7.566  3.3230 -1.7981 -0.9062
   77CHL1  H12B 8137   4.748   3.038   7.475  0.6282  0.3300 -0.3737
   77CHL1   C11 8138   4.876   2.916   7.350 -0.2161 -0.5666  0.7702
   77CHL1  H11A 8139   4.972   2.861   7.362 -1.0092 -1.6903  2.2908
   77CHL1  H11B 8140   4.787   2.850   7.337 -1.4516  1.0352  0.8466
   77CHL1    C9 8141   4.879   3.003   7.221 -0.0074 -0.1575  0.5354
   77CHL1    H9 8142   4.775   3.044   7.219  0.6586  1.6673  1.3148
   77CHL1   C10 8143   4.903   2.918   7.087 -0.3154 -0.2154  0.3056
   77CHL1   C19 8144   5.026   2.822   7.109 -0.4254 -0.5276 -0.2873
   77CHL1  H19A 8145   5.117   2.886   7.105 -0.6378 -0.0798  1.2507
   77CHL1  H19B 8146   5.032   2.771   7.207  0.7067 -0.6451 -0.4079
   77CHL1  H19C 8147   5.028   2.759   7.018 -2.5574  2.9255 -3.0035
   77CHL1    C1 8148   4.772   2.833   7.076  0.5433  0.1905 -0.1027
   77CHL1   H1A 8149   4.761   2.760   7.160  0.7783 -0.0683 -0.2955
   77CHL1   H1B 8150   4.685   2.902   7.079 -0.2960 -0.8311  0.0556
   77CHL1    C2 8151   4.771   2.763   6.942  0.3399  0.6259  0.7512
   77CHL1   H2A 8152   4.681   2.698   6.931  0.1063  1.1595 -0.8274
   77CHL1   H2B 8153   4.859   2.697   6.928 -0.1642  0.2811 -1.0596
   77CHL1   C20 8154   4.946   3.210   7.744 -0.0348 -0.3871  0.7598
   77CHL1   H20 8155   5.049   3.170   7.750 -0.3417 -1.5415 -0.8744
   77CHL1   C21 8156   4.861   3.104   7.810  0.3322 -0.7134 -0.3874
   77CHL1  H21A 8157   4.865   3.006   7.758 -0.5314 -2.0214  1.8322
   77CHL1  H21B 8158   4.754   3.134   7.812  0.4492 -0.2938 -0.3080
   77CHL1  H21C 8159   4.894   3.095   7.916 -2.3948 -0.5564  0.5510
   77CHL1   C22 8160   4.928   3.338   7.822 -0.6892 -0.3699 -0.1959
   77CHL1  H22A 8161   4.955   3.432   7.768 -1.0175 -0.3938 -0.3992
   77CHL1  H22B 8162   4.819   3.351   7.837 -0.7852 -0.1676 -1.0219
   77CHL1   C23 8163   4.992   3.342   7.964 -0.1516 -0.4767  0.2617
   77CHL1  H23A 8164   4.937   3.266   8.024  2.0303 -1.2726  1.3783
   77CHL1  H23B 8165   5.101   3.318   7.956  0.3141  0.9596  1.6338
   77CHL1   C24 8166   4.981   3.469   8.049  0.3822  0.2688  0.2695
   77CHL1  H24A 8167   5.039   3.550   8.000 -2.1862  0.7903 -2.1621
   77CHL1  H24B 8168   4.879   3.513   8.048  0.5762  0.7127  0.0202
   77CHL1   C25 8169   5.022   3.453   8.190 -0.6189  0.8312 -0.0965
   77CHL1   H25 8170   4.991   3.349   8.215  2.4411 -0.7288 -2.1289
   77CHL1   C26 8171   5.175   3.466   8.203  0.5286 -0.7947 -0.2441
   77CHL1  H26A 8172   5.232   3.399   8.135 -0.1059 -2.4852  0.8217
   77CHL1  H26B 8173   5.220   3.568   8.207 -1.0400 -0.1009  2.2429
   77CHL1  H26C 8174   5.187   3.431   8.308 -1.4367 -0.6306  0.0599
   77CHL1   C27 8175   4.957   3.561   8.277 -0.1685  0.3083  0.7340
   77CHL1  H27A 8176   4.847   3.556   8.262  0.1017 -2.6379 -1.0202
   77CHL1  H27B 8177   4.977   3.535   8.383 -1.0853  0.3040  0.9155
   77CHL1  H27C 8178   5.005   3.657   8.249 -1.2048  0.7076  0.2515
   78CHL1    C3 8179   0.161   2.406   6.858  0.2930 -0.6269  0.4990
   78CHL1    H3 8180   0.082   2.358   6.919  1.3628 -1.8696  0.9661
   78CHL1    O3 8181   0.147   2.398   6.717  0.1147  0.3294 -0.1929
   78CHL1   H3' 8182   0.233   2.420   6.681  0.5476  1.8119  1.5882
   78CHL1    C4 8183   0.184   2.548   6.902 -0.6850 -1.1322  0.1112
   78CHL1   H4A 8184   0.279   2.585   6.857 -1.7799 -1.6958 -2.8926
   78CHL1   H4B 8185   0.098   2.610   6.870  0.6976  0.9932  0.3188
   78CHL1    C5 8186   0.194   2.557   7.051 -0.2906  0.4733 -0.5535
   78CHL1    C6 8187   0.110   2.637   7.129  0.1523  0.1734 -0.1482
   78CHL1    H6 8188   0.032   2.695   7.078  0.6932  1.8359  0.8333
   78CHL1    C7 8189   0.129   2.659   7.273 -0.1577 -0.4232 -0.1350
   78CHL1   H7A 8190   0.121   2.767   7.297 -1.2606 -0.9251  1.9485
   78CHL1   H7B 8191   0.043   2.609   7.323 -0.7012 -0.0257 -0.6653
   78CHL1    C8 8192   0.261   2.608   7.335  0.4551  0.1269 -0.0497
   78CHL1    H8 8193   0.336   2.685   7.306  0.5504  0.2755  0.5913
   78CHL1   C14 8194   0.249   2.588   7.487  0.0562 -0.5808 -0.1519
   78CHL1   H14 8195   0.181   2.500   7.488  0.3985 -0.8471 -0.4586
   78CHL1   C15 8196   0.177   2.695   7.571 -0.9518  0.3377  0.9561
   78CHL1  H15A 8197   0.182   2.799   7.532  2.1187  0.7063  2.0741
   78CHL1  H15B 8198   0.071   2.670   7.589 -1.2445 -0.5890 -1.6755
   78CHL1   C16 8199   0.237   2.684   7.713 -1.1841  0.5343 -0.0695
   78CHL1  H16A 8200   0.309   2.766   7.729 -0.6557  0.0752 -0.0679
   78CHL1  H16B 8201   0.155   2.679   7.788 -1.4056  1.4564 -0.2357
   78CHL1   C17 8202   0.321   2.554   7.711  0.2015 -0.2674 -0.4969
   78CHL1   H17 8203   0.250   2.470   7.725  1.3634 -1.2339 -0.2044
   78CHL1   C13 8204   0.370   2.539   7.566  0.1765 -0.0666  0.1480
   78CHL1   C18 8205   0.481   2.649   7.532 -0.4358 -0.2595 -0.0323
   78CHL1  H18A 8206   0.579   2.633   7.582 -0.1638 -1.0414 -0.7910
   78CHL1  H18B 8207   0.492   2.647   7.421 -3.4888  1.8775 -0.5015
   78CHL1  H18C 8208   0.444   2.749   7.560 -0.4628 -0.2864  0.0284
   78CHL1   C12 8209   0.410   2.402   7.508  0.2271  0.1600  0.0472
   78CHL1  H12A 8210   0.513   2.384   7.545  1.2675  2.6174 -1.4026
   78CHL1  H12B 8211   0.332   2.325   7.530  0.3388  0.1339  0.3624
   78CHL1   C11 8212   0.414   2.407   7.354 -0.2594 -0.6591  0.0356
   78CHL1  H11A 8213   0.503   2.471   7.334 -0.8404  0.0860 -0.2136
   78CHL1  H11B 8214   0.442   2.308   7.312 -1.7923 -1.6777  1.3669
   78CHL1    C9 8215   0.296   2.471   7.271 -0.1641 -0.7012  0.3239
   78CHL1    H9 8216   0.210   2.405   7.292 -2.3108  2.4697  2.3931
   78CHL1   C10 8217   0.308   2.472   7.113 -0.4049 -0.1307 -0.5129
   78CHL1   C19 8218   0.443   2.552   7.076  0.2905 -0.6136  0.4678
   78CHL1  H19A 8219   0.448   2.558   6.965  0.6107 -0.3616  0.4971
   78CHL1  H19B 8220   0.449   2.658   7.107  1.1195  0.3427 -2.5984
   78CHL1  H19C 8221   0.531   2.497   7.114 -0.7876 -0.9453  2.6901
   78CHL1    C1 8222   0.303   2.325   7.051 -0.4931 -0.0429 -0.1473
   78CHL1   H1A 8223   0.388   2.259   7.075 -0.4690  0.3301  0.8487
   78CHL1   H1B 8224   0.219   2.276   7.105  0.6509  0.1354  1.8717
   78CHL1    C2 8225   0.282   2.327   6.897 -0.5398  0.3011  0.1764
   78CHL1   H2A 8226   0.263   2.223   6.862 -1.2587  1.0468 -1.7872
   78CHL1   H2B 8227   0.373   2.378   6.860 -1.8713 -0.2797 -4.4800
   78CHL1   C20 8228   0.424   2.528   7.821 -0.1042  0.0868 -0.2371
   78CHL1   H20 8229   0.516   2.583   7.793  0.1994 -0.9883 -1.4112
   78CHL1   C21 8230   0.441   2.379   7.832 -0.6118  0.5124 -0.2743
   78CHL1  H21A 8231   0.462   2.318   7.742 -1.1431 -3.1877  1.8859
   78CHL1  H21B 8232   0.357   2.329   7.886 -0.3967 -0.4092 -0.7899
   78CHL1  H21C 8233   0.531   2.359   7.894 -0.4847 -0.8361 -0.8611
   78CHL1   C22 8234   0.374   2.592   7.955 -0.2223  0.1116  0.7485
   78CHL1  H22A 8235   0.363   2.702   7.953 -0.0029  0.1404  1.0572
   78CHL1  H22B 8236   0.274   2.548   7.974 -0.3349 -0.0907 -0.2416
   78CHL1   C23 8237   0.467   2.565   8.073  0.4861  0.6156  0.9896
   78CHL1  H23A 8238   0.474   2.455   8.084  1.6480  0.8507  3.0256
   78CHL1  H23B 8239   0.571   2.604   8.060  0.4376  0.4090 -0.1336
   78CHL1   C24 8240   0.403   2.623   8.205  0.0621  0.4128  0.2135
   78CHL1  H24A 8241   0.385   2.732   8.200  0.0197  0.4767  1.5060
   78CHL1  H24B 8242   0.308   2.566   8.219  0.9680 -0.7004  2.2700
   78CHL1   C25 8243   0.498   2.616   8.328 -0.0566 -0.2922 -0.2605
   78CHL1   H25 8244   0.593   2.672   8.308 -1.4326  1.7876 -1.4129
   78CHL1   C26 8245   0.439   2.680   8.456  0.8509  0.1788  0.4970
   78CHL1  H26A 8246   0.404   2.784   8.440  1.1484 -0.1688 -3.4709
   78CHL1  H26B 8247   0.356   2.614   8.492  1.4237 -2.1363 -2.0753
   78CHL1  H26C 8248   0.514   2.673   8.538  0.4567 -4.6101  0.7334
   78CHL1   C27 8249   0.531   2.468   8.357 -0.6252  0.6443 -0.2674
   78CHL1  H27A 8250   0.589   2.415   8.278  0.1911 -0.8615  1.2744
   78CHL1  H27B 8251   0.592   2.457   8.449  0.2247 -0.3444 -0.9165
   78CHL1  H27C 8252   0.436   2.411   8.358  0.6363 -1.6432 -1.7997
   79CHL1    C3 8253   3.842   4.672   7.265  0.2253 -0.0548  0.2117
   79CHL1    H3 8254   3.796   4.763   7.308  1.8811  0.5446  0.7819
   79CHL1    O3 8255   3.804   4.654   7.124  0.1016  0.3777  0.2604
   79CHL1   H3' 8256   3.837   4.565   7.109 -0.5267  0.0542  0.7428
   79CHL1    C4 8257   3.993   4.669   7.284  0.1855 -0.5110  0.2016
   79CHL1   H4A 8258   4.026   4.575   7.234  0.4745 -0.2048 -0.1903
   79CHL1   H4B 8259   4.037   4.757   7.233 -2.4119 -0.4707 -2.2511
   79CHL1    C5 8260   4.038   4.655   7.425  0.5441  0.0164  0.0399
   79CHL1    C6 8261   4.129   4.735   7.471 -0.3720  0.1955 -0.0406
   79CHL1    H6 8262   4.167   4.818   7.411  0.5242 -1.8411 -2.4846
   79CHL1    C7 8263   4.176   4.735   7.612 -0.5309  0.1405  0.4947
   79CHL1   H7A 8264   4.287   4.732   7.618 -0.4240  1.6788 -0.3019
   79CHL1   H7B 8265   4.140   4.832   7.652 -1.5109  0.6591 -1.5014
   79CHL1    C8 8266   4.130   4.615   7.698 -0.4755 -0.0976 -0.8037
   79CHL1    H8 8267   4.193   4.528   7.671  1.1692  0.0837  1.9818
   79CHL1   C14 8268   4.148   4.639   7.849  0.3909  0.3222  0.7190
   79CHL1   H14 8269   4.084   4.728   7.869  0.8178  1.0359 -0.9411
   79CHL1   C15 8270   4.285   4.688   7.902  0.2205  0.3480 -0.1343
   79CHL1  H15A 8271   4.358   4.630   7.842  1.1837  1.7104 -0.3180
   79CHL1  H15B 8272   4.315   4.793   7.886 -1.0683  0.2060 -4.8003
   79CHL1   C16 8273   4.284   4.656   8.052  0.5633 -0.0352 -0.4184
   79CHL1  H16A 8274   4.370   4.593   8.083 -0.2142 -1.8796 -1.8346
   79CHL1  H16B 8275   4.299   4.747   8.115 -0.4547  1.6727 -2.4952
   79CHL1   C17 8276   4.146   4.585   8.084 -0.6368  0.1426  0.4772
   79CHL1   H17 8277   4.076   4.669   8.105 -1.4029 -0.8202  1.9062
   79CHL1   C13 8278   4.099   4.526   7.941  0.3147  0.6740 -0.4374
   79CHL1   C18 8279   4.185   4.405   7.916 -0.4890 -0.1631 -0.0544
   79CHL1  H18A 8280   4.269   4.387   7.986 -0.3044 -3.9062 -1.0624
   79CHL1  H18B 8281   4.125   4.312   7.909 -2.0297  0.8682 -1.6257
   79CHL1  H18C 8282   4.246   4.426   7.826  1.5552  0.2234  1.3601
   79CHL1   C12 8283   3.951   4.501   7.912  0.0498  0.4437 -0.1108
   79CHL1  H12A 8284   3.924   4.405   7.961  1.4492  0.6524  1.1123
   79CHL1  H12B 8285   3.897   4.576   7.973  0.8452  0.4576  0.5890
   79CHL1   C11 8286   3.937   4.467   7.763 -0.0952  0.3446 -0.1569
   79CHL1  H11A 8287   4.003   4.380   7.742  2.0993  1.8631  0.1871
   79CHL1  H11B 8288   3.834   4.434   7.736  0.3437  0.4062 -2.0661
   79CHL1    C9 8289   3.988   4.581   7.671 -0.1869  1.0398  0.2565
   79CHL1    H9 8290   3.923   4.665   7.703 -2.7215 -0.7220  0.0572
   79CHL1   C10 8291   3.967   4.554   7.520 -0.4686  0.2409 -0.5000
   79CHL1   C19 8292   4.028   4.411   7.490 -0.1764 -0.2653  0.4420
   79CHL1  H19A 8293   3.972   4.336   7.550  0.6346 -1.1215  0.1478
   79CHL1  H19B 8294   4.008   4.388   7.383 -1.4691  1.3196  0.3047
   79CHL1  H19C 8295   4.137   4.405   7.508  0.5743  1.8445 -2.5729
   79CHL1    C1 8296   3.818   4.555   7.488 -0.0083  0.2166 -0.1443
   79CHL1   H1A 8297   3.759   4.468   7.525  0.4290  0.6425  1.6906
   79CHL1   H1B 8298   3.769   4.635   7.547 -1.9661 -1.6185  0.8574
   79CHL1    C2 8299   3.780   4.554   7.337  0.1616 -0.2456 -0.1677
   79CHL1   H2A 8300   3.669   4.562   7.328  0.1003  0.1901  0.9027
   79CHL1   H2B 8301   3.810   4.463   7.281  2.0623  1.5278 -2.2074
   79CHL1   C20 8302   4.144   4.492   8.205 -0.0464  0.7294  0.2092
   79CHL1   H20 8303   4.201   4.397   8.191 -2.5788 -1.0381  1.1624
   79CHL1   C21 8304   4.006   4.433   8.242  0.8352  0.0650 -0.4928
   79CHL1  H21A 8305   4.017   4.372   8.334  4.2913  0.5284 -0.4443
   79CHL1  H21B 8306   3.968   4.378   8.153  2.6193  0.8195 -1.7956
   79CHL1  H21C 8307   3.933   4.512   8.268  1.3169 -0.0537  1.3481
   79CHL1   C22 8308   4.217   4.547   8.333  0.1470  0.4328 -0.0163
   79CHL1  H22A 8309   4.209   4.482   8.423 -0.8697 -1.9481 -1.7210
   79CHL1  H22B 8310   4.326   4.562   8.319  0.7012 -0.6818  2.5184
   79CHL1   C23 8311   4.151   4.679   8.381  0.3694 -0.1536 -0.0213
   79CHL1  H23A 8312   4.141   4.750   8.297  0.2334  0.7324  0.7251
   79CHL1  H23B 8313   4.046   4.660   8.413  0.5076 -1.4712 -0.2611
   79CHL1   C24 8314   4.222   4.753   8.497 -0.5851 -0.7269  0.2959
   79CHL1  H24A 8315   4.212   4.700   8.594 -4.2000 -0.4813  0.2071
   79CHL1  H24B 8316   4.328   4.764   8.466 -0.9913 -0.7240 -1.1817
   79CHL1   C25 8317   4.170   4.892   8.524  0.1242 -0.3557 -1.4357
   79CHL1   H25 8318   4.155   4.943   8.426 -0.3134  3.1472  0.3012
   79CHL1   C26 8319   4.031   4.897   8.596 -0.4005 -0.3452  0.1239
   79CHL1  H26A 8320   3.952   4.876   8.521  0.2446  2.1577 -1.3679
   79CHL1  H26B 8321   4.036   4.823   8.679  2.1085 -1.8729 -1.2497
   79CHL1  H26C 8322   4.013   5.001   8.630 -1.1138  0.7854 -3.3457
   79CHL1   C27 8323   4.274   4.960   8.616 -0.5112 -0.0972 -0.3962
   79CHL1  H27A 8324   4.296   4.908   8.712  0.3049 -1.0128 -1.0658
   79CHL1  H27B 8325   4.364   4.975   8.553 -1.1432  1.3259 -0.9866
   79CHL1  H27C 8326   4.246   5.065   8.641  2.9243  1.1908 -1.4462
   80CHL1    C3 8327   2.075   0.112   7.250  0.5718  0.3034 -0.0060
   80CHL1    H3 8328   2.101   0.218   7.268  0.2937  0.3374  0.2071
   80CHL1    O3 8329   2.111   0.072   7.116  0.0296 -0.1778  0.4122
   80CHL1   H3' 8330   2.100  -0.023   7.113 -1.4151 -0.0077 -2.4560
   80CHL1    C4 8331   2.169   0.042   7.347  0.2476 -0.1727 -1.2249
   80CHL1   H4A 8332   2.150  -0.065   7.323 -0.4968 -0.7263  1.5071
   80CHL1   H4B 8333   2.275   0.065   7.323  0.8341  0.1023  1.3783
   80CHL1    C5 8334   2.134   0.075   7.497  0.2935 -0.3260  0.5096
   80CHL1    C6 8335   2.223   0.138   7.581  0.5184  0.2466 -0.2196
   80CHL1    H6 8336   2.323   0.163   7.545 -0.9399  1.5783 -3.8409
   80CHL1    C7 8337   2.196   0.180   7.721 -0.4320  0.5648 -0.1821
   80CHL1   H7A 8338   2.283   0.161   7.787 -1.5929  0.0537  1.2585
   80CHL1   H7B 8339   2.168   0.287   7.714 -0.2878  0.5708 -0.7868
   80CHL1    C8 8340   2.063   0.113   7.774 -0.6182  0.6230  0.1524
   80CHL1    H8 8341   2.084   0.006   7.796  0.0507  1.0974  1.9444
   80CHL1   C14 8342   2.019   0.178   7.902  0.4951 -0.1299 -0.1537
   80CHL1   H14 8343   2.001   0.286   7.882  0.1870 -0.2247 -0.3952
   80CHL1   C15 8344   2.117   0.165   8.019  0.1997 -0.3619 -0.8251
   80CHL1  H15A 8345   2.147   0.059   8.028 -1.2236 -0.7035  0.1471
   80CHL1  H15B 8346   2.200   0.238   8.010 -1.2632  1.6866  1.1706
   80CHL1   C16 8347   2.042   0.201   8.146 -0.4690  0.9275 -0.1370
   80CHL1  H16A 8348   2.041   0.122   8.224 -0.1114 -0.1452 -1.1769
   80CHL1  H16B 8349   2.070   0.296   8.195 -1.7752  0.8318  0.8265
   80CHL1   C17 8350   1.887   0.203   8.100 -0.4982 -0.8111  0.3629
   80CHL1   H17 8351   1.872   0.308   8.067  1.4997 -0.5604  0.1053
   80CHL1   C13 8352   1.886   0.119   7.963 -0.7507  0.7632  0.5823
   80CHL1   C18 8353   1.896  -0.037   7.999 -0.1671  0.1977 -0.2112
   80CHL1  H18A 8354   1.931  -0.103   7.916  3.0074  2.0647 -0.5432
   80CHL1  H18B 8355   1.973  -0.048   8.078  2.0671  2.3380 -1.9046
   80CHL1  H18C 8356   1.801  -0.058   8.052  0.2346  1.6496  1.1426
   80CHL1   C12 8357   1.770   0.139   7.858 -0.7752 -0.3429  0.0090
   80CHL1  H12A 8358   1.672   0.088   7.866 -1.1475 -0.0782 -2.3041
   80CHL1  H12B 8359   1.756   0.247   7.839  0.1811  0.0880  1.5735
   80CHL1   C11 8360   1.814   0.085   7.718  0.5969  0.5451 -0.2001
   80CHL1  H11A 8361   1.811  -0.026   7.725 -1.6018  0.5221 -0.6490
   80CHL1  H11B 8362   1.744   0.122   7.639  1.4119  0.3726 -1.0138
   80CHL1    C9 8363   1.952   0.128   7.670 -0.3122 -0.5110 -0.0527
   80CHL1    H9 8364   1.942   0.236   7.644 -1.5481 -0.8281 -0.9922
   80CHL1   C10 8365   1.988   0.058   7.529 -0.1042 -0.4214 -0.2831
   80CHL1   C19 8366   1.968  -0.091   7.541 -0.2151  0.0747 -0.6060
   80CHL1  H19A 8367   1.859  -0.113   7.538 -0.2175  0.1935 -2.3769
   80CHL1  H19B 8368   2.020  -0.146   7.459  1.3172 -0.3284  0.5784
   80CHL1  H19C 8369   2.003  -0.118   7.643  0.1635 -0.9315 -0.9855
   80CHL1    C1 8370   1.886   0.117   7.427  0.0362 -0.0987  0.1778
   80CHL1   H1A 8371   1.789   0.064   7.432  0.3502 -0.6199  1.0133
   80CHL1   H1B 8372   1.881   0.228   7.437  2.3359 -0.1117  3.2865
   80CHL1    C2 8373   1.931   0.078   7.283 -0.1247 -0.2956 -0.1356
   80CHL1   H2A 8374   1.869   0.129   7.206 -0.9999 -1.0078  0.0695
   80CHL1   H2B 8375   1.909  -0.031   7.281 -0.2468 -0.2612 -1.8450
   80CHL1   C20 8376   1.781   0.172   8.199  0.4258 -0.0138  0.3235
   80CHL1   H20 8377   1.768   0.062   8.205  0.1989 -0.0573 -0.8277
   80CHL1   C21 8378   1.647   0.242   8.154 -0.1759 -0.0942 -0.0808
   80CHL1  H21A 8379   1.664   0.351   8.152  1.4844 -0.2627 -4.2430
   80CHL1  H21B 8380   1.562   0.213   8.219  1.5114 -0.5159  2.0848
   80CHL1  H21C 8381   1.631   0.214   8.048 -0.5650 -0.6354  0.1167
   80CHL1   C22 8382   1.812   0.232   8.339 -0.3728 -0.0558  0.2538
   80CHL1  H22A 8383   1.904   0.179   8.373  0.4368  1.6005  0.7305
   80CHL1  H22B 8384   1.838   0.340   8.338  0.5500 -0.2370  1.4588
   80CHL1   C23 8385   1.718   0.191   8.452  0.0628  0.0019 -0.2749
   80CHL1  H23A 8386   1.764   0.226   8.547  0.2229  0.5623 -0.5588
   80CHL1  H23B 8387   1.621   0.244   8.445  0.8069  1.5039  0.5418
   80CHL1   C24 8388   1.686   0.038   8.467 -0.0472 -0.6816 -0.0727
   80CHL1  H24A 8389   1.656  -0.001   8.368  2.2078  0.8203 -1.4560
   80CHL1  H24B 8390   1.785  -0.007   8.493 -0.7712 -1.3401  1.6632
   80CHL1   C25 8391   1.578   0.001   8.572 -0.0550 -0.2151  0.2647
   80CHL1   H25 8392   1.483   0.030   8.522  0.7101 -0.1765 -1.2453
   80CHL1   C26 8393   1.580  -0.153   8.589 -0.4482  0.3841  0.2305
   80CHL1  H26A 8394   1.507  -0.198   8.660  0.1755  0.9499  1.2554
   80CHL1  H26B 8395   1.571  -0.208   8.493  0.6459 -1.4648  1.1452
   80CHL1  H26C 8396   1.675  -0.186   8.634 -0.2490 -0.6327 -0.8746
   80CHL1   C27 8397   1.602   0.060   8.711  0.0525  0.5824 -0.7016
   80CHL1  H27A 8398   1.581   0.170   8.707  0.3403  0.7300  1.0109
   80CHL1  H27B 8399   1.524   0.021   8.780  1.0744  0.0583  0.1845
   80CHL1  H27C 8400   1.701   0.046   8.758  0.1829  0.0174 -1.1390
   81CHL1    C3 8401   0.134   6.766   7.092 -0.6095  0.5018  0.4382
   81CHL1    H3 8402   0.023   6.771   7.105 -0.6907 -1.8228  0.9224
   81CHL1    O3 8403   0.176   6.776   6.960 -0.0997 -0.5884 -0.0377
   81CHL1   H3' 8404   0.271   6.763   6.956  0.0419  0.2042  0.5168
   81CHL1    C4 8405   0.205   6.871   7.173 -0.2389  0.1817  0.1890
   81CHL1   H4A 8406   0.313   6.855   7.153  0.0426  2.1743 -0.0845
   81CHL1   H4B 8407   0.180   6.967   7.122 -1.1340 -0.5221 -0.7493
   81CHL1    C5 8408   0.177   6.879   7.318 -0.8159 -0.5345 -0.5178
   81CHL1    C6 8409   0.154   6.996   7.371  0.4240 -0.2488 -0.2635
   81CHL1    H6 8410   0.159   7.091   7.316 -0.7922  0.5540  0.9575
   81CHL1    C7 8411   0.131   7.002   7.521 -0.0594 -0.3701 -1.0064
   81CHL1   H7A 8412   0.196   7.080   7.565 -1.7052 -0.8568  2.6668
   81CHL1   H7B 8413   0.030   7.042   7.543  0.7163  0.3841  1.4407
   81CHL1    C8 8414   0.163   6.874   7.603 -0.2927 -0.8185 -0.4753
   81CHL1    H8 8415   0.274   6.868   7.610 -0.1866  0.2039 -0.9828
   81CHL1   C14 8416   0.108   6.896   7.738  0.4356  0.1711 -0.4507
   81CHL1   H14 8417  -0.002   6.901   7.721  0.2704 -1.3973 -0.0461
   81CHL1   C15 8418   0.149   7.023   7.821  1.0730 -0.6022  0.2103
   81CHL1  H15A 8419   0.260   7.014   7.824  0.9707 -1.8398  0.9629
   81CHL1  H15B 8420   0.106   7.119   7.787 -0.6931 -1.1352  0.8057
   81CHL1   C16 8421   0.090   6.984   7.956  0.5438  0.5030 -0.0344
   81CHL1  H16A 8422   0.166   6.998   8.036  0.7522  1.2386 -0.3518
   81CHL1  H16B 8423   0.007   7.048   7.992  0.6533  1.1499 -0.9197
   81CHL1   C17 8424   0.051   6.834   7.959 -0.0711 -0.3128 -0.0656
   81CHL1   H17 8425  -0.054   6.834   7.922  0.7639  1.5814 -2.6952
   81CHL1   C13 8426   0.124   6.776   7.831 -0.2950 -0.5423  0.4880
   81CHL1   C18 8427   0.268   6.749   7.864 -0.0009  0.6466 -0.0338
   81CHL1  H18A 8428   0.323   6.737   7.768  0.1306 -0.6525  0.1815
   81CHL1  H18B 8429   0.320   6.818   7.934  2.2959 -0.7204 -0.2505
   81CHL1  H18C 8430   0.270   6.652   7.919 -1.2072  1.9696  2.4914
   81CHL1   C12 8431   0.053   6.657   7.761 -0.5892 -0.6548 -0.4984
   81CHL1  H12A 8432   0.078   6.567   7.822  0.2575 -0.6984 -0.8863
   81CHL1  H12B 8433  -0.056   6.678   7.760 -0.4972 -0.0888 -2.1409
   81CHL1   C11 8434   0.095   6.629   7.621  0.9042 -0.0309  0.3922
   81CHL1  H11A 8435   0.191   6.574   7.622  0.9772  0.0832 -0.1902
   81CHL1  H11B 8436   0.018   6.557   7.586 -1.1030  1.8912  0.6693
   81CHL1    C9 8437   0.108   6.754   7.532  0.4486  0.4358  0.0901
   81CHL1    H9 8438   0.002   6.778   7.509 -1.2010 -3.5088  2.5969
   81CHL1   C10 8439   0.172   6.745   7.390 -0.9434  0.6025 -0.1247
   81CHL1   C19 8440   0.324   6.717   7.410 -0.0412  0.2856 -0.0189
   81CHL1  H19A 8441   0.340   6.626   7.472  1.6408 -0.4970 -1.5083
   81CHL1  H19B 8442   0.386   6.710   7.318  0.9600  0.3736  0.6357
   81CHL1  H19C 8443   0.376   6.797   7.467  0.3352  0.7482 -0.9828
   81CHL1    C1 8444   0.121   6.629   7.302 -0.0757  0.1859  0.4672
   81CHL1   H1A 8445   0.157   6.534   7.346 -1.7708 -0.1933  1.0782
   81CHL1   H1B 8446   0.011   6.639   7.311  0.0033  1.7530 -0.0273
   81CHL1    C2 8447   0.169   6.626   7.154  0.7029  0.8502  0.0182
   81CHL1   H2A 8448   0.116   6.549   7.095 -1.6834  0.6415  2.2332
   81CHL1   H2B 8449   0.275   6.593   7.148 -0.5225 -3.5888 -0.5002
   81CHL1   C20 8450   0.062   6.764   8.098 -0.0238  0.2143 -0.0516
   81CHL1   H20 8451   0.171   6.762   8.118 -0.0278 -0.1005 -0.0604
   81CHL1   C21 8452   0.006   6.617   8.089 -0.8372 -0.2093 -0.3814
   81CHL1  H21A 8453   0.004   6.577   8.192 -0.3006  1.4360  0.3062
   81CHL1  H21B 8454   0.080   6.563   8.026 -0.3195  1.8842 -1.6903
   81CHL1  H21C 8455  -0.089   6.619   8.031 -0.1827 -3.4832 -1.7652
   81CHL1   C22 8456  -0.005   6.834   8.213 -0.2529  0.3807 -0.3379
   81CHL1  H22A 8457   0.035   6.938   8.220 -1.8671  1.0400 -0.5193
   81CHL1  H22B 8458  -0.115   6.844   8.203 -0.3419 -0.7158 -0.6209
   81CHL1   C23 8459   0.018   6.785   8.360  0.1996  0.1317 -0.4290
   81CHL1  H23A 8460  -0.018   6.681   8.372  1.3159 -0.1398  0.8562
   81CHL1  H23B 8461   0.127   6.788   8.381  0.3266 -1.6234 -0.6677
   81CHL1   C24 8462  -0.057   6.871   8.451 -0.0707  0.6780 -0.8051
   81CHL1  H24A 8463  -0.026   6.976   8.433  0.7101  0.8233  1.1519
   81CHL1  H24B 8464  -0.164   6.862   8.422 -0.4914  1.2571  0.4596
   81CHL1   C25 8465  -0.037   6.845   8.608 -0.3390  0.2090 -0.0515
   81CHL1   H25 8466  -0.090   6.935   8.646 -0.8885  0.3021 -1.0153
   81CHL1   C26 8467  -0.107   6.714   8.670  0.0793  0.0373 -0.6303
   81CHL1  H26A 8468  -0.051   6.627   8.628 -0.9062  0.0354 -1.9984
   81CHL1  H26B 8469  -0.122   6.707   8.780 -0.9913 -0.3940 -0.7929
   81CHL1  H26C 8470  -0.208   6.705   8.626  0.4853 -0.9528 -1.4101
   81CHL1   C27 8471   0.115   6.875   8.654  0.6995  0.0386  0.2279
   81CHL1  H27A 8472   0.148   6.974   8.616  1.2241 -0.5903 -1.0149
   81CHL1  H27B 8473   0.111   6.885   8.764 -0.0072  4.6199  0.0108
   81CHL1  H27C 8474   0.183   6.797   8.613  0.0259 -0.8239  0.7300
   82CHL1    C3 8475   1.928   1.215   7.060  0.0181  0.1622 -0.1090
   82CHL1    H3 8476   2.035   1.186   7.062 -0.3228 -1.3753 -1.5219
   82CHL1    O3 8477   1.875   1.231   6.932  0.1965  0.2587 -0.0922
   82CHL1   H3' 8478   1.881   1.141   6.898 -1.1766 -0.3241  1.0975
   82CHL1    C4 8479   1.843   1.106   7.132 -0.7905 -0.1058  0.3609
   82CHL1   H4A 8480   1.736   1.130   7.116 -0.5381  0.2949 -0.7479
   82CHL1   H4B 8481   1.865   1.009   7.084 -1.8238 -0.3123  0.2694
   82CHL1    C5 8482   1.866   1.107   7.287 -0.2037  0.3798 -0.0420
   82CHL1    C6 8483   1.890   0.993   7.353  0.0243  0.4203  0.5577
   82CHL1    H6 8484   1.908   0.896   7.306  1.3203 -0.6969  3.1313
   82CHL1    C7 8485   1.905   0.987   7.503  0.2541 -0.2585  0.6384
   82CHL1   H7A 8486   1.845   0.901   7.539  1.5806 -1.1573  0.7470
   82CHL1   H7B 8487   2.013   0.967   7.523  0.5373 -0.3288 -0.8663
   82CHL1    C8 8488   1.852   1.118   7.572 -0.6714  0.1599 -0.4246
   82CHL1    H8 8489   1.741   1.118   7.584 -0.6916 -0.3340 -0.6197
   82CHL1   C14 8490   1.913   1.127   7.721  0.7116 -0.4811 -0.0537
   82CHL1   H14 8491   2.022   1.131   7.702  0.7171  0.0643  0.0784
   82CHL1   C15 8492   1.895   1.005   7.807  0.1304 -0.0068  0.1625
   82CHL1  H15A 8493   1.792   0.965   7.813 -0.3812  1.4550  2.5641
   82CHL1  H15B 8494   1.960   0.918   7.783 -2.2583 -2.9058  3.2735
   82CHL1   C16 8495   1.929   1.055   7.953  0.0768  0.3429  0.1404
   82CHL1  H16A 8496   1.857   1.025   8.032  0.8082 -1.4422  0.1714
   82CHL1  H16B 8497   2.034   1.023   7.974 -0.0741  1.2096  2.5627
   82CHL1   C17 8498   1.939   1.211   7.936 -0.1057  0.3819  0.3659
   82CHL1   H17 8499   2.042   1.243   7.909  0.0080 -1.9763 -2.5506
   82CHL1   C13 8500   1.863   1.241   7.805  0.0178  0.5447 -0.0012
   82CHL1   C18 8501   1.710   1.225   7.837 -0.2520  0.0903  0.8254
   82CHL1  H18A 8502   1.657   1.206   7.741  1.2161 -2.9345  0.5143
   82CHL1  H18B 8503   1.681   1.133   7.893  0.5885  0.4590  1.9002
   82CHL1  H18C 8504   1.673   1.314   7.892 -0.1363  0.6012  0.0887
   82CHL1   C12 8505   1.905   1.371   7.734  0.2074 -0.4397  0.0731
   82CHL1  H12A 8506   1.873   1.463   7.789  2.3424  0.9285 -0.8344
   82CHL1  H12B 8507   2.015   1.370   7.728  0.1606 -2.6190 -1.2169
   82CHL1   C11 8508   1.847   1.377   7.586  0.1196 -0.0447  0.3692
   82CHL1  H11A 8509   1.737   1.389   7.584  0.1975  0.5956 -0.2235
   82CHL1  H11B 8510   1.886   1.465   7.531 -1.3797 -0.4824 -1.5046
   82CHL1    C9 8511   1.891   1.250   7.501  0.1530  0.3518  0.4587
   82CHL1    H9 8512   2.002   1.245   7.506  0.0709 -0.9860  1.2094
   82CHL1   C10 8513   1.851   1.243   7.353  0.3444  0.5231  0.4566
   82CHL1   C19 8514   1.699   1.284   7.343 -0.0462 -0.0388 -0.0041
   82CHL1  H19A 8515   1.683   1.390   7.374 -0.6311 -0.7135  2.1979
   82CHL1  H19B 8516   1.665   1.271   7.238 -0.7123 -0.3209  0.2407
   82CHL1  H19C 8517   1.637   1.221   7.410  0.9966 -1.0226  0.0557
   82CHL1    C1 8518   1.939   1.340   7.275 -0.4792 -0.0988 -0.0817
   82CHL1   H1A 8519   1.925   1.436   7.328  2.9109 -0.9591  2.7758
   82CHL1   H1B 8520   2.049   1.326   7.287 -0.8315 -1.8111  1.4690
   82CHL1    C2 8521   1.899   1.348   7.128 -0.2483 -0.9768 -0.2952
   82CHL1   H2A 8522   1.963   1.420   7.072 -1.5073  1.8694  1.6910
   82CHL1   H2B 8523   1.797   1.389   7.114  0.9957  2.0563 -1.3590
   82CHL1   C20 8524   1.903   1.282   8.066 -0.2876 -0.1291  0.5616
   82CHL1   H20 8525   1.801   1.255   8.102 -0.2690 -0.9589  0.0122
   82CHL1   C21 8526   1.916   1.432   8.053  0.1865 -1.2354 -0.1976
   82CHL1  H21A 8527   1.833   1.468   7.988 -0.2387  1.2601  1.5903
   82CHL1  H21B 8528   2.018   1.457   8.015 -0.0311 -2.6087 -1.8299
   82CHL1  H21C 8529   1.919   1.490   8.148  0.3687 -1.7524  0.1132
   82CHL1   C22 8530   1.989   1.228   8.182 -0.1057 -0.9747 -0.7644
   82CHL1  H22A 8531   1.985   1.117   8.192 -1.6250 -0.9017 -0.3271
   82CHL1  H22B 8532   2.095   1.248   8.152 -0.1081 -2.1254 -1.6082
   82CHL1   C23 8533   1.952   1.293   8.323  0.1949 -0.0252 -0.2879
   82CHL1  H23A 8534   1.977   1.401   8.320  2.8015 -0.5617 -2.6998
   82CHL1  H23B 8535   1.844   1.268   8.318  0.7723 -2.7030 -2.8420
   82CHL1   C24 8536   2.005   1.224   8.444  0.0980  0.5871  0.0808
   82CHL1  H24A 8537   2.031   1.118   8.422  1.0852  0.6727  0.7395
   82CHL1  H24B 8538   2.102   1.268   8.479  0.0630  0.7568 -0.0375
   82CHL1   C25 8539   1.921   1.225   8.578  0.6997  0.0171  0.6863
   82CHL1   H25 8540   1.816   1.202   8.550  0.9919  0.3256 -0.7396
   82CHL1   C26 8541   1.978   1.118   8.678  0.5515  0.2709  0.4515
   82CHL1  H26A 8542   1.985   1.016   8.634 -1.4842 -0.8912  2.6160
   82CHL1  H26B 8543   2.083   1.143   8.701  0.6795  0.0335  0.1360
   82CHL1  H26C 8544   1.923   1.103   8.773  1.4172 -0.7491  0.8091
   82CHL1   C27 8545   1.928   1.369   8.641 -0.2347 -0.1227 -0.7361
   82CHL1  H27A 8546   1.896   1.440   8.562  1.0057  0.6370 -0.5725
   82CHL1  H27B 8547   1.853   1.373   8.724  1.7308 -2.7320  1.3402
   82CHL1  H27C 8548   2.027   1.403   8.677 -0.0817  0.4615 -1.6828
   83CHL1    C3 8549   4.588   4.934   7.159 -0.5993  0.1281 -0.4782
   83CHL1    H3 8550   4.507   4.860   7.176  0.2655 -0.5036  1.1368
   83CHL1    O3 8551   4.586   4.998   7.033 -0.0018 -0.3414  0.4175
   83CHL1   H3' 8552   4.546   4.932   6.976 -0.1217  0.0706  0.0196
   83CHL1    C4 8553   4.570   5.045   7.261 -0.9441  0.5656 -0.0712
   83CHL1   H4A 8554   4.630   5.134   7.232 -1.2241  0.7289 -0.1543
   83CHL1   H4B 8555   4.462   5.070   7.259 -1.2436 -0.3017  2.4331
   83CHL1    C5 8556   4.608   5.010   7.402 -0.5449 -0.5128 -0.4612
   83CHL1    C6 8557   4.518   5.034   7.504 -0.3277 -0.3476  0.8639
   83CHL1    H6 8558   4.424   5.086   7.481  0.9536  1.7241 -0.0163
   83CHL1    C7 8559   4.539   4.990   7.647 -0.2594  0.3495 -0.8379
   83CHL1   H7A 8560   4.528   5.075   7.718  1.7621  1.2699 -1.5577
   83CHL1   H7B 8561   4.455   4.925   7.681 -0.4178 -0.6456 -2.9444
   83CHL1    C8 8562   4.675   4.926   7.678 -0.2970 -0.6067 -0.3019
   83CHL1    H8 8563   4.747   5.007   7.703 -0.5412 -0.8302  1.2276
   83CHL1   C14 8564   4.661   4.847   7.809 -0.0322 -0.1008  0.0073
   83CHL1   H14 8565   4.599   4.758   7.787 -2.3123  0.8015  2.2178
   83CHL1   C15 8566   4.599   4.907   7.933  0.5973  0.1463 -0.3878
   83CHL1  H15A 8567   4.623   5.016   7.931 -1.0178  0.5586  0.7570
   83CHL1  H15B 8568   4.489   4.906   7.925  0.5718 -1.5537 -0.1561
   83CHL1   C16 8569   4.648   4.830   8.060 -0.0079 -0.1642 -0.0989
   83CHL1  H16A 8570   4.701   4.892   8.135 -0.5653  1.1180 -0.7395
   83CHL1  H16B 8571   4.554   4.785   8.098  1.1724 -3.5033 -0.7511
   83CHL1   C17 8572   4.742   4.722   7.996  0.1095 -0.2024 -0.5044
   83CHL1   H17 8573   4.669   4.646   7.961 -0.9921  0.6343 -0.0679
   83CHL1   C13 8574   4.797   4.789   7.866  0.2750  0.6848 -0.4086
   83CHL1   C18 8575   4.909   4.896   7.918  0.3364  1.1176  0.8609
   83CHL1  H18A 8576   4.880   4.950   8.011  0.2585  2.3639  0.1366
   83CHL1  H18B 8577   5.009   4.857   7.947  1.0237 -0.3485 -2.9688
   83CHL1  H18C 8578   4.928   4.959   7.828  1.0362 -1.2054 -0.7002
   83CHL1   C12 8579   4.855   4.695   7.752 -0.1343 -0.4332 -0.0735
   83CHL1  H12A 8580   4.958   4.664   7.781  0.5061  1.0542 -0.6619
   83CHL1  H12B 8581   4.788   4.606   7.748  1.0537 -1.6664  3.3437
   83CHL1   C11 8582   4.866   4.768   7.615  0.4902 -0.1570  0.0963
   83CHL1  H11A 8583   4.947   4.844   7.612 -2.0056  2.5947 -1.5755
   83CHL1  H11B 8584   4.894   4.693   7.537  1.0364  0.5049 -0.3588
   83CHL1    C9 8585   4.732   4.834   7.568 -0.5438  0.5852 -0.4049
   83CHL1    H9 8586   4.650   4.759   7.561 -0.3084 -0.1210  2.6965
   83CHL1   C10 8587   4.730   4.910   7.429 -0.2700  0.1516  0.2309
   83CHL1   C19 8588   4.859   4.999   7.413  0.4838 -0.3407  0.5833
   83CHL1  H19A 8589   4.951   4.937   7.419  0.9175 -0.0747 -2.0887
   83CHL1  H19B 8590   4.866   5.056   7.318 -2.9569 -0.9876 -0.1910
   83CHL1  H19C 8591   4.859   5.072   7.496 -0.6425  0.8984 -0.4486
   83CHL1    C1 8592   4.734   4.794   7.313 -0.3189  0.0849  0.5238
   83CHL1   H1A 8593   4.832   4.743   7.326  0.4504 -0.0363 -4.1052
   83CHL1   H1B 8594   4.652   4.721   7.332 -0.9883  0.7212  0.1417
   83CHL1    C2 8595   4.719   4.860   7.174 -0.3415 -0.1856  0.1174
   83CHL1   H2A 8596   4.724   4.776   7.102 -0.0091  0.5169 -0.6952
   83CHL1   H2B 8597   4.806   4.927   7.159 -1.3137  1.2775  0.7427
   83CHL1   C20 8598   4.832   4.656   8.104  0.5280  0.3680  0.1868
   83CHL1   H20 8599   4.893   4.738   8.147  2.4977 -0.8189 -0.1886
   83CHL1   C21 8600   4.938   4.559   8.045 -0.5934 -0.1102 -0.8806
   83CHL1  H21A 8601   4.989   4.510   8.130  1.3122 -0.6196 -2.2484
   83CHL1  H21B 8602   5.010   4.607   7.975  2.1860  0.1177  1.9436
   83CHL1  H21C 8603   4.886   4.476   7.992  0.7021 -2.0160  0.7126
   83CHL1   C22 8604   4.743   4.582   8.208 -0.2698 -0.0005  0.5517
   83CHL1  H22A 8605   4.638   4.615   8.192  0.4039  2.3211  0.5494
   83CHL1  H22B 8606   4.742   4.475   8.178 -1.6430 -0.0470  0.6698
   83CHL1   C23 8607   4.783   4.596   8.351 -0.5706 -0.2054 -0.0159
   83CHL1  H23A 8608   4.888   4.559   8.359 -1.0674 -2.8030 -3.2886
   83CHL1  H23B 8609   4.798   4.704   8.374  1.2867 -0.9137  2.6329
   83CHL1   C24 8610   4.682   4.533   8.447  0.0367  0.8019  0.2807
   83CHL1  H24A 8611   4.579   4.551   8.408  0.6325  1.6078 -0.9739
   83CHL1  H24B 8612   4.687   4.422   8.455  0.4210  0.8158  0.2398
   83CHL1   C25 8613   4.683   4.582   8.593  0.2118 -0.3491  0.6235
   83CHL1   H25 8614   4.785   4.588   8.636 -0.6374  2.2488  2.5330
   83CHL1   C26 8615   4.628   4.727   8.610  0.7977 -0.7457 -0.0852
   83CHL1  H26A 8616   4.558   4.755   8.528 -0.3326 -2.7076  0.1428
   83CHL1  H26B 8617   4.581   4.736   8.710  1.8786 -1.4611  0.5017
   83CHL1  H26C 8618   4.712   4.799   8.614  1.8077 -1.9276  0.4447
   83CHL1   C27 8619   4.606   4.484   8.687 -0.7855  0.3196 -0.4520
   83CHL1  H27A 8620   4.614   4.516   8.793  0.8343  1.9964 -1.0245
   83CHL1  H27B 8621   4.500   4.488   8.656 -0.3024  0.6621 -2.1750
   83CHL1  H27C 8622   4.657   4.385   8.682  0.5949  0.9706  0.0887
   84CHL1    C3 8623   6.244   5.373   6.834 -0.3992 -0.0352 -0.2103
   84CHL1    H3 8624   6.344   5.403   6.872 -1.5055  1.9731  1.2983
   84CHL1    O3 8625   6.245   5.349   6.693  0.1704  0.2884 -0.0914
   84CHL1   H3' 8626   6.157   5.314   6.679 -0.3389  1.6633 -0.4968
   84CHL1    C4 8627   6.209   5.236   6.899  0.2560  0.3246 -0.1841
   84CHL1   H4A 8628   6.114   5.221   6.843 -0.7278  3.0124  0.5788
   84CHL1   H4B 8629   6.284   5.163   6.864  0.2127  0.0885  0.2066
   84CHL1    C5 8630   6.198   5.248   7.054  0.2006 -0.0258  1.0465
   84CHL1    C6 8631   6.264   5.165   7.124  0.0893  0.3336 -0.0212
   84CHL1    H6 8632   6.318   5.077   7.086  2.4804  1.3210  0.8891
   84CHL1    C7 8633   6.275   5.164   7.274 -0.1733 -0.6780 -0.3413
   84CHL1   H7A 8634   6.253   5.062   7.312 -2.3573  0.0271  0.4592
   84CHL1   H7B 8635   6.371   5.203   7.313 -1.1317  1.2681  0.2295
   84CHL1    C8 8636   6.164   5.263   7.333  0.3135 -0.2027  0.2424
   84CHL1    H8 8637   6.068   5.208   7.331  0.6133 -0.7732  0.8083
   84CHL1   C14 8638   6.202   5.285   7.477  0.7916  0.3440 -0.1274
   84CHL1   H14 8639   6.299   5.338   7.483  2.8164 -3.0042 -0.7761
   84CHL1   C15 8640   6.224   5.161   7.572  0.0206 -0.2328  0.0045
   84CHL1  H15A 8641   6.142   5.086   7.571 -0.6749  0.4819  1.3944
   84CHL1  H15B 8642   6.318   5.104   7.555 -0.8618 -1.7587  0.0008
   84CHL1   C16 8643   6.214   5.222   7.710 -0.2792  0.0804 -0.8440
   84CHL1  H16A 8644   6.136   5.166   7.766  0.1978  0.1905 -0.0666
   84CHL1  H16B 8645   6.310   5.207   7.763 -1.5501 -0.7113  1.3458
   84CHL1   C17 8646   6.177   5.370   7.694 -0.1225 -0.2067 -0.1699
   84CHL1   H17 8647   6.275   5.423   7.696  1.4276 -2.9331  0.1940
   84CHL1   C13 8648   6.106   5.379   7.561  0.6723 -1.0080  0.6188
   84CHL1   C18 8649   5.963   5.322   7.574  0.3053  0.2630  0.7087
   84CHL1  H18A 8650   5.925   5.306   7.471  1.5567  2.7809 -0.2280
   84CHL1  H18B 8651   5.971   5.229   7.635  1.1750  0.1055  0.3764
   84CHL1  H18C 8652   5.892   5.389   7.627 -0.1214  0.5292 -0.1891
   84CHL1   C12 8653   6.102   5.515   7.482  0.1284  0.5605 -0.6137
   84CHL1  H12A 8654   6.024   5.582   7.524 -1.3309 -1.3907 -0.0816
   84CHL1  H12B 8655   6.204   5.558   7.490  0.8743 -1.1136 -0.7678
   84CHL1   C11 8656   6.062   5.494   7.337 -0.3769 -0.2281  0.8623
   84CHL1  H11A 8657   5.957   5.459   7.334 -0.7127  0.7421  0.9843
   84CHL1  H11B 8658   6.051   5.590   7.282  0.9079 -1.3220 -1.4430
   84CHL1    C9 8659   6.151   5.393   7.257  0.2103 -0.4952 -0.0590
   84CHL1    H9 8660   6.254   5.435   7.261  0.8804 -2.0558 -0.2166
   84CHL1   C10 8661   6.123   5.371   7.108 -0.4936  0.7091  0.3706
   84CHL1   C19 8662   5.980   5.327   7.097 -0.5293  0.5682  0.2344
   84CHL1  H19A 8663   5.922   5.413   7.138  1.5572  3.1284 -1.8196
   84CHL1  H19B 8664   5.952   5.329   6.990  1.1404  1.6727 -0.2163
   84CHL1  H19C 8665   5.949   5.234   7.150  0.4557 -0.7327 -1.3846
   84CHL1    C1 8666   6.153   5.496   7.031  0.0999  0.3198 -0.0958
   84CHL1   H1A 8667   6.074   5.569   7.059  3.2749  3.9692  0.1775
   84CHL1   H1B 8668   6.255   5.534   7.053 -0.7486  2.3510  0.5885
   84CHL1    C2 8669   6.140   5.488   6.877 -0.9609  0.6692  0.9279
   84CHL1   H2A 8670   6.165   5.589   6.837 -0.1464  0.3986  0.7457
   84CHL1   H2B 8671   6.047   5.447   6.832  0.3087 -0.6100 -0.7013
   84CHL1   C20 8672   6.103   5.427   7.815  0.1496 -0.3074 -0.0013
   84CHL1   H20 8673   6.000   5.385   7.821 -0.5269  1.5219  2.1981
   84CHL1   C21 8674   6.086   5.584   7.800  0.0573 -0.3504  0.0530
   84CHL1  H21A 8675   6.012   5.593   7.717  0.8884 -2.4813 -0.9724
   84CHL1  H21B 8676   6.179   5.641   7.780  0.4326 -0.5622  1.1732
   84CHL1  H21C 8677   6.042   5.629   7.892  1.7957  2.7192 -0.4672
   84CHL1   C22 8678   6.189   5.394   7.943 -0.2405 -0.1788  0.2830
   84CHL1  H22A 8679   6.220   5.288   7.938 -3.1229 -1.1424  0.6638
   84CHL1  H22B 8680   6.281   5.455   7.938  1.3733 -2.1799  2.8974
   84CHL1   C23 8681   6.119   5.428   8.074 -0.6854  0.1879 -0.3991
   84CHL1  H23A 8682   6.064   5.523   8.084 -1.8359 -0.6307  1.5588
   84CHL1  H23B 8683   6.047   5.345   8.084 -0.9717  0.4716 -0.1141
   84CHL1   C24 8684   6.220   5.429   8.192  0.6721 -0.0957 -0.2813
   84CHL1  H24A 8685   6.270   5.330   8.179 -0.5234 -0.9567  1.2813
   84CHL1  H24B 8686   6.292   5.510   8.166  0.0390  0.3259 -0.7513
   84CHL1   C25 8687   6.164   5.432   8.335  0.1117 -0.3638  0.0764
   84CHL1   H25 8688   6.098   5.343   8.343 -0.8483  0.3045 -0.1692
   84CHL1   C26 8689   6.284   5.420   8.433  0.4579  0.0142  0.5761
   84CHL1  H26A 8690   6.311   5.317   8.464 -0.2254 -0.6224 -0.8603
   84CHL1  H26B 8691   6.378   5.465   8.396  0.7051 -2.1362 -1.6116
   84CHL1  H26C 8692   6.244   5.462   8.528  0.1730 -1.4406  1.1362
   84CHL1   C27 8693   6.080   5.554   8.369 -0.5792  0.6273  0.4216
   84CHL1  H27A 8694   5.998   5.562   8.295 -0.0140 -1.0223 -0.4450
   84CHL1  H27B 8695   6.044   5.535   8.472 -1.8826  2.4196  0.3459
   84CHL1  H27C 8696   6.133   5.651   8.356  0.6229  0.2613  2.2365
   85CHL1    C3 8697   6.611   1.866   6.815  0.1457  0.1482 -0.6738
   85CHL1    H3 8698   6.642   1.759   6.819  0.2102  0.1346 -1.3795
   85CHL1    O3 8699   6.561   1.870   6.679 -0.1617 -0.2390  0.1492
   85CHL1   H3' 8700   6.557   1.962   6.654  0.1239 -0.4976 -0.8978
   85CHL1    C4 8701   6.498   1.896   6.917  0.1224  0.0071 -0.2377
   85CHL1   H4A 8702   6.455   1.994   6.885  0.7378  0.4896  0.3724
   85CHL1   H4B 8703   6.421   1.820   6.893 -0.9019  1.1371 -0.6940
   85CHL1    C5 8704   6.540   1.902   7.061  0.2019 -0.3188  0.3327
   85CHL1    C6 8705   6.477   1.831   7.155 -0.8185 -0.2975  0.0540
   85CHL1    H6 8706   6.389   1.768   7.132  0.4454 -2.1026 -0.0404
   85CHL1    C7 8707   6.520   1.846   7.300 -0.3182 -0.1427  0.8103
   85CHL1   H7A 8708   6.421   1.839   7.349 -1.4202 -1.4752 -1.4170
   85CHL1   H7B 8709   6.586   1.762   7.330  0.8698  0.5807  0.2643
   85CHL1    C8 8710   6.603   1.981   7.316  0.1727 -0.2807 -0.5121
   85CHL1    H8 8711   6.537   2.068   7.301  1.6895  0.9772 -0.1988
   85CHL1   C14 8712   6.652   1.982   7.457  0.0927  0.2883 -0.3486
   85CHL1   H14 8713   6.709   1.887   7.470 -1.0744 -0.4234 -0.3238
   85CHL1   C15 8714   6.538   1.984   7.564  0.4175 -0.1648 -0.1743
   85CHL1  H15A 8715   6.454   2.055   7.548 -0.9784 -2.2461 -3.0128
   85CHL1  H15B 8716   6.503   1.879   7.575 -1.3172  0.6317  3.0568
   85CHL1   C16 8717   6.624   2.020   7.684  0.6851  0.4763  0.1107
   85CHL1  H16A 8718   6.567   2.098   7.739  0.7576  1.1974 -0.8168
   85CHL1  H16B 8719   6.632   1.938   7.759  0.8228  0.8979  0.5607
   85CHL1   C17 8720   6.765   2.061   7.641 -0.4635 -0.8928 -1.3656
   85CHL1   H17 8721   6.833   1.973   7.641  0.1665 -0.5397  1.8902
   85CHL1   C13 8722   6.744   2.103   7.492  0.0226  0.0225 -0.0148
   85CHL1   C18 8723   6.672   2.243   7.472  0.1614  0.0086  0.4918
   85CHL1  H18A 8724   6.571   2.240   7.518  0.2237  1.8337  0.8153
   85CHL1  H18B 8725   6.730   2.325   7.518  0.7661 -0.5850  0.8065
   85CHL1  H18C 8726   6.664   2.255   7.362 -0.5318  1.1246  0.6403
   85CHL1   C12 8727   6.867   2.079   7.403 -0.8374  0.2299 -0.3852
   85CHL1  H12A 8728   6.945   2.158   7.405  0.7527 -1.2745 -0.4808
   85CHL1  H12B 8729   6.905   1.978   7.426  0.1543  0.2183 -1.9372
   85CHL1   C11 8730   6.834   2.077   7.251  0.0869  0.3712  0.5786
   85CHL1  H11A 8731   6.800   2.180   7.226  0.4486  0.1341 -0.9664
   85CHL1  H11B 8732   6.925   2.068   7.188  0.3768  1.9414  0.7310
   85CHL1    C9 8733   6.722   1.981   7.216  0.1186 -0.1383 -0.4800
   85CHL1    H9 8734   6.767   1.881   7.229  2.1647  0.8834  0.6803
   85CHL1   C10 8735   6.664   1.994   7.073  0.0985 -0.7308  0.1246
   85CHL1   C19 8736   6.635   2.142   7.038 -0.2755  0.9612 -0.9308
   85CHL1  H19A 8737   6.580   2.151   6.942 -0.0225  1.9259 -0.9951
   85CHL1  H19B 8738   6.580   2.195   7.119 -2.1788 -1.0919 -0.7756
   85CHL1  H19C 8739   6.733   2.191   7.016 -0.8642  1.9126 -1.5064
   85CHL1    C1 8740   6.774   1.954   6.970 -0.6134  0.4315  0.5553
   85CHL1   H1A 8741   6.856   2.028   6.959 -0.6215  0.7206  2.2619
   85CHL1   H1B 8742   6.807   1.854   7.004 -1.8493 -0.0271  0.4531
   85CHL1    C2 8743   6.729   1.951   6.828 -0.6101 -0.2696 -0.4554
   85CHL1   H2A 8744   6.813   1.902   6.775 -0.1669 -1.1397  1.0006
   85CHL1   H2B 8745   6.707   2.052   6.786  0.1386  0.1937  0.2421
   85CHL1   C20 8746   6.828   2.164   7.740  0.6265  0.7364 -0.2145
   85CHL1   H20 8747   6.754   2.245   7.757 -0.2092  0.2260 -1.3036
   85CHL1   C21 8748   6.966   2.211   7.681  0.4261 -0.0076 -1.0254
   85CHL1  H21A 8749   6.943   2.267   7.588 -0.4862  1.5836  0.1098
   85CHL1  H21B 8750   7.026   2.119   7.665 -0.3114 -0.5184 -0.9136
   85CHL1  H21C 8751   7.014   2.279   7.753 -0.1667 -0.2772 -0.3678
   85CHL1   C22 8752   6.858   2.100   7.886 -0.4858  0.0438  0.5945
   85CHL1  H22A 8753   6.762   2.052   7.916 -2.1199  0.9025 -2.7418
   85CHL1  H22B 8754   6.935   2.020   7.875 -0.9723 -0.6052  1.7037
   85CHL1   C23 8755   6.889   2.200   7.997  0.2954  0.4163 -0.6109
   85CHL1  H23A 8756   6.915   2.134   8.082 -2.1807  0.3163  0.1629
   85CHL1  H23B 8757   6.977   2.258   7.962  0.6895 -0.3005 -0.8260
   85CHL1   C24 8758   6.782   2.309   8.033  0.0655  0.3472  0.1188
   85CHL1  H24A 8759   6.773   2.366   7.938  0.9241 -3.6567 -2.6564
   85CHL1  H24B 8760   6.688   2.255   8.057  0.8932 -0.9822  0.4846
   85CHL1   C25 8761   6.811   2.394   8.164 -0.2448  0.0139  0.3177
   85CHL1   H25 8762   6.903   2.454   8.145 -0.6433  0.8322  0.9595
   85CHL1   C26 8763   6.698   2.488   8.199  0.5752 -0.0301 -0.3807
   85CHL1  H26A 8764   6.709   2.550   8.291 -1.8175  2.0844 -1.4402
   85CHL1  H26B 8765   6.685   2.561   8.117  1.2833 -0.0774 -0.5408
   85CHL1  H26C 8766   6.597   2.442   8.207 -0.0622  1.1969 -1.1611
   85CHL1   C27 8767   6.853   2.308   8.284 -0.5711 -0.2696  0.6935
   85CHL1  H27A 8768   6.779   2.225   8.283 -1.4892  0.5206 -0.9329
   85CHL1  H27B 8769   6.952   2.259   8.271 -0.7500 -0.9844  1.8799
   85CHL1  H27C 8770   6.865   2.357   8.383 -2.8817  0.4578  0.6640
   86CHL1    C3 8771   1.562   2.514   6.996 -0.2333 -0.1298  0.2047
   86CHL1    H3 8772   1.503   2.583   7.061  0.4015 -1.1731  1.9640
   86CHL1    O3 8773   1.584   2.561   6.862  0.3456  0.0829  0.6424
   86CHL1   H3' 8774   1.636   2.492   6.820  1.2343  0.2886  1.3730
   86CHL1    C4 8775   1.698   2.501   7.067 -0.2258 -0.5826 -0.5044
   86CHL1   H4A 8776   1.760   2.423   7.017  0.9112 -1.4702  2.1157
   86CHL1   H4B 8777   1.740   2.604   7.069 -0.4770 -0.4884 -0.0956
   86CHL1    C5 8778   1.674   2.457   7.206 -0.4434 -0.1274 -1.0392
   86CHL1    C6 8779   1.715   2.541   7.306 -0.0710  0.0710 -0.5756
   86CHL1    H6 8780   1.762   2.639   7.291  1.5667 -0.8214 -1.5343
   86CHL1    C7 8781   1.705   2.504   7.448  0.1657  0.1004  0.0137
   86CHL1   H7A 8782   1.798   2.521   7.506 -0.0107  2.4953 -0.2830
   86CHL1   H7B 8783   1.633   2.572   7.500 -0.0724  0.6490 -1.0052
   86CHL1    C8 8784   1.657   2.354   7.477  0.0104  0.5582  0.1053
   86CHL1    H8 8785   1.747   2.290   7.466 -0.9006 -0.4142 -2.4436
   86CHL1   C14 8786   1.602   2.344   7.617 -0.3948  0.3796  0.0201
   86CHL1   H14 8787   1.504   2.396   7.616  0.9427  3.0468 -0.5788
   86CHL1   C15 8788   1.680   2.417   7.727  0.3113  0.0748 -0.7977
   86CHL1  H15A 8789   1.787   2.399   7.707  0.4401 -1.6009  1.1571
   86CHL1  H15B 8790   1.663   2.527   7.723  0.9900  0.2231  0.1973
   86CHL1   C16 8791   1.646   2.347   7.858 -0.1963 -0.6574 -0.1909
   86CHL1  H16A 8792   1.741   2.310   7.901 -1.2231 -1.2613  1.6702
   86CHL1  H16B 8793   1.591   2.421   7.920 -0.2953 -1.0241  0.1610
   86CHL1   C17 8794   1.539   2.238   7.814 -0.1685 -0.1790 -0.2111
   86CHL1   H17 8795   1.439   2.285   7.801  0.0651  0.1385 -0.9073
   86CHL1   C13 8796   1.570   2.197   7.668 -0.1482 -0.1504  0.2188
   86CHL1   C18 8797   1.692   2.093   7.675 -0.6798  0.5049  0.4094
   86CHL1  H18A 8798   1.666   1.989   7.705 -0.3002  0.3356  0.1639
   86CHL1  H18B 8799   1.757   2.084   7.586  0.1896 -0.3210  1.0997
   86CHL1  H18C 8800   1.762   2.126   7.756  2.9612 -1.0356 -1.8483
   86CHL1   C12 8801   1.472   2.142   7.563  0.1161  0.0569  0.2737
   86CHL1  H12A 8802   1.424   2.045   7.590 -1.8792  0.9012 -0.0390
   86CHL1  H12B 8803   1.393   2.219   7.573  0.2753  0.1791  0.5811
   86CHL1   C11 8804   1.534   2.145   7.420 -0.6070  0.2406 -0.3002
   86CHL1  H11A 8805   1.627   2.084   7.413 -2.1699 -2.1318 -3.3174
   86CHL1  H11B 8806   1.467   2.104   7.341 -0.8559  0.2291 -0.0849
   86CHL1    C9 8807   1.570   2.298   7.371  0.1244  0.4277 -0.4108
   86CHL1    H9 8808   1.470   2.339   7.396 -0.0853 -0.8911  1.0529
   86CHL1   C10 8809   1.600   2.324   7.221  0.5807 -0.4177 -0.5256
   86CHL1   C19 8810   1.676   2.204   7.167  0.0325  0.8695 -0.2944
   86CHL1  H19A 8811   1.775   2.191   7.216 -0.1085  0.8761 -0.0042
   86CHL1  H19B 8812   1.617   2.110   7.171 -0.3341  1.0088 -1.7999
   86CHL1  H19C 8813   1.693   2.230   7.061 -0.1271  2.9460  0.1392
   86CHL1    C1 8814   1.463   2.347   7.144 -0.1459 -0.0963 -0.7053
   86CHL1   H1A 8815   1.411   2.249   7.146 -1.8675  0.7833  0.4969
   86CHL1   H1B 8816   1.390   2.412   7.197  0.6853  0.7371 -0.5573
   86CHL1    C2 8817   1.474   2.390   6.999  0.0053 -0.0025  0.4581
   86CHL1   H2A 8818   1.370   2.411   6.966 -0.5417  1.6208  2.9708
   86CHL1   H2B 8819   1.513   2.308   6.934  1.0039  1.1485 -0.4520
   86CHL1   C20 8820   1.511   2.129   7.916  1.0927 -0.0738  0.1256
   86CHL1   H20 8821   1.603   2.067   7.918  1.4730  0.4823  0.0867
   86CHL1   C21 8822   1.387   2.043   7.887  0.2619  0.1379 -0.6767
   86CHL1  H21A 8823   1.297   2.104   7.913  0.7522  1.0831 -1.1412
   86CHL1  H21B 8824   1.401   1.951   7.947  1.4926 -0.5089 -1.9205
   86CHL1  H21C 8825   1.384   2.003   7.784  0.4781 -0.4110 -0.4712
   86CHL1   C22 8826   1.481   2.206   8.057 -0.5403  0.1826 -0.1522
   86CHL1  H22A 8827   1.566   2.275   8.079 -0.5069 -0.5160  2.1125
   86CHL1  H22B 8828   1.388   2.266   8.046 -0.2636  0.5275 -0.6836
   86CHL1   C23 8829   1.463   2.106   8.179  0.1526 -0.3021 -0.4511
   86CHL1  H23A 8830   1.371   2.047   8.158  2.3264 -3.4525 -2.0853
   86CHL1  H23B 8831   1.557   2.048   8.191  0.6109  0.2203 -1.4074
   86CHL1   C24 8832   1.439   2.184   8.312  0.0475  0.3405 -0.8542
   86CHL1  H24A 8833   1.536   2.226   8.345  0.3406 -1.4233  0.6578
   86CHL1  H24B 8834   1.378   2.268   8.273 -0.6521  0.8028  1.1258
   86CHL1   C25 8835   1.360   2.107   8.426 -0.0902  0.1506  0.8374
   86CHL1   H25 8836   1.279   2.057   8.370 -0.0818  0.2585  0.7268
   86CHL1   C26 8837   1.452   2.011   8.490  0.2318 -0.0217  0.4913
   86CHL1  H26A 8838   1.539   2.051   8.546  2.2960 -2.8062 -0.5177
   86CHL1  H26B 8839   1.395   1.947   8.561 -0.1061  0.3648  0.5726
   86CHL1  H26C 8840   1.504   1.942   8.420 -1.2032  0.0386 -0.7029
   86CHL1   C27 8841   1.299   2.201   8.525 -1.3087  0.8151 -0.9232
   86CHL1  H27A 8842   1.234   2.281   8.484 -1.9472  0.5558 -0.4320
   86CHL1  H27B 8843   1.231   2.144   8.592  0.1315 -1.9706 -1.6477
   86CHL1  H27C 8844   1.378   2.258   8.579 -0.8168 -1.4431  0.8806
   87CHL1    C3 8845   0.353   5.565   6.981  0.9064 -0.3667  0.4684
   87CHL1    H3 8846   0.407   5.469   6.991  1.4125 -0.7626 -4.0165
   87CHL1    O3 8847   0.315   5.581   6.848  0.2761 -0.4318  0.2422
   87CHL1   H3' 8848   0.257   5.657   6.853 -0.8384 -1.3288  3.0423
   87CHL1    C4 8849   0.230   5.576   7.076  1.1200  0.7048 -0.2478
   87CHL1   H4A 8850   0.178   5.674   7.071  0.7950  0.4581 -2.1246
   87CHL1   H4B 8851   0.147   5.507   7.053  1.1637  0.8269 -0.7847
   87CHL1    C5 8852   0.271   5.558   7.222 -0.1460  0.2286 -0.1793
   87CHL1    C6 8853   0.224   5.456   7.293 -0.2096  0.6272 -0.8423
   87CHL1    H6 8854   0.163   5.377   7.246  2.7691 -0.4933 -3.1539
   87CHL1    C7 8855   0.260   5.433   7.437 -0.4729  0.1208  0.1590
   87CHL1   H7A 8856   0.162   5.434   7.489 -1.3299  0.1129 -1.4088
   87CHL1   H7B 8857   0.301   5.332   7.461 -2.5481 -1.5508 -2.7684
   87CHL1    C8 8858   0.334   5.552   7.505 -0.2464  0.3715  0.5097
   87CHL1    H8 8859   0.252   5.620   7.535  0.8389  1.6536  0.6546
   87CHL1   C14 8860   0.403   5.502   7.637  0.2202  0.3633  0.3848
   87CHL1   H14 8861   0.470   5.418   7.607  0.3533  0.8286 -0.6435
   87CHL1   C15 8862   0.312   5.441   7.751 -0.0760 -0.0856 -0.5627
   87CHL1  H15A 8863   0.222   5.498   7.780  0.4163 -0.3570  1.6957
   87CHL1  H15B 8864   0.263   5.344   7.726  0.1698 -0.9157  1.9490
   87CHL1   C16 8865   0.404   5.434   7.875  0.5703 -0.3247 -0.0890
   87CHL1  H16A 8866   0.349   5.488   7.956  2.0715  2.8151 -1.0073
   87CHL1  H16B 8867   0.427   5.333   7.914  1.8165 -0.4607 -1.1241
   87CHL1   C17 8868   0.539   5.510   7.835  0.4397  0.3373  0.3616
   87CHL1   H17 8869   0.616   5.440   7.795  0.0381 -0.2275  0.5687
   87CHL1   C13 8870   0.492   5.601   7.714 -0.7450 -0.4555  0.2585
   87CHL1   C18 8871   0.412   5.726   7.755  0.4493  0.1053 -0.8579
   87CHL1  H18A 8872   0.332   5.755   7.684  0.0827  0.1791 -0.4232
   87CHL1  H18B 8873   0.371   5.703   7.856  3.1760  1.4777  0.6479
   87CHL1  H18C 8874   0.483   5.807   7.780  0.0038 -0.4134  2.6190
   87CHL1   C12 8875   0.594   5.645   7.608  0.0027 -0.0085 -0.1184
   87CHL1  H12A 8876   0.650   5.733   7.646 -0.4937  0.7693 -1.1294
   87CHL1  H12B 8877   0.661   5.562   7.576 -2.5101 -1.6608 -1.3929
   87CHL1   C11 8878   0.532   5.708   7.480 -0.2648 -0.6768  0.2035
   87CHL1  H11A 8879   0.465   5.794   7.503  1.7307  1.0940 -0.2681
   87CHL1  H11B 8880   0.605   5.758   7.413 -1.6760  2.3984  0.7418
   87CHL1    C9 8881   0.437   5.608   7.411 -0.1521 -0.2702 -0.3315
   87CHL1    H9 8882   0.498   5.517   7.389  1.5568 -0.1242  3.1227
   87CHL1   C10 8883   0.385   5.657   7.275 -0.3225 -0.5513 -0.2015
   87CHL1   C19 8884   0.326   5.806   7.293 -0.5830  0.2684  0.0454
   87CHL1  H19A 8885   0.263   5.804   7.384  0.5368  0.4395  0.8536
   87CHL1  H19B 8886   0.416   5.871   7.302 -1.2059  0.8748  2.4992
   87CHL1  H19C 8887   0.272   5.842   7.203 -2.2193  2.1393  1.7078
   87CHL1    C1 8888   0.499   5.665   7.163  0.7639 -0.5868 -0.1045
   87CHL1   H1A 8889   0.565   5.748   7.198 -3.9936  3.1205  1.3297
   87CHL1   H1B 8890   0.558   5.572   7.174  0.0623 -1.2135 -1.4585
   87CHL1    C2 8891   0.451   5.683   7.020 -0.3802  0.5925 -0.0612
   87CHL1   H2A 8892   0.533   5.685   6.945 -0.7328  0.2467 -0.4653
   87CHL1   H2B 8893   0.401   5.781   7.001  1.4625  1.9140  1.4980
   87CHL1   C20 8894   0.601   5.573   7.955 -0.0220  0.2382 -1.1202
   87CHL1   H20 8895   0.535   5.653   7.995  0.7916 -0.2959  1.4761
   87CHL1   C21 8896   0.742   5.635   7.918  0.0538 -0.3009  0.4176
   87CHL1  H21A 8897   0.728   5.728   7.859 -0.3348 -0.4986  0.1918
   87CHL1  H21B 8898   0.801   5.575   7.844  0.2564  1.8476 -1.2685
   87CHL1  H21C 8899   0.814   5.661   7.999  2.5121 -1.2177 -1.3217
   87CHL1   C22 8900   0.623   5.456   8.058  0.5909 -0.1869 -0.2474
   87CHL1  H22A 8901   0.534   5.401   8.093  0.5101 -0.3850 -0.7440
   87CHL1  H22B 8902   0.695   5.383   8.016 -1.1472 -1.6999 -0.7230
   87CHL1   C23 8903   0.684   5.504   8.197 -0.1124 -0.0585  1.0115
   87CHL1  H23A 8904   0.747   5.594   8.176  0.7761 -0.5655  1.4918
   87CHL1  H23B 8905   0.599   5.550   8.251 -0.0198 -0.2006  1.2746
   87CHL1   C24 8906   0.757   5.397   8.273 -0.3242 -0.7204  0.0518
   87CHL1  H24A 8907   0.686   5.334   8.331 -1.1943 -0.5404 -0.7912
   87CHL1  H24B 8908   0.817   5.340   8.199 -0.4773 -0.8626  0.0359
   87CHL1   C25 8909   0.848   5.456   8.377 -0.4328 -0.7945 -0.3477
   87CHL1   H25 8910   0.925   5.522   8.331 -1.4769  0.1436 -0.7967
   87CHL1   C26 8911   0.769   5.575   8.447 -0.6225  1.1017 -0.4506
   87CHL1  H26A 8912   0.664   5.541   8.458 -0.0743 -0.7704 -0.5728
   87CHL1  H26B 8913   0.815   5.588   8.548 -0.2012 -1.4801 -0.2380
   87CHL1  H26C 8914   0.773   5.673   8.395  3.8647  2.5639  2.1002
   87CHL1   C27 8915   0.907   5.354   8.482 -0.2418  0.2118 -0.1077
   87CHL1  H27A 8916   0.822   5.308   8.536 -0.9816  3.2434  1.4920
   87CHL1  H27B 8917   0.974   5.279   8.433 -0.4914 -0.6723  0.8652
   87CHL1  H27C 8918   0.961   5.415   8.558 -2.0716  0.4923  1.0091
   88CHL1    C3 8919   4.781   5.634   6.916 -0.5031 -0.5150  0.7684
   88CHL1    H3 8920   4.786   5.525   6.893  0.2971 -0.2602 -0.3629
   88CHL1    O3 8921   4.756   5.688   6.797  0.2262 -0.1258  0.0606
   88CHL1   H3' 8922   4.695   5.636   6.744  1.1333 -2.2978  1.0150
   88CHL1    C4 8923   4.676   5.667   7.018  0.6211 -0.1624  0.3127
   88CHL1   H4A 8924   4.659   5.776   7.015 -1.1295 -0.4182 -1.7136
   88CHL1   H4B 8925   4.574   5.639   6.984  0.1411  0.7716  0.9416
   88CHL1    C5 8926   4.706   5.614   7.151  0.5229 -0.1089 -0.2079
   88CHL1    C6 8927   4.622   5.529   7.215 -0.6871  0.1389 -0.2141
   88CHL1    H6 8928   4.536   5.497   7.154  0.2065  0.3805 -1.6533
   88CHL1    C7 8929   4.641   5.468   7.350 -0.3449  0.2890  0.1120
   88CHL1   H7A 8930   4.547   5.485   7.406  0.0133  1.1818  0.4719
   88CHL1   H7B 8931   4.667   5.361   7.340 -0.8987  0.1008  0.6417
   88CHL1    C8 8932   4.753   5.536   7.426  0.4478 -0.0512 -0.1779
   88CHL1    H8 8933   4.713   5.633   7.464  1.2405 -0.2710  1.2928
   88CHL1   C14 8934   4.806   5.439   7.532  0.0430 -0.2380  0.0310
   88CHL1   H14 8935   4.853   5.361   7.467  0.8977  1.3442 -1.3517
   88CHL1   C15 8936   4.705   5.375   7.632  0.1584  0.2671 -0.3338
   88CHL1  H15A 8937   4.628   5.448   7.666  0.9555  1.0770 -0.2608
   88CHL1  H15B 8938   4.661   5.289   7.577  1.2646 -1.4963  1.4233
   88CHL1   C16 8939   4.790   5.336   7.753  0.1313  0.3193 -0.0274
   88CHL1  H16A 8940   4.765   5.377   7.854  2.5684 -1.4531  1.3952
   88CHL1  H16B 8941   4.800   5.229   7.781  1.6283  1.1945  3.2953
   88CHL1   C17 8942   4.933   5.370   7.717 -0.2586 -0.8706  0.6469
   88CHL1   H17 8943   4.981   5.295   7.651  0.1525  0.9344 -1.2007
   88CHL1   C13 8944   4.920   5.487   7.616  0.6050  0.3661 -0.4002
   88CHL1   C18 8945   4.883   5.616   7.690 -0.6611  0.4062 -0.0401
   88CHL1  H18A 8946   4.830   5.678   7.615 -1.6223  0.8286  0.9617
   88CHL1  H18B 8947   4.836   5.578   7.783  1.9327 -1.0255  0.8086
   88CHL1  H18C 8948   4.973   5.662   7.734 -0.9990  0.7027  0.3426
   88CHL1   C12 8949   5.044   5.521   7.521  0.4163 -0.1618 -0.1391
   88CHL1  H12A 8950   5.127   5.572   7.574  0.7913 -2.4305  1.6253
   88CHL1  H12B 8951   5.075   5.423   7.479 -1.3200 -0.1487 -1.5781
   88CHL1   C11 8952   5.003   5.615   7.408 -0.7482 -0.1986 -0.2323
   88CHL1  H11A 8953   4.990   5.713   7.459  2.0614  0.0339  0.1488
   88CHL1  H11B 8954   5.091   5.637   7.345  0.3565  2.1364  1.9663
   88CHL1    C9 8955   4.868   5.572   7.335  0.2026  0.8254  0.2550
   88CHL1    H9 8956   4.901   5.473   7.297  2.9424  0.9069  2.0893
   88CHL1   C10 8957   4.837   5.653   7.211 -0.0022  0.3081 -0.4203
   88CHL1   C19 8958   4.827   5.794   7.244  0.6764 -0.3138 -0.1218
   88CHL1  H19A 8959   4.774   5.814   7.340 -0.5828  1.0360 -1.0604
   88CHL1  H19B 8960   4.928   5.840   7.257 -0.2592  2.6036 -2.0693
   88CHL1  H19C 8961   4.795   5.865   7.164 -0.0414  1.7927  1.9110
   88CHL1    C1 8962   4.942   5.623   7.102  0.1462 -0.4129 -0.1829
   88CHL1   H1A 8963   5.032   5.673   7.144  0.9147 -0.8275 -1.2911
   88CHL1   H1B 8964   4.960   5.514   7.098 -0.7386 -0.5678 -0.1562
   88CHL1    C2 8965   4.918   5.679   6.966  0.5133  0.1892  0.3142
   88CHL1   H2A 8966   5.004   5.638   6.908  1.2627  0.7440  1.0090
   88CHL1   H2B 8967   4.932   5.789   6.956  1.6156 -0.0521 -1.2864
   88CHL1   C20 8968   5.016   5.387   7.849 -0.4346  1.0733  0.4745
   88CHL1   H20 8969   4.952   5.451   7.912 -2.7822 -0.3432 -0.3360
   88CHL1   C21 8970   5.157   5.459   7.821 -0.3939  0.2866 -0.3027
   88CHL1  H21A 8971   5.221   5.399   7.752  0.8123 -2.3716  2.8597
   88CHL1  H21B 8972   5.208   5.450   7.919 -0.0595 -1.6640 -0.5982
   88CHL1  H21C 8973   5.147   5.567   7.799 -0.2549  0.3630  0.0074
   88CHL1   C22 8974   5.049   5.249   7.915 -0.6370  0.2091  0.1673
   88CHL1  H22A 8975   4.960   5.187   7.940 -0.7607  0.9371  1.6183
   88CHL1  H22B 8976   5.115   5.193   7.846  2.4683  3.4534  0.2209
   88CHL1   C23 8977   5.119   5.256   8.055  0.6150 -0.2157  0.0614
   88CHL1  H23A 8978   5.217   5.307   8.040 -0.0588  0.5292 -2.1247
   88CHL1  H23B 8979   5.064   5.323   8.126  1.2932  0.1694  0.2363
   88CHL1   C24 8980   5.146   5.115   8.114  0.0085 -0.2596 -0.7943
   88CHL1  H24A 8981   5.052   5.057   8.126 -1.2238  1.0695 -3.2587
   88CHL1  H24B 8982   5.197   5.050   8.040 -0.9088 -2.7244  0.6344
   88CHL1   C25 8983   5.216   5.112   8.256 -0.4261  0.3829 -0.5528
   88CHL1   H25 8984   5.294   5.191   8.264 -0.5376  0.4819 -0.4476
   88CHL1   C26 8985   5.115   5.146   8.368  0.4474  0.3481 -0.1661
   88CHL1  H26A 8986   5.078   5.251   8.367 -1.9511 -0.4270  0.2381
   88CHL1  H26B 8987   5.027   5.082   8.346 -0.0514  1.8109 -2.8200
   88CHL1  H26C 8988   5.162   5.132   8.468  0.3576 -0.9473 -0.2993
   88CHL1   C27 8989   5.287   4.981   8.292 -0.0472  0.3439  0.0117
   88CHL1  H27A 8990   5.380   4.981   8.233  0.3902  1.2749  0.6600
   88CHL1  H27B 8991   5.321   4.987   8.398  1.9199  1.0943 -0.6249
   88CHL1  H27C 8992   5.225   4.891   8.272  0.9906 -0.1162 -1.2159
   89CHL1    C3 8993   2.429   1.155   6.991  0.3184  0.5214  0.4991
   89CHL1    H3 8994   2.488   1.069   7.026  0.9644  0.2546 -1.1536
   89CHL1    O3 8995   2.401   1.135   6.848 -0.7805 -0.0139  0.1503
   89CHL1   H3' 8996   2.487   1.153   6.809 -1.0970  0.8225 -0.1862
   89CHL1    C4 8997   2.300   1.183   7.073  0.1330 -0.6110  0.4696
   89CHL1   H4A 8998   2.248   1.271   7.028 -0.5770  0.0247  2.4363
   89CHL1   H4B 8999   2.248   1.087   7.052  0.4174 -0.8183  0.7068
   89CHL1    C5 9000   2.327   1.209   7.220 -0.7657 -0.5246  0.0082
   89CHL1    C6 9001   2.285   1.133   7.315  0.8606  0.3876  0.3090
   89CHL1    H6 9002   2.217   1.049   7.293  1.7085 -1.9117  5.0123
   89CHL1    C7 9003   2.315   1.152   7.458  0.2636 -1.0372 -0.6925
   89CHL1   H7A 9004   2.225   1.124   7.516 -0.3763 -0.5997 -1.4557
   89CHL1   H7B 9005   2.393   1.075   7.482  0.0830 -0.3660  2.4852
   89CHL1    C8 9006   2.359   1.298   7.491  0.4142 -0.1513 -0.5402
   89CHL1    H8 9007   2.270   1.364   7.490 -0.6111 -1.4695  0.3830
   89CHL1   C14 9008   2.414   1.301   7.634 -0.2434  0.0674  0.3024
   89CHL1   H14 9009   2.503   1.234   7.629  0.1794  0.1766  3.6522
   89CHL1   C15 9010   2.327   1.245   7.745  0.2382 -0.3431 -0.8781
   89CHL1  H15A 9011   2.224   1.282   7.722 -0.0980 -2.0395 -2.2561
   89CHL1  H15B 9012   2.313   1.136   7.762 -0.1250 -0.3729 -1.3254
   89CHL1   C16 9013   2.376   1.314   7.872 -0.6272  0.9553  1.0229
   89CHL1  H16A 9014   2.286   1.375   7.895 -0.8164  0.8799  0.4861
   89CHL1  H16B 9015   2.389   1.245   7.958  1.3033 -0.2023 -0.1254
   89CHL1   C17 9016   2.497   1.402   7.829  0.3948  0.2862 -0.1039
   89CHL1   H17 9017   2.584   1.333   7.822  0.3835  0.1719  0.7197
   89CHL1   C13 9018   2.468   1.438   7.672 -0.3586  0.0370 -0.3133
   89CHL1   C18 9019   2.355   1.544   7.659  0.1513  0.2932 -0.0170
   89CHL1  H18A 9020   2.313   1.544   7.556  1.6337 -0.6962 -0.6576
   89CHL1  H18B 9021   2.284   1.523   7.742  2.2814  0.6444  1.9799
   89CHL1  H18C 9022   2.391   1.646   7.681 -1.0629  0.5905  0.7218
   89CHL1   C12 9023   2.584   1.475   7.581 -0.0476 -0.0795  0.1055
   89CHL1  H12A 9024   2.623   1.575   7.611 -0.3690  0.3785 -0.9438
   89CHL1  H12B 9025   2.660   1.396   7.601 -1.2409 -1.1264  0.6158
   89CHL1   C11 9026   2.537   1.478   7.430  0.1992  0.5891 -0.0098
   89CHL1  H11A 9027   2.470   1.566   7.434  1.0763  1.2241  2.6759
   89CHL1  H11B 9028   2.624   1.490   7.361  0.2067 -0.6913 -0.2532
   89CHL1    C9 9029   2.467   1.342   7.396  0.6852 -0.7258  0.0863
   89CHL1    H9 9030   2.549   1.270   7.414  2.0635  0.6439 -0.4432
   89CHL1   C10 9031   2.414   1.333   7.244  0.0053  0.0147 -0.1337
   89CHL1   C19 9032   2.337   1.465   7.216 -0.4004  0.4967 -0.7142
   89CHL1  H19A 9033   2.310   1.468   7.108 -0.5503 -1.4789 -0.7599
   89CHL1  H19B 9034   2.242   1.470   7.274 -0.8178  0.6053 -1.3978
   89CHL1  H19C 9035   2.388   1.561   7.239 -0.5969  0.7878 -1.4673
   89CHL1    C1 9036   2.540   1.322   7.150  0.2068  0.1471  0.5881
   89CHL1   H1A 9037   2.606   1.411   7.142  2.3268 -1.3062  0.9684
   89CHL1   H1B 9038   2.599   1.245   7.204  0.0130  0.7715  1.7159
   89CHL1    C2 9039   2.510   1.280   7.003  0.4417  0.2243  0.1232
   89CHL1   H2A 9040   2.613   1.257   6.967  1.0794 -0.5127  2.3079
   89CHL1   H2B 9041   2.476   1.371   6.949 -1.1282  0.0400  0.7532
   89CHL1   C20 9042   2.529   1.527   7.917 -0.4187  0.7436 -0.2293
   89CHL1   H20 9043   2.456   1.611   7.905 -0.5998  1.1099  2.7592
   89CHL1   C21 9044   2.668   1.593   7.888 -0.3092 -0.4976 -0.0421
   89CHL1  H21A 9045   2.679   1.675   7.962  0.1972  0.1330 -0.7977
   89CHL1  H21B 9046   2.669   1.646   7.790 -4.5306 -0.5624 -0.2982
   89CHL1  H21C 9047   2.755   1.526   7.905  1.6529  2.3046  1.9100
   89CHL1   C22 9048   2.521   1.489   8.070  0.6623 -0.2222 -0.4171
   89CHL1  H22A 9049   2.424   1.446   8.102  0.2788 -1.0087 -2.4649
   89CHL1  H22B 9050   2.597   1.409   8.084  0.2605 -0.3254  1.3169
   89CHL1   C23 9051   2.548   1.603   8.168  0.8501  0.7447 -0.2018
   89CHL1  H23A 9052   2.651   1.639   8.151  0.4364  2.2704  0.3708
   89CHL1  H23B 9053   2.480   1.685   8.136 -1.3710 -1.1760 -0.6412
   89CHL1   C24 9054   2.527   1.560   8.319  0.4567  0.0078 -0.0016
   89CHL1  H24A 9055   2.598   1.479   8.345  1.7778  1.0578 -0.2212
   89CHL1  H24B 9056   2.561   1.654   8.367 -0.5828  0.7592 -0.6633
   89CHL1   C25 9057   2.390   1.508   8.363 -0.1215 -0.1567 -0.0746
   89CHL1   H25 9058   2.380   1.402   8.332  0.6262 -0.4548  0.6806
   89CHL1   C26 9059   2.375   1.510   8.515 -0.2112  0.3764 -0.4969
   89CHL1  H26A 9060   2.397   1.611   8.555 -2.0360  0.3547  0.6660
   89CHL1  H26B 9061   2.273   1.477   8.543 -0.5621  2.0950  0.4060
   89CHL1  H26C 9062   2.445   1.437   8.561 -2.0259 -0.8428  0.4068
   89CHL1   C27 9063   2.271   1.600   8.309 -0.3587 -0.6247  0.8582
   89CHL1  H27A 9064   2.180   1.583   8.371 -1.0638 -1.1222 -0.2745
   89CHL1  H27B 9065   2.306   1.705   8.316 -0.0111 -0.6544 -0.1624
   89CHL1  H27C 9066   2.255   1.580   8.200  1.9248 -1.8688  0.6926
   90CHL1    C3 9067   3.964   3.491   7.002  0.6284 -0.9020 -0.7027
   90CHL1    H3 9068   3.890   3.574   7.013  1.6230  0.1044 -1.2985
   90CHL1    O3 9069   4.013   3.493   6.870 -0.4595  0.1881 -0.7393
   90CHL1   H3' 9070   4.098   3.448   6.872 -0.7875 -0.4277  0.6265
   90CHL1    C4 9071   4.078   3.523   7.091 -0.3671  0.0776  0.1039
   90CHL1   H4A 9072   4.167   3.461   7.067 -1.6821 -2.0150  0.4080
   90CHL1   H4B 9073   4.101   3.628   7.065 -1.0186  0.3842  0.7305
   90CHL1    C5 9074   4.030   3.506   7.231  0.2441 -0.1877  0.1959
   90CHL1    C6 9075   4.018   3.613   7.312  0.7014  0.4875 -0.7783
   90CHL1    H6 9076   4.029   3.711   7.263 -1.1951  0.6692 -0.8871
   90CHL1    C7 9077   3.995   3.598   7.456  0.5657 -0.2042  0.2954
   90CHL1   H7A 9078   4.057   3.671   7.514 -0.1668  1.0660 -0.4731
   90CHL1   H7B 9079   3.888   3.620   7.474  0.5829 -0.5392  0.8629
   90CHL1    C8 9080   4.011   3.458   7.514 -0.0083 -0.2620 -0.1968
   90CHL1    H8 9081   4.119   3.435   7.531  0.2437  1.6353  1.0221
   90CHL1   C14 9082   3.934   3.432   7.642 -0.3331 -0.5901  0.3065
   90CHL1   H14 9083   3.824   3.440   7.624 -0.0205 -1.8928 -2.6591
   90CHL1   C15 9084   3.966   3.533   7.757  0.1834  0.0331  0.6221
   90CHL1  H15A 9085   4.077   3.540   7.762  0.3122 -1.5129  0.3481
   90CHL1  H15B 9086   3.909   3.628   7.745  0.0342 -0.0124  0.9408
   90CHL1   C16 9087   3.934   3.466   7.889 -0.3310 -0.1112  0.8233
   90CHL1  H16A 9088   4.031   3.464   7.945  0.2398 -3.7465 -0.0399
   90CHL1  H16B 9089   3.865   3.517   7.960 -0.6809  0.8459 -0.1925
   90CHL1   C17 9090   3.881   3.319   7.850 -0.5995 -0.1429 -0.8124
   90CHL1   H17 9091   3.771   3.316   7.839 -0.9414  0.0919  1.9878
   90CHL1   C13 9092   3.952   3.299   7.711  0.3444  0.5161 -0.1307
   90CHL1   C18 9093   4.097   3.255   7.740 -0.8963 -0.0612 -0.2963
   90CHL1  H18A 9094   4.103   3.162   7.800 -0.0472  0.9666  1.2801
   90CHL1  H18B 9095   4.144   3.225   7.644 -0.2168 -0.2776  0.0955
   90CHL1  H18C 9096   4.148   3.337   7.797 -0.5538  1.0674 -2.1314
   90CHL1   C12 9097   3.879   3.198   7.622  0.0132 -0.0973  0.5119
   90CHL1  H12A 9098   3.871   3.094   7.660  0.1582  0.3100  1.6811
   90CHL1  H12B 9099   3.772   3.231   7.619  0.5738  1.8828  1.1637
   90CHL1   C11 9100   3.937   3.207   7.478  0.1499  0.1196 -0.2637
   90CHL1  H11A 9101   4.035   3.155   7.476  0.2507  0.3262 -1.5670
   90CHL1  H11B 9102   3.870   3.149   7.411 -1.6576  1.7316  0.0697
   90CHL1    C9 9103   3.948   3.352   7.416 -0.1189  0.3543  0.7721
   90CHL1    H9 9104   3.844   3.386   7.402  0.0359  0.8670  0.8490
   90CHL1   C10 9105   4.008   3.359   7.274 -0.5139 -0.5568  0.5081
   90CHL1   C19 9106   4.143   3.282   7.271 -0.5495  0.3618 -0.1248
   90CHL1  H19A 9107   4.198   3.287   7.174  0.0792 -2.1016  0.0393
   90CHL1  H19B 9108   4.218   3.322   7.342  1.7828 -1.2388 -1.5425
   90CHL1  H19C 9109   4.121   3.174   7.281  2.2892 -1.0239 -5.2894
   90CHL1    C1 9110   3.902   3.301   7.176  0.5757 -0.0267  0.4008
   90CHL1   H1A 9111   3.898   3.190   7.167 -0.6914  0.1755 -2.8241
   90CHL1   H1B 9112   3.807   3.341   7.217  0.1157 -0.2910 -0.3847
   90CHL1    C2 9113   3.920   3.350   7.031  0.0927 -0.0390  0.1074
   90CHL1   H2A 9114   3.836   3.317   6.965  0.7347 -0.4718 -0.5120
   90CHL1   H2B 9115   4.003   3.283   7.000 -1.0540 -1.7693  0.6188
   90CHL1   C20 9116   3.907   3.234   7.980 -0.1674  0.0583 -0.4351
   90CHL1   H20 9117   4.017   3.238   7.995  0.0714 -0.3770 -1.9139
   90CHL1   C21 9118   3.875   3.078   7.951 -0.0407  0.3605 -0.0290
   90CHL1  H21A 9119   3.947   3.038   7.877  0.1588  1.1829 -0.2933
   90CHL1  H21B 9120   3.773   3.066   7.908  0.1111 -2.0911  0.1398
   90CHL1  H21C 9121   3.881   3.006   8.036  2.0609 -0.2678 -0.6360
   90CHL1   C22 9122   3.846   3.290   8.112  0.0529 -0.5355 -1.0142
   90CHL1  H22A 9123   3.884   3.392   8.138  1.1193 -1.1175 -0.2033
   90CHL1  H22B 9124   3.737   3.289   8.090 -0.3757  1.2978  0.6370
   90CHL1   C23 9125   3.873   3.196   8.232 -0.1555  0.2169  0.1094
   90CHL1  H23A 9126   3.821   3.102   8.206 -0.8757  1.1742 -2.0930
   90CHL1  H23B 9127   3.980   3.188   8.261 -0.5881 -0.9785  1.5084
   90CHL1   C24 9128   3.802   3.238   8.361  0.3065 -0.2254 -0.0406
   90CHL1  H24A 9129   3.845   3.339   8.381 -0.9987  0.4750 -0.6228
   90CHL1  H24B 9130   3.693   3.241   8.337 -0.2295 -1.3762  2.0273
   90CHL1   C25 9131   3.812   3.148   8.486 -0.4023  0.6038 -0.9106
   90CHL1   H25 9132   3.764   3.194   8.574  2.3240  1.0709  0.4463
   90CHL1   C26 9133   3.733   3.018   8.460 -0.0490  0.3011 -0.4221
   90CHL1  H26A 9134   3.633   3.039   8.416 -0.3113 -1.4705 -0.7215
   90CHL1  H26B 9135   3.783   2.961   8.379 -0.2620  0.2173 -0.4971
   90CHL1  H26C 9136   3.713   2.957   8.550  0.6198  0.0959 -0.4138
   90CHL1   C27 9137   3.955   3.116   8.541  0.2073 -0.4938 -0.5798
   90CHL1  H27A 9138   3.952   3.056   8.635 -0.4707  0.3910 -0.0209
   90CHL1  H27B 9139   4.003   3.046   8.469 -0.3241 -2.0891  0.5692
   90CHL1  H27C 9140   4.019   3.206   8.552  0.3155 -0.8545  2.9161
   91CHL1    C3 9141   3.063   4.294   7.454 -0.3245  0.5099  0.2051
   91CHL1    H3 9142   2.959   4.271   7.488 -1.0510  3.2326 -0.0022
   91CHL1    O3 9143   3.052   4.332   7.320  0.0470 -0.8601  0.2420
   91CHL1   H3' 9144   3.037   4.257   7.263  0.5476  0.6117 -1.9700
   91CHL1    C4 9145   3.111   4.413   7.541 -0.1058 -0.4310  0.8253
   91CHL1   H4A 9146   3.208   4.440   7.493  0.0690 -2.3304  0.0164
   91CHL1   H4B 9147   3.029   4.486   7.524  0.6890  0.0397 -1.4463
   91CHL1    C5 9148   3.138   4.371   7.686 -0.2186  0.0970  0.0464
   91CHL1    C6 9149   3.064   4.433   7.777  0.3183  0.2488 -0.5448
   91CHL1    H6 9150   3.005   4.519   7.741 -0.7574 -1.7126 -3.8778
   91CHL1    C7 9151   3.081   4.413   7.924 -0.0594 -1.0337  0.3603
   91CHL1   H7A 9152   3.069   4.517   7.962 -0.2319 -0.8251 -0.2510
   91CHL1   H7B 9153   2.998   4.352   7.967  0.1309 -0.3789  1.6898
   91CHL1    C8 9154   3.214   4.338   7.953 -0.6149 -0.7560 -0.4049
   91CHL1    H8 9155   3.296   4.406   7.923 -1.7801  0.7793 -0.1975
   91CHL1   C14 9156   3.226   4.303   8.102  0.4327  0.7353 -0.3680
   91CHL1   H14 9157   3.133   4.250   8.132  0.8141  0.6294  0.6820
   91CHL1   C15 9158   3.221   4.430   8.197  0.0520  0.1046 -0.0309
   91CHL1  H15A 9159   3.290   4.506   8.154  2.8705 -1.8450  0.7205
   91CHL1  H15B 9160   3.119   4.466   8.221 -0.2026 -0.6586  0.0541
   91CHL1   C16 9161   3.281   4.376   8.325 -0.3338 -0.6895  0.5429
   91CHL1  H16A 9162   3.372   4.435   8.349 -0.8476  1.5574 -2.3259
   91CHL1  H16B 9163   3.207   4.377   8.408 -0.3248 -2.2395  0.5851
   91CHL1   C17 9164   3.325   4.232   8.288 -0.1155 -0.1430 -0.1808
   91CHL1   H17 9165   3.241   4.160   8.294  1.5016 -2.0955  0.1278
   91CHL1   C13 9166   3.350   4.226   8.137 -0.3190 -0.3862  0.3214
   91CHL1   C18 9167   3.489   4.298   8.089  0.1503 -0.1436 -0.3877
   91CHL1  H18A 9168   3.485   4.334   7.984 -0.4741  0.5887 -0.1243
   91CHL1  H18B 9169   3.510   4.376   8.165  5.0452 -0.2599 -1.2997
   91CHL1  H18C 9170   3.574   4.226   8.088  1.2773  1.1294  0.9917
   91CHL1   C12 9171   3.335   4.087   8.063  0.5656 -0.6285  0.5127
   91CHL1  H12A 9172   3.413   4.019   8.103  1.2277 -0.4770 -0.4930
   91CHL1  H12B 9173   3.236   4.051   8.100 -0.8830  1.1111 -1.4542
   91CHL1   C11 9174   3.331   4.104   7.909  0.2067  0.5297 -0.0384
   91CHL1  H11A 9175   3.435   4.125   7.875 -0.1245  1.6085 -0.4296
   91CHL1  H11B 9176   3.314   4.007   7.856  2.9797 -1.4213  2.3277
   91CHL1    C9 9177   3.221   4.209   7.861 -0.2953  0.5071 -0.1264
   91CHL1    H9 9178   3.128   4.156   7.888 -1.3413  1.5899 -1.4604
   91CHL1   C10 9179   3.221   4.253   7.709  0.4744 -0.0951 -0.5949
   91CHL1   C19 9180   3.373   4.280   7.678  0.3617  0.1518 -0.2117
   91CHL1  H19A 9181   3.422   4.180   7.673 -2.2234 -1.1727 -1.9952
   91CHL1  H19B 9182   3.387   4.343   7.588  0.4140  2.7804  1.5099
   91CHL1  H19C 9183   3.416   4.340   7.761  2.1951  1.1602 -1.8246
   91CHL1    C1 9184   3.175   4.133   7.616 -0.0876 -0.3630  0.2179
   91CHL1   H1A 9185   3.254   4.056   7.627 -0.9378 -1.2626  0.1513
   91CHL1   H1B 9186   3.078   4.085   7.641 -0.1019 -0.4796 -0.0661
   91CHL1    C2 9187   3.164   4.180   7.466 -0.3488  0.4730  0.8253
   91CHL1   H2A 9188   3.130   4.089   7.413 -1.7950  0.2909  2.0059
   91CHL1   H2B 9189   3.267   4.206   7.433 -0.4776  1.6038  1.2661
   91CHL1   C20 9190   3.433   4.176   8.374  0.2147  0.4514 -0.0404
   91CHL1   H20 9191   3.479   4.085   8.329 -0.1937 -0.0537  0.5448
   91CHL1   C21 9192   3.371   4.125   8.501 -0.5726  0.7388  0.1375
   91CHL1  H21A 9193   3.446   4.059   8.551 -1.8528 -1.0400 -0.1940
   91CHL1  H21B 9194   3.288   4.060   8.467  0.9691 -1.2846  0.0105
   91CHL1  H21C 9195   3.331   4.205   8.566  0.0990  0.3751  1.0257
   91CHL1   C22 9196   3.557   4.269   8.416 -0.1690 -0.3456 -0.2331
   91CHL1  H22A 9197   3.606   4.306   8.324  0.0198  2.2585  0.8207
   91CHL1  H22B 9198   3.526   4.360   8.472  0.9627  1.1519 -1.9168
   91CHL1   C23 9199   3.672   4.199   8.485 -0.0486  0.1423  0.6499
   91CHL1  H23A 9200   3.622   4.159   8.576  0.5962 -0.2571  0.8386
   91CHL1  H23B 9201   3.699   4.119   8.412  3.4574  3.1332 -1.6888
   91CHL1   C24 9202   3.798   4.284   8.528  0.2415 -0.2518  0.0571
   91CHL1  H24A 9203   3.836   4.355   8.451 -1.0183  1.3060  0.8190
   91CHL1  H24B 9204   3.770   4.363   8.601  2.5513  1.1360 -0.4469
   91CHL1   C25 9205   3.916   4.209   8.592  0.5147  0.0898  0.4919
   91CHL1   H25 9206   3.951   4.138   8.514 -2.0466  0.0846 -0.7771
   91CHL1   C26 9207   4.036   4.301   8.626 -0.3466  0.5642 -0.1891
   91CHL1  H26A 9208   4.113   4.245   8.683  0.8878  2.1200 -0.2689
   91CHL1  H26B 9209   4.082   4.332   8.530  0.5910 -1.2591 -0.3740
   91CHL1  H26C 9210   3.993   4.383   8.689 -4.5629  0.6505 -2.7808
   91CHL1   C27 9211   3.864   4.124   8.713 -0.3378 -0.0797 -0.3075
   91CHL1  H27A 9212   3.798   4.039   8.682  2.3131 -2.2125 -0.4377
   91CHL1  H27B 9213   3.951   4.082   8.767  2.4255  4.2786 -0.9024
   91CHL1  H27C 9214   3.809   4.192   8.781 -0.8077  0.8550 -1.5810
   92CHL1    C3 9215   4.629   6.105   6.729 -0.2353 -0.3126  0.2625
   92CHL1    H3 9216   4.532   6.153   6.755  0.2599  1.1723 -0.5325
   92CHL1    O3 9217   4.616   6.038   6.600 -0.0169 -0.5385 -0.2482
   92CHL1   H3' 9218   4.622   6.097   6.524  3.4494  0.2927  0.4920
   92CHL1    C4 9219   4.743   6.214   6.723 -0.8081  0.5542 -0.2941
   92CHL1   H4A 9220   4.836   6.161   6.692 -1.1923 -1.3850  1.6675
   92CHL1   H4B 9221   4.723   6.282   6.637  0.6802 -0.9058 -1.8857
   92CHL1    C5 9222   4.751   6.279   6.857  0.3691 -0.0156  0.8596
   92CHL1    C6 9223   4.734   6.413   6.865 -0.4858 -0.6721 -0.1368
   92CHL1    H6 9224   4.700   6.465   6.775 -1.8397 -0.1977  0.6324
   92CHL1    C7 9225   4.732   6.486   6.997  0.5910 -0.6329 -0.1661
   92CHL1   H7A 9226   4.793   6.579   6.989  1.1187 -0.7847  1.5178
   92CHL1   H7B 9227   4.627   6.508   7.023  1.2003  1.9148  0.4962
   92CHL1    C8 9228   4.798   6.406   7.117 -0.1801 -0.0223 -0.3458
   92CHL1    H8 9229   4.907   6.408   7.093  0.4494  0.4028  2.1941
   92CHL1   C14 9230   4.769   6.477   7.247 -0.0700 -0.5229  0.7417
   92CHL1   H14 9231   4.658   6.480   7.253 -0.1096 -2.7110  2.4204
   92CHL1   C15 9232   4.794   6.633   7.262 -0.7532  0.2974  0.0060
   92CHL1  H15A 9233   4.904   6.644   7.254 -1.0042  3.3453 -0.4289
   92CHL1  H15B 9234   4.737   6.703   7.197  1.7696  1.4055 -1.1531
   92CHL1   C16 9235   4.780   6.656   7.413 -0.4164  0.0941 -0.7879
   92CHL1  H16A 9236   4.872   6.709   7.445  1.0417 -1.3056 -2.4191
   92CHL1  H16B 9237   4.697   6.716   7.455  0.4516 -0.2992  1.6290
   92CHL1   C17 9238   4.773   6.511   7.478 -0.5364  0.1840 -0.0970
   92CHL1   H17 9239   4.665   6.492   7.492 -0.4421  0.3281  0.8855
   92CHL1   C13 9240   4.826   6.411   7.373 -0.5004 -0.0004 -0.3179
   92CHL1   C18 9241   4.984   6.408   7.359  0.0152 -0.2555  0.5118
   92CHL1  H18A 9242   5.020   6.513   7.361 -3.0675  0.9822 -1.1835
   92CHL1  H18B 9243   5.032   6.355   7.444  1.4164  0.3623  0.1289
   92CHL1  H18C 9244   5.014   6.359   7.263  0.9423 -0.1905  0.7667
   92CHL1   C12 9245   4.754   6.269   7.384  0.1490 -0.3556  0.8099
   92CHL1  H12A 9246   4.780   6.214   7.476  1.0419  0.0378  0.8026
   92CHL1  H12B 9247   4.644   6.284   7.377  0.3697  0.5244 -2.0967
   92CHL1   C11 9248   4.783   6.187   7.255 -0.1047  0.1636 -0.0244
   92CHL1  H11A 9249   4.891   6.160   7.247 -0.0321  0.6914 -0.9775
   92CHL1  H11B 9250   4.733   6.088   7.269  1.6381 -0.8248 -0.5033
   92CHL1    C9 9251   4.737   6.261   7.118 -0.2031 -0.0080 -0.3429
   92CHL1    H9 9252   4.629   6.286   7.128 -0.4231 -1.1169  0.2990
   92CHL1   C10 9253   4.765   6.186   6.988 -0.5174 -0.7339 -0.1024
   92CHL1   C19 9254   4.911   6.127   6.991  0.3005 -0.4368  0.0530
   92CHL1  H19A 9255   4.930   6.083   6.891 -2.2222 -0.4418 -0.4969
   92CHL1  H19B 9256   4.979   6.213   7.007 -0.3933  0.5850 -2.1363
   92CHL1  H19C 9257   4.925   6.043   7.063  0.5281 -1.1260 -0.7801
   92CHL1    C1 9258   4.660   6.078   6.968 -0.2315 -0.0654  0.3384
   92CHL1   H1A 9259   4.666   6.008   7.054  1.4116  0.5028  0.7219
   92CHL1   H1B 9260   4.559   6.125   6.975 -0.1240  0.8684 -2.7721
   92CHL1    C2 9261   4.657   6.000   6.832  0.1488  0.0513 -0.4006
   92CHL1   H2A 9262   4.571   5.930   6.832  0.8531 -0.9807 -3.4886
   92CHL1   H2B 9263   4.758   5.955   6.814  0.2866 -0.1783  0.8746
   92CHL1   C20 9264   4.837   6.512   7.620  0.1071  0.0362 -0.1366
   92CHL1   H20 9265   4.942   6.547   7.611  0.1077 -0.0944 -0.6579
   92CHL1   C21 9266   4.848   6.375   7.682 -1.0976  0.0255 -0.1748
   92CHL1  H21A 9267   4.892   6.292   7.623 -0.0983  0.3420  0.1094
   92CHL1  H21B 9268   4.748   6.348   7.723 -0.5162 -1.2310  0.4893
   92CHL1  H21C 9269   4.908   6.382   7.775 -0.7826 -1.4278 -0.2508
   92CHL1   C22 9270   4.762   6.618   7.711  0.2502  0.1024 -1.1871
   92CHL1  H22A 9271   4.761   6.719   7.664  0.3232 -0.5445 -2.6117
   92CHL1  H22B 9272   4.661   6.578   7.732  0.2074  0.9966  0.4910
   92CHL1   C23 9273   4.822   6.640   7.855  0.0454  0.5266  0.2600
   92CHL1  H23A 9274   4.767   6.716   7.915  0.3026  1.0739 -0.1898
   92CHL1  H23B 9275   4.827   6.547   7.914 -0.4177 -0.9826 -1.9302
   92CHL1   C24 9276   4.965   6.697   7.849  0.1165  0.1418  0.2471
   92CHL1  H24A 9277   5.023   6.634   7.778 -1.3269 -1.0230  0.0639
   92CHL1  H24B 9278   4.971   6.786   7.783 -0.2778  0.3504  0.4950
   92CHL1   C25 9279   5.041   6.730   7.978 -0.7798 -0.1670 -0.4882
   92CHL1   H25 9280   5.140   6.777   7.961 -1.1872  1.7315  1.8801
   92CHL1   C26 9281   4.972   6.833   8.067 -0.4656 -0.0780  0.0791
   92CHL1  H26A 9282   4.868   6.799   8.088  0.3064 -1.7636  1.4993
   92CHL1  H26B 9283   5.036   6.849   8.157  1.6307  3.3906 -1.8234
   92CHL1  H26C 9284   4.961   6.933   8.019  0.8190  0.1732  0.2626
   92CHL1   C27 9285   5.058   6.595   8.059 -0.2724  1.2105 -0.8917
   92CHL1  H27A 9286   5.114   6.595   8.155  2.2320 -0.4035 -2.2469
   92CHL1  H27B 9287   4.968   6.531   8.071  1.5717 -1.4878 -0.6611
   92CHL1  H27C 9288   5.126   6.527   8.004 -0.9803 -0.3940  0.1448
   93CHL1    C3 9289   6.015   3.111   6.951  0.2829 -0.8194  0.7359
   93CHL1    H3 9290   6.124   3.136   6.948 -0.0860  1.0992  1.5935
   93CHL1    O3 9291   5.961   3.107   6.820  0.0028 -0.0788 -0.0635
   93CHL1   H3' 9292   5.867   3.110   6.837  0.2889 -0.2103  1.7532
   93CHL1    C4 9293   6.008   2.968   7.010 -0.5088 -0.5333  0.2537
   93CHL1   H4A 9294   5.909   2.928   6.980 -0.0332 -0.6633 -1.2535
   93CHL1   H4B 9295   6.080   2.911   6.947 -0.3742 -0.4734  0.3531
   93CHL1    C5 9296   6.022   2.955   7.159 -0.0377  0.5460  0.3639
   93CHL1    C6 9297   6.114   2.867   7.212  0.4602 -0.0190 -0.4184
   93CHL1    H6 9298   6.175   2.799   7.151 -0.3583 -0.5471 -0.6518
   93CHL1    C7 9299   6.125   2.852   7.361  0.1654 -0.8090 -0.7892
   93CHL1   H7A 9300   6.129   2.743   7.382  0.1560 -0.3123  2.2357
   93CHL1   H7B 9301   6.224   2.888   7.396  0.0289 -2.0794  1.0001
   93CHL1    C8 9302   6.002   2.916   7.437  0.5104  0.5943 -0.0538
   93CHL1    H8 9303   5.916   2.847   7.420 -0.4474  0.9930  2.7034
   93CHL1   C14 9304   6.025   2.914   7.591 -0.4943 -0.0311  0.1129
   93CHL1   H14 9305   6.117   2.975   7.603  0.0931 -0.3242 -2.3617
   93CHL1   C15 9306   6.054   2.774   7.649 -0.7187 -0.5229 -0.0432
   93CHL1  H15A 9307   5.965   2.713   7.627  0.1900 -1.4493 -1.2925
   93CHL1  H15B 9308   6.152   2.730   7.622  1.1213  3.2237 -0.2231
   93CHL1   C16 9309   6.053   2.808   7.800  0.6008 -0.6954  0.6211
   93CHL1  H16A 9310   6.003   2.720   7.845  0.1099 -1.7596 -1.8217
   93CHL1  H16B 9311   6.161   2.812   7.827  0.5033 -2.9421  1.5168
   93CHL1   C17 9312   5.980   2.950   7.814 -0.3877  0.8835 -0.1459
   93CHL1   H17 9313   6.059   3.026   7.830  1.0249 -0.4957 -0.3344
   93CHL1   C13 9314   5.913   2.977   7.672  0.0603 -0.0657 -0.6400
   93CHL1   C18 9315   5.781   2.900   7.660 -0.2919  0.3175 -0.0284
   93CHL1  H18A 9316   5.788   2.803   7.714 -0.5032  0.7672  0.8312
   93CHL1  H18B 9317   5.700   2.959   7.708 -0.8919 -1.0588  0.7219
   93CHL1  H18C 9318   5.750   2.885   7.555  1.1355 -1.3326 -0.2622
   93CHL1   C12 9319   5.897   3.123   7.626 -0.0891  0.2738 -0.1358
   93CHL1  H12A 9320   5.824   3.172   7.694  1.3279 -0.2439  1.8416
   93CHL1  H12B 9321   5.996   3.172   7.641  0.1793 -0.8038  1.9700
   93CHL1   C11 9322   5.860   3.131   7.475  0.0177  0.0398  0.1801
   93CHL1  H11A 9323   5.757   3.088   7.475  0.3946 -0.9425 -1.2746
   93CHL1  H11B 9324   5.850   3.236   7.441 -0.3461 -0.5036 -1.4626
   93CHL1    C9 9325   5.962   3.053   7.390 -0.6150 -0.6476  0.0386
   93CHL1    H9 9326   6.056   3.113   7.396 -0.4687 -0.6974 -1.5219
   93CHL1   C10 9327   5.933   3.049   7.240  1.0578  0.0440 -0.1634
   93CHL1   C19 9328   5.783   3.008   7.214  0.2553 -0.4345 -0.4969
   93CHL1  H19A 9329   5.760   3.025   7.107  0.2593  1.8898 -0.1783
   93CHL1  H19B 9330   5.778   2.898   7.227 -1.4231 -0.6303 -2.3713
   93CHL1  H19C 9331   5.707   3.059   7.276  0.1134 -1.7157  0.4294
   93CHL1    C1 9332   5.966   3.188   7.186  0.0574 -0.6720 -0.6201
   93CHL1   H1A 9333   5.904   3.267   7.232  1.5084  1.1731 -1.6925
   93CHL1   H1B 9334   6.075   3.206   7.201 -0.0877  0.4046 -0.8147
   93CHL1    C2 9335   5.942   3.215   7.038  0.1155  0.0553 -0.1702
   93CHL1   H2A 9336   5.980   3.317   7.012  0.5075  0.0095  0.2123
   93CHL1   H2B 9337   5.835   3.215   7.009 -0.0252 -0.1534  0.3534
   93CHL1   C20 9338   5.893   2.957   7.937  0.7526 -0.0969  0.0324
   93CHL1   H20 9339   5.810   2.883   7.927  0.3777  0.1613  1.1606
   93CHL1   C21 9340   5.837   3.107   7.951 -0.1993  0.1355  0.4298
   93CHL1  H21A 9341   5.776   3.116   8.043 -0.1802 -0.3717  0.4947
   93CHL1  H21B 9342   5.760   3.120   7.872  0.1295 -3.4558 -0.6855
   93CHL1  H21C 9343   5.912   3.186   7.930  1.0207 -1.1680 -0.3763
   93CHL1   C22 9344   5.979   2.921   8.062  0.6307 -0.1047  0.4768
   93CHL1  H22A 9345   6.041   2.830   8.048 -2.1084 -1.6377 -3.4263
   93CHL1  H22B 9346   6.047   3.008   8.073  1.6080 -0.6839 -0.7645
   93CHL1   C23 9347   5.887   2.890   8.184 -0.1516  0.2965  0.3206
   93CHL1  H23A 9348   5.827   2.981   8.206 -1.1857  0.0270 -1.1983
   93CHL1  H23B 9349   5.817   2.805   8.166  0.1446  0.1938 -0.3835
   93CHL1   C24 9350   5.962   2.855   8.312 -0.0369  0.9959  0.4419
   93CHL1  H24A 9351   6.013   2.757   8.298 -2.0516 -0.3237  1.8761
   93CHL1  H24B 9352   6.036   2.935   8.333  1.0496  0.4237 -1.0273
   93CHL1   C25 9353   5.874   2.837   8.436 -0.4381  0.6714  0.4000
   93CHL1   H25 9354   5.803   2.755   8.413  0.2220  0.2351 -0.1128
   93CHL1   C26 9355   5.948   2.815   8.565  0.1580  0.4943 -0.7317
   93CHL1  H26A 9356   5.879   2.819   8.652 -0.1502  0.6197 -0.9800
   93CHL1  H26B 9357   5.998   2.716   8.574 -2.1883 -0.5524  2.9956
   93CHL1  H26C 9358   6.032   2.888   8.570  0.0752  0.6486 -1.5067
   93CHL1   C27 9359   5.770   2.946   8.458 -0.1022 -0.1688  0.5786
   93CHL1  H27A 9360   5.708   2.923   8.547  0.4994 -0.4960  0.9216
   93CHL1  H27B 9361   5.814   3.046   8.478 -0.3734 -0.1267  0.9655
   93CHL1  H27C 9362   5.694   2.958   8.378 -2.5577 -1.7501  2.5345
   94CHL1    C3 9363   6.653   5.640   7.016  0.3214  0.3308 -0.3178
   94CHL1    H3 9364   6.737   5.569   7.030  1.0573  1.4050  0.9487
   94CHL1    O3 9365   6.605   5.632   6.886  0.0071  0.3376  0.4783
   94CHL1   H3' 9366   6.529   5.691   6.886 -0.2427  0.1401 -2.1456
   94CHL1    C4 9367   6.530   5.598   7.108  0.4716  0.1398 -0.0930
   94CHL1   H4A 9368   6.450   5.674   7.098  0.0734  0.1122  2.3670
   94CHL1   H4B 9369   6.489   5.500   7.075 -2.4436  1.5673 -1.0657
   94CHL1    C5 9370   6.568   5.599   7.255  0.3108 -0.2580  0.4478
   94CHL1    C6 9371   6.556   5.489   7.332 -0.7715 -0.0472  0.2031
   94CHL1    H6 9372   6.498   5.404   7.295 -1.9181  1.0384 -0.5847
   94CHL1    C7 9373   6.598   5.489   7.475  0.0713 -0.6720  0.1334
   94CHL1   H7A 9374   6.529   5.439   7.545  0.4891 -0.3734  0.7669
   94CHL1   H7B 9375   6.686   5.421   7.477 -0.4947 -1.3983  0.8004
   94CHL1    C8 9376   6.630   5.630   7.531 -0.2326  0.0029  1.0041
   94CHL1    H8 9377   6.534   5.676   7.564 -0.5943 -0.5853  0.8066
   94CHL1   C14 9378   6.723   5.622   7.658 -0.0972 -0.2003  0.1439
   94CHL1   H14 9379   6.819   5.577   7.626 -0.4923 -1.9401  1.2336
   94CHL1   C15 9380   6.676   5.525   7.764  0.6506 -0.3497 -0.6684
   94CHL1  H15A 9381   6.565   5.524   7.767  0.5952 -1.0849 -2.0201
   94CHL1  H15B 9382   6.709   5.420   7.747  1.8912 -0.3342  1.2760
   94CHL1   C16 9383   6.744   5.581   7.889 -0.3866 -1.2126 -0.6445
   94CHL1  H16A 9384   6.654   5.600   7.952 -0.8286 -1.3586 -1.2286
   94CHL1  H16B 9385   6.796   5.498   7.942  0.9762  0.0602  0.1033
   94CHL1   C17 9386   6.815   5.712   7.861 -0.5628  0.2363 -0.0597
   94CHL1   H17 9387   6.918   5.686   7.827 -0.4928 -1.1720  1.1813
   94CHL1   C13 9388   6.749   5.753   7.730 -0.4607  0.2460 -0.3123
   94CHL1   C18 9389   6.612   5.820   7.774  0.6460  0.1426  0.0347
   94CHL1  H18A 9390   6.564   5.848   7.677  2.8066  1.0833 -0.8208
   94CHL1  H18B 9391   6.547   5.754   7.836 -0.0362 -0.1570 -0.9687
   94CHL1  H18C 9392   6.633   5.916   7.827 -0.6265 -0.4744  1.7623
   94CHL1   C12 9393   6.833   5.844   7.636  0.5709  0.2217  0.2463
   94CHL1  H12A 9394   6.844   5.948   7.673  0.4507 -0.7900  3.3780
   94CHL1  H12B 9395   6.929   5.789   7.621  0.2098 -0.0796 -1.1781
   94CHL1   C11 9396   6.763   5.851   7.498  0.3405 -0.3246  0.1900
   94CHL1  H11A 9397   6.682   5.925   7.514 -0.7736 -1.2977 -0.7061
   94CHL1  H11B 9398   6.837   5.892   7.426 -1.5675 -0.4910 -1.9969
   94CHL1    C9 9399   6.709   5.721   7.426  0.2482  0.3608  0.0679
   94CHL1    H9 9400   6.794   5.652   7.405  0.4163  0.1251  1.3881
   94CHL1   C10 9401   6.637   5.737   7.289  0.4514 -0.1278  0.6534
   94CHL1   C19 9402   6.530   5.846   7.311  0.0231 -0.4588  0.5285
   94CHL1  H19A 9403   6.578   5.942   7.339 -0.0067 -0.4901  0.6923
   94CHL1  H19B 9404   6.480   5.869   7.214  0.0796  1.6257  0.9334
   94CHL1  H19C 9405   6.452   5.813   7.383  0.1106  0.2312  0.9523
   94CHL1    C1 9406   6.738   5.791   7.185 -0.8555 -0.1725 -0.9495
   94CHL1   H1A 9407   6.757   5.896   7.216 -0.2239 -0.8209  1.0202
   94CHL1   H1B 9408   6.836   5.742   7.203  0.0960  2.5761  2.4272
   94CHL1    C2 9409   6.695   5.779   7.043  0.2997  0.5566  0.3273
   94CHL1   H2A 9410   6.781   5.796   6.974  1.3374  1.4621  1.7803
   94CHL1   H2B 9411   6.631   5.864   7.014 -1.0833 -0.7740 -0.7204
   94CHL1   C20 9412   6.823   5.811   7.982  0.0288 -0.2787  0.0347
   94CHL1   H20 9413   6.723   5.851   8.010  0.0942  2.6959 -3.3184
   94CHL1   C21 9414   6.913   5.928   7.955 -0.5734  0.0708 -0.2097
   94CHL1  H21A 9415   6.921   6.002   8.038 -1.4208  0.2941 -0.3122
   94CHL1  H21B 9416   6.879   5.989   7.868  0.8146  1.9769  0.5073
   94CHL1  H21C 9417   7.014   5.901   7.918  0.0336 -0.4248  1.7143
   94CHL1   C22 9418   6.874   5.732   8.110 -0.6430  0.2738 -0.4576
   94CHL1  H22A 9419   6.800   5.661   8.153 -0.1125 -0.0195 -0.0056
   94CHL1  H22B 9420   6.967   5.675   8.088  0.5222  1.0780  1.9782
   94CHL1   C23 9421   6.932   5.820   8.223 -0.5313  0.8778 -0.3175
   94CHL1  H23A 9422   7.026   5.872   8.192 -1.5712  1.6957 -2.2661
   94CHL1  H23B 9423   6.857   5.901   8.230 -2.5268 -0.7686 -1.4722
   94CHL1   C24 9424   6.954   5.746   8.352 -0.4612  0.5904 -0.1322
   94CHL1  H24A 9425   6.866   5.678   8.361  0.0547 -0.3686 -1.9595
   94CHL1  H24B 9426   7.035   5.678   8.321 -0.7269  0.5878 -0.8351
   94CHL1   C25 9427   6.999   5.826   8.480  0.0721  0.3715  0.1676
   94CHL1   H25 9428   6.913   5.892   8.507 -0.6939 -1.5554  2.9305
   94CHL1   C26 9429   7.005   5.731   8.597 -0.4149 -0.1233 -0.5149
   94CHL1  H26A 9430   6.927   5.652   8.607 -0.3704 -0.3746 -2.0039
   94CHL1  H26B 9431   7.101   5.678   8.582  0.0879  0.4515  0.5635
   94CHL1  H26C 9432   6.997   5.806   8.680 -0.5140  2.1433 -2.4624
   94CHL1   C27 9433   7.128   5.903   8.458 -0.5399  0.0807 -0.1991
   94CHL1  H27A 9434   7.094   5.989   8.395 -1.0578  0.2239  0.2786
   94CHL1  H27B 9435   7.175   5.937   8.553  3.0582 -1.9547 -1.0608
   94CHL1  H27C 9436   7.204   5.846   8.401  0.2569  2.6719 -1.9336
   95CHL1    C3 9437   0.761   4.604   6.563  0.1594 -0.1664 -0.0416
   95CHL1    H3 9438   0.806   4.706   6.571 -0.6920  0.3293 -1.3100
   95CHL1    O3 9439   0.730   4.562   6.432  0.8231  0.1476 -0.3093
   95CHL1   H3' 9440   0.738   4.466   6.431  0.2128  0.0608 -2.3596
   95CHL1    C4 9441   0.855   4.497   6.616  0.4040 -1.0126  0.1733
   95CHL1   H4A 9442   0.792   4.406   6.614 -1.4871  0.2068  1.6808
   95CHL1   H4B 9443   0.946   4.484   6.552 -0.3564  3.0915 -2.0759
   95CHL1    C5 9444   0.891   4.522   6.760 -0.2817  1.1283 -0.1638
   95CHL1    C6 9445   1.020   4.516   6.799 -0.6302  0.7330 -0.1997
   95CHL1    H6 9446   1.101   4.518   6.724  0.5932  3.9039  1.0467
   95CHL1    C7 9447   1.066   4.521   6.947  0.0390  0.7032  0.4821
   95CHL1   H7A 9448   1.146   4.444   6.956 -0.7133 -0.2574 -0.7294
   95CHL1   H7B 9449   1.112   4.617   6.976  2.2157 -0.4283  1.0435
   95CHL1    C8 9450   0.944   4.498   7.046 -0.1737  0.5918  0.3826
   95CHL1    H8 9451   0.920   4.390   7.046  1.6563  0.1550 -0.1572
   95CHL1   C14 9452   0.978   4.558   7.180  0.7108  0.0281 -0.7874
   95CHL1   H14 9453   0.987   4.667   7.163  3.2496  0.1782  0.9180
   95CHL1   C15 9454   1.115   4.534   7.240  0.3951  0.3766 -0.3678
   95CHL1  H15A 9455   1.146   4.430   7.219 -1.9719 -0.8565  1.7226
   95CHL1  H15B 9456   1.194   4.591   7.186  0.7203  0.6850  0.4141
   95CHL1   C16 9457   1.103   4.573   7.378 -0.3312  0.2260 -0.1248
   95CHL1  H16A 9458   1.142   4.490   7.440  0.2504  0.8691  0.3973
   95CHL1  H16B 9459   1.162   4.663   7.407 -1.0077  0.6528 -0.0413
   95CHL1   C17 9460   0.955   4.604   7.404  0.2763 -0.3488 -0.0245
   95CHL1   H17 9461   0.952   4.714   7.388  0.8215 -0.6311 -2.5983
   95CHL1   C13 9462   0.877   4.535   7.292 -0.4508 -0.3591 -0.1077
   95CHL1   C18 9463   0.864   4.389   7.318 -0.1938  0.2888 -0.3719
   95CHL1  H18A 9464   0.956   4.335   7.349 -1.5001 -2.0630 -0.4037
   95CHL1  H18B 9465   0.794   4.381   7.404  1.1593 -2.9159  0.5707
   95CHL1  H18C 9466   0.815   4.339   7.232 -1.5654  0.8781  0.0340
   95CHL1   C12 9467   0.750   4.613   7.252  0.4123  0.4073  0.9177
   95CHL1  H12A 9468   0.656   4.590   7.307 -0.8174  1.7881 -0.5069
   95CHL1  H12B 9469   0.768   4.722   7.260 -0.3663  0.6907 -0.8471
   95CHL1   C11 9470   0.707   4.578   7.108  0.1970 -0.4181 -1.0880
   95CHL1  H11A 9471   0.681   4.470   7.111  1.0840 -0.6310 -0.7659
   95CHL1  H11B 9472   0.616   4.633   7.075  0.3346  0.9042  0.5672
   95CHL1    C9 9473   0.819   4.581   7.002  0.2343 -0.3859  0.9542
   95CHL1    H9 9474   0.855   4.685   6.986 -0.6037 -0.4690 -1.9287
   95CHL1   C10 9475   0.765   4.530   6.856 -0.1289  0.0493  0.1190
   95CHL1   C19 9476   0.699   4.390   6.868 -0.1033 -0.2442  0.0218
   95CHL1  H19A 9477   0.666   4.342   6.774  0.3294 -4.3787  1.7700
   95CHL1  H19B 9478   0.776   4.325   6.913  1.1427  0.5167 -0.9626
   95CHL1  H19C 9479   0.619   4.398   6.945  1.0791  0.3621  1.2173
   95CHL1    C1 9480   0.659   4.635   6.799 -0.4929  0.0320 -0.4161
   95CHL1   H1A 9481   0.568   4.623   6.863  1.2444 -1.4133  1.9599
   95CHL1   H1B 9482   0.698   4.736   6.825 -1.1481 -0.2198  1.7565
   95CHL1    C2 9483   0.633   4.601   6.653  0.2939 -0.1058  0.5516
   95CHL1   H2A 9484   0.567   4.679   6.609 -0.5390 -0.4645  1.1577
   95CHL1   H2B 9485   0.582   4.504   6.636  0.2092  0.1512 -0.7802
   95CHL1   C20 9486   0.912   4.568   7.547 -0.3239 -0.0299 -0.3237
   95CHL1   H20 9487   0.896   4.460   7.568 -0.1147 -0.1124 -0.5860
   95CHL1   C21 9488   0.768   4.631   7.576  0.0864  0.5252  0.1565
   95CHL1  H21A 9489   0.731   4.610   7.678 -1.3918 -0.2105 -0.5015
   95CHL1  H21B 9490   0.696   4.580   7.509 -1.1433  1.4339  0.7611
   95CHL1  H21C 9491   0.773   4.742   7.571  0.8173  0.4566 -1.6838
   95CHL1   C22 9492   1.012   4.624   7.650  0.0672 -0.2135 -0.1088
   95CHL1  H22A 9493   1.114   4.584   7.631 -0.5690 -0.9273 -2.3360
   95CHL1  H22B 9494   1.029   4.732   7.629  2.4067 -0.2909  1.0263
   95CHL1   C23 9495   0.975   4.607   7.804  0.0493 -0.0718  0.4101
   95CHL1  H23A 9496   0.868   4.630   7.825 -0.4864 -2.5847  0.7607
   95CHL1  H23B 9497   0.991   4.499   7.824  2.2129 -0.1422 -1.3079
   95CHL1   C24 9498   1.062   4.691   7.899  0.4409 -0.9620 -0.6293
   95CHL1  H24A 9499   1.167   4.665   7.874 -0.1236 -0.6637 -3.7145
   95CHL1  H24B 9500   1.042   4.800   7.889 -1.1119 -1.3018 -1.6533
   95CHL1   C25 9501   1.033   4.659   8.051 -0.1971 -0.9333 -0.4047
   95CHL1   H25 9502   1.053   4.552   8.070  3.1744  0.0357  2.8668
   95CHL1   C26 9503   1.114   4.744   8.153  0.6778  0.1295  0.0098
   95CHL1  H26A 9504   1.127   4.703   8.255  2.0291  1.0593  0.2355
   95CHL1  H26B 9505   1.218   4.757   8.115  0.5641 -1.1798 -0.8150
   95CHL1  H26C 9506   1.073   4.847   8.161  4.1430  1.5504  1.2960
   95CHL1   C27 9507   0.888   4.683   8.086  0.5477  0.2890 -0.4534
   95CHL1  H27A 9508   0.866   4.676   8.195 -1.6399  0.0814 -0.8645
   95CHL1  H27B 9509   0.861   4.786   8.055 -0.8828 -0.2273 -0.9978
   95CHL1  H27C 9510   0.832   4.610   8.024  1.6696 -1.5567  0.6060
   96CHL1    C3 9511   6.691   4.957   6.688 -0.2296 -0.5113 -0.8589
   96CHL1    H3 9512   6.713   4.848   6.700  1.2741 -0.1202  0.3919
   96CHL1    O3 9513   6.660   4.973   6.558  0.7265  0.1623  0.0935
   96CHL1   H3' 9514   6.727   4.921   6.512 -0.5461 -0.3740 -1.2563
   96CHL1    C4 9515   6.570   4.992   6.771 -0.3120 -0.2207 -0.1894
   96CHL1   H4A 9516   6.550   5.100   6.755 -0.2031 -0.3523 -1.2471
   96CHL1   H4B 9517   6.480   4.936   6.739 -0.0698 -0.1223 -1.0713
   96CHL1    C5 9518   6.592   4.970   6.921  0.1226 -0.1718  0.0694
   96CHL1    C6 9519   6.525   4.872   6.985  0.5164  0.1676  0.2160
   96CHL1    H6 9520   6.449   4.812   6.933 -2.0132  2.1110  1.4351
   96CHL1    C7 9521   6.548   4.840   7.127  0.0623 -0.2828 -0.1070
   96CHL1   H7A 9522   6.458   4.841   7.191  0.2991  0.3576  0.2279
   96CHL1   H7B 9523   6.582   4.734   7.134 -0.0883 -0.4856 -1.9089
   96CHL1    C8 9524   6.637   4.946   7.201 -0.5209  0.0038  0.6440
   96CHL1    H8 9525   6.569   5.034   7.204  0.5195  0.8097  2.3450
   96CHL1   C14 9526   6.684   4.906   7.334  0.0139  0.0804  0.4017
   96CHL1   H14 9527   6.750   4.821   7.309  0.9698  1.4708 -2.2439
   96CHL1   C15 9528   6.582   4.850   7.432  0.4164  0.4039  0.4656
   96CHL1  H15A 9529   6.489   4.909   7.416  1.0937  1.8517  1.6464
   96CHL1  H15B 9530   6.558   4.742   7.422 -0.1032  0.2685  2.6269
   96CHL1   C16 9531   6.643   4.860   7.570 -1.0144  0.1379  0.6562
   96CHL1  H16A 9532   6.580   4.917   7.641 -0.9156  0.5965  0.3754
   96CHL1  H16B 9533   6.656   4.759   7.616  1.6457  0.1574  0.1204
   96CHL1   C17 9534   6.777   4.945   7.554 -0.4701 -0.1433 -0.1424
   96CHL1   H17 9535   6.845   4.861   7.528 -0.9123 -0.2304 -1.0634
   96CHL1   C13 9536   6.758   5.012   7.413 -0.1070 -0.4656  0.4000
   96CHL1   C18 9537   6.663   5.135   7.424  0.6780 -0.4565 -0.1764
   96CHL1  H18A 9538   6.585   5.131   7.504 -0.6566  1.1629 -1.3262
   96CHL1  H18B 9539   6.731   5.217   7.455  0.7483 -0.0902 -1.2711
   96CHL1  H18C 9540   6.625   5.175   7.328 -0.9599  2.8942  1.6939
   96CHL1   C12 9541   6.884   5.056   7.328  0.4709 -0.1591 -0.4142
   96CHL1  H12A 9542   6.934   5.135   7.388 -2.1777  0.2020  1.5145
   96CHL1  H12B 9543   6.957   4.972   7.334  0.0072 -0.4839  1.5737
   96CHL1   C11 9544   6.839   5.108   7.193  0.0039 -0.3073  0.2205
   96CHL1  H11A 9545   6.793   5.209   7.202  2.8939  1.1981 -0.4966
   96CHL1  H11B 9546   6.929   5.135   7.133  0.8416 -1.3964  0.9584
   96CHL1    C9 9547   6.756   5.002   7.117  0.7361  0.0614 -0.1092
   96CHL1    H9 9548   6.819   4.912   7.102  1.8661  0.9517 -0.8054
   96CHL1   C10 9549   6.707   5.056   6.982 -0.2234  1.0716 -0.5129
   96CHL1   C19 9550   6.664   5.201   6.986  0.1237 -0.1751  0.0209
   96CHL1  H19A 9551   6.757   5.261   7.001  1.8976 -2.6781 -0.2722
   96CHL1  H19B 9552   6.633   5.242   6.888  1.0183  1.5259  0.4211
   96CHL1  H19C 9553   6.601   5.227   7.074 -0.2404 -0.4357 -0.1594
   96CHL1    C1 9554   6.827   5.032   6.887  0.2506 -0.2784 -1.0075
   96CHL1   H1A 9555   6.917   5.090   6.917 -0.4935  0.1766  0.4205
   96CHL1   H1B 9556   6.854   4.924   6.893 -0.0532 -0.2908  0.9036
   96CHL1    C2 9557   6.799   5.049   6.732 -0.5839  0.0022 -0.1968
   96CHL1   H2A 9558   6.890   5.028   6.672 -0.6344  2.2161 -1.1348
   96CHL1   H2B 9559   6.769   5.154   6.713 -0.7051 -0.3216 -1.9339
   96CHL1   C20 9560   6.840   5.027   7.670 -0.5452  0.1003 -0.1736
   96CHL1   H20 9561   6.784   5.123   7.675 -1.6287 -0.5665  1.3382
   96CHL1   C21 9562   6.993   5.062   7.648  0.0202  0.3352  0.7711
   96CHL1  H21A 9563   7.037   5.121   7.732  0.8904  1.1809 -0.2545
   96CHL1  H21B 9564   7.013   5.126   7.560 -0.5286 -1.6159 -0.8403
   96CHL1  H21C 9565   7.053   4.970   7.631 -0.3167  0.3464 -0.5803
   96CHL1   C22 9566   6.826   4.967   7.811  0.4619 -0.3983 -0.0741
   96CHL1  H22A 9567   6.726   4.920   7.825  0.6591 -0.8750 -0.2259
   96CHL1  H22B 9568   6.900   4.884   7.822 -0.0350 -0.9382 -0.7008
   96CHL1   C23 9569   6.847   5.059   7.937  0.0358  0.1988 -0.6021
   96CHL1  H23A 9570   6.868   5.003   8.030 -0.4803  0.4221 -0.3484
   96CHL1  H23B 9571   6.935   5.124   7.919  1.1841 -0.6369  1.5703
   96CHL1   C24 9572   6.721   5.139   7.964 -0.6871  0.2240 -0.0248
   96CHL1  H24A 9573   6.703   5.188   7.865  0.3092  2.9967  1.0822
   96CHL1  H24B 9574   6.635   5.068   7.974 -0.9083  0.4950  0.0052
   96CHL1   C25 9575   6.727   5.239   8.078 -0.1759 -0.7343 -0.2649
   96CHL1   H25 9576   6.792   5.320   8.039 -2.2604  1.1091 -0.0456
   96CHL1   C26 9577   6.586   5.307   8.090 -0.4609  0.3675  0.1638
   96CHL1  H26A 9578   6.590   5.397   8.154 -0.7609  0.1701  0.4686
   96CHL1  H26B 9579   6.561   5.345   7.989 -0.4901 -2.3699 -0.9629
   96CHL1  H26C 9580   6.503   5.242   8.127 -0.0755 -0.3402 -0.1972
   96CHL1   C27 9581   6.774   5.174   8.211 -0.1523 -0.2858  0.0233
   96CHL1  H27A 9582   6.878   5.138   8.218  0.2727  0.6319 -1.2929
   96CHL1  H27B 9583   6.760   5.255   8.286 -1.7442 -0.4114 -0.1082
   96CHL1  H27C 9584   6.703   5.098   8.250 -0.9030  1.2339  1.8029
   97OSM      N 9585   3.234   4.182  11.339  0.8947  0.3806 -0.4112
   97OSM    C15 9586   3.305   4.180  11.475 -0.3251  0.4943 -0.5891
   97OSM   H15A 9587   3.331   4.279  11.507 -4.1947  0.9447  1.8449
   97OSM   H15B 9588   3.390   4.114  11.479 -1.6103 -1.1849  0.3917
   97OSM   H15C 9589   3.238   4.145  11.552  2.8290 -0.2477  2.0142
   97OSM    C14 9590   3.176   4.050  11.300 -0.0976 -0.0134  0.1145
   97OSM   H14A 9591   3.116   4.059  11.211 -1.3903  0.3650  0.9957
   97OSM   H14B 9592   3.125   4.003  11.383  0.4891 -2.0823 -0.6460
   97OSM   H14C 9593   3.257   3.984  11.275 -1.3415 -1.2240 -0.8463
   97OSM    C13 9594   3.109   4.268  11.357  0.4570 -0.0709  0.6804
   97OSM   H13A 9595   3.063   4.275  11.259  1.1679 -0.0295  0.3430
   97OSM   H13B 9596   3.137   4.370  11.378  1.8543 -0.3186  0.1507
   97OSM   H13C 9597   3.054   4.215  11.433  2.4071 -1.5282  1.1606
   97OSM    C12 9598   3.328   4.244  11.242  0.1696 -0.1389  0.2141
   97OSM   H12A 9599   3.423   4.195  11.238  0.7482  0.9101  0.6705
   97OSM   H12B 9600   3.349   4.347  11.268 -3.7648  0.4590  1.7717
   97OSM    C11 9601   3.272   4.248  11.097  0.1559 -0.2815 -0.4829
   97OSM   H11A 9602   3.236   4.148  11.067 -0.4791  0.5484 -2.7739
   97OSM   H11B 9603   3.351   4.273  11.022  0.2906  0.0145 -0.2435
   97OSM      P 9604   3.180   4.495  11.080  0.2535  0.1301 -0.2862
   97OSM    O13 9605   3.050   4.559  11.102 -0.1481  0.3165 -0.1489
   97OSM    O14 9606   3.285   4.542  11.172 -0.1898 -0.1096 -0.0535
   97OSM    O11 9607   3.217   4.532  10.935  0.2484 -0.0076 -0.5361
   97OSM    O12 9608   3.163   4.345  11.087  0.3219  0.3948 -0.1119
   97OSM    C1S 9609   3.189   4.444  10.822 -0.6325  0.2070  0.4478
   97OSM    H1S 9610   3.086   4.406  10.831 -0.0964 -0.9819  1.9879
   97OSM    H1T 9611   3.258   4.357  10.820  1.1611  1.3997  3.2144
   97OSM     NF 9612   3.110   4.457  10.581 -0.4230  0.0219 -0.0393
   97OSM    HNF 9613   3.145   4.384  10.523  0.0841 -1.1246  1.6279
   97OSM    C2S 9614   3.189   4.522  10.685 -0.0996  0.5921  0.2261
   97OSM    H2S 9615   3.146   4.618  10.721 -2.4776 -1.3852  3.1733
   97OSM    C3S 9616   3.334   4.549  10.642  0.6731  0.4297 -0.1670
   97OSM    H3S 9617   3.373   4.450  10.612 -0.0081  0.2116 -0.3577
   97OSM     O3 9618   3.418   4.591  10.744  0.3332 -0.2520  0.1253
   97OSM    HO3 9619   3.363   4.598  10.822  1.5672  0.6473  0.9543
   97OSM    C4S 9620   3.328   4.639  10.525 -0.5828  0.0188 -0.0881
   97OSM    H4S 9621   3.356   4.583  10.434 -0.1096 -0.1385  0.1498
   97OSM    C5S 9622   3.310   4.769  10.519 -0.1149 -0.0179 -0.1093
   97OSM    H5S 9623   3.309   4.822  10.615 -3.1014 -0.8966  0.4515
   97OSM    C6S 9624   3.306   4.846  10.390 -0.6204 -0.6217 -0.4508
   97OSM    H6S 9625   3.382   4.927  10.389 -0.0235 -1.1765 -0.7750
   97OSM    H6T 9626   3.203   4.881  10.367  0.9402  4.4433 -0.8633
   97OSM    C7S 9627   3.345   4.765  10.262  0.1035  0.0934 -0.1183
   97OSM    H7S 9628   3.268   4.689  10.239  0.2694  0.1889 -1.0108
   97OSM    H7T 9629   3.448   4.730  10.284  0.9162  2.3540  0.0092
   97OSM    C8S 9630   3.370   4.844  10.134 -0.3409 -0.1940  0.1058
   97OSM    H8S 9631   3.469   4.894  10.136  1.2974 -3.2081  1.4264
   97OSM    H8T 9632   3.293   4.923  10.119 -1.3983 -1.5671 -2.4105
   97OSM    C9S 9633   3.359   4.758  10.011  0.9101 -0.1905  0.7164
   97OSM    H9S 9634   3.255   4.722  10.022  0.8563  0.1501  1.3975
   97OSM    H9T 9635   3.414   4.662   9.999  0.2961 -0.4241 -0.3205
   97OSM   C10S 9636   3.388   4.842   9.885  0.0925  0.8490  0.4286
   97OSM   H10S 9637   3.486   4.894   9.896  0.8416 -0.4414  0.0018
   97OSM   H10T 9638   3.309   4.918   9.863  0.0263  0.2509 -1.6745
   97OSM   C11S 9639   3.403   4.744   9.768 -0.2597 -0.4756 -0.2831
   97OSM   H11S 9640   3.306   4.692   9.755 -2.1622  2.5171  0.7145
   97OSM   H11T 9641   3.489   4.675   9.781  0.6574  0.9720  2.0833
   97OSM   C12S 9642   3.427   4.819   9.627  0.2855 -0.3260 -0.3648
   97OSM   H12S 9643   3.506   4.894   9.652 -0.0040 -0.5467  1.3071
   97OSM   H12T 9644   3.333   4.873   9.605  0.7516 -0.0795 -1.8660
   97OSM   C13S 9645   3.469   4.727   9.512  0.7011 -0.1569 -0.1057
   97OSM   H13S 9646   3.397   4.643   9.500 -1.0297  0.8839  2.1436
   97OSM   H13T 9647   3.566   4.684   9.547  1.2668  1.6230  0.6570
   97OSM   C14S 9648   3.465   4.791   9.373 -0.1545  0.3315  0.1303
   97OSM   H14S 9649   3.516   4.889   9.384 -1.3834  0.9163  0.7948
   97OSM   H14T 9650   3.361   4.814   9.342 -0.4246 -1.5715 -0.4982
   97OSM   C15S 9651   3.544   4.704   9.271  0.2980  0.3636 -0.0042
   97OSM   H15S 9652   3.485   4.610   9.264 -0.1107  0.3799  2.4842
   97OSM   H15T 9653   3.646   4.681   9.309  0.1541  0.6785  0.5812
   97OSM   C16S 9654   3.560   4.776   9.130 -0.0123 -0.0621 -0.0093
   97OSM   H16S 9655   3.617   4.870   9.149 -1.1562  0.7923 -0.6440
   97OSM   H16T 9656   3.459   4.804   9.093  0.0786 -0.3803 -0.4984
   97OSM   C17S 9657   3.632   4.689   9.033  0.6398  0.0370 -0.1621
   97OSM   H17S 9658   3.581   4.591   9.024  0.0628  0.2212  0.8695
   97OSM   H17T 9659   3.737   4.672   9.065 -0.1366 -4.9894  0.4723
   97OSM   C18S 9660   3.628   4.756   8.895  0.2552  0.2261  1.1779
   97OSM   H18S 9661   3.711   4.829   8.887  0.4097 -0.0693 -0.0990
   97OSM   H18T 9662   3.534   4.814   8.879  0.6171  0.1224 -1.9604
   97OSM   H18U 9663   3.637   4.688   8.808 -0.3141 -0.8514  1.9320
   97OSM    C1F 9664   2.976   4.468  10.579 -0.1820  0.7277 -0.3981
   97OSM     OF 9665   2.906   4.519  10.670 -0.2700 -0.3907 -0.2111
   97OSM    C2F 9666   2.899   4.418  10.464  0.2192 -0.0674 -0.2694
   97OSM    H2F 9667   2.969   4.358  10.401  0.4749 -0.9573  0.8322
   97OSM    H2G 9668   2.868   4.507  10.405  1.1879  0.0272 -0.6608
   97OSM    C3F 9669   2.780   4.323  10.502 -0.2638  0.8262 -0.0143
   97OSM    H3F 9670   2.696   4.381  10.546 -0.1258 -0.8290  2.6561
   97OSM    H3G 9671   2.824   4.263  10.585 -0.1117  0.8959 -0.0436
   97OSM    C4F 9672   2.732   4.236  10.387 -0.1073  0.7292 -0.0911
   97OSM    H4F 9673   2.809   4.158  10.366  1.6198  1.9226  1.4895
   97OSM    H4G 9674   2.703   4.298  10.299  1.7196  0.7763 -0.7099
   97OSM    C5F 9675   2.603   4.160  10.415  0.3812  0.4196  0.2014
   97OSM    H5F 9676   2.520   4.233  10.422  0.7745  0.8182  0.8742
   97OSM    H5G 9677   2.609   4.110  10.514 -1.3394 -1.0753 -0.4056
   97OSM    C6F 9678   2.582   4.064  10.296 -0.0806  1.1384  0.2371
   97OSM    H6F 9679   2.672   4.004  10.270 -0.7951 -0.4964  1.3492
   97OSM    H6G 9680   2.561   4.125  10.206 -0.7418 -1.4293 -1.4764
   97OSM    C7F 9681   2.463   3.978  10.320 -0.0626  0.9446  0.0968
   97OSM    H7F 9682   2.377   4.047  10.332 -0.8491 -0.2263  1.5612
   97OSM    H7G 9683   2.482   3.925  10.415  1.1399 -0.2584 -0.7778
   97OSM    C8F 9684   2.429   3.890  10.198 -1.0524  1.0833 -0.5882
   97OSM    H8F 9685   2.431   3.959  10.111 -0.1117  1.6067 -0.1674
   97OSM    H8G 9686   2.327   3.847  10.212 -1.4096  1.6092 -1.5115
   97OSM    C9F 9687   2.522   3.769  10.180  0.2502  0.6180 -0.2190
   97OSM    H9F 9688   2.586   3.754  10.268 -0.4793  1.8273  0.5587
   97OSM   C10F 9689   2.552   3.700  10.072 -0.5530 -0.2345 -0.2622
   97OSM   H10F 9690   2.638   3.630  10.068  0.0021  0.4419 -0.3873
   97OSM   C11F 9691   2.494   3.714   9.932  0.4444  0.3102 -0.2303
   97OSM   H11F 9692   2.409   3.785   9.924 -0.3945 -0.6881 -0.3676
   97OSM   H11G 9693   2.466   3.612   9.898  1.3860  0.6501 -2.1130
   97OSM   C12F 9694   2.604   3.751   9.834  1.0801 -0.5320 -0.3670
   97OSM   H12F 9695   2.687   3.679   9.853  2.1882  1.3559  2.7118
   97OSM   H12G 9696   2.638   3.854   9.854 -0.8711  0.4054 -1.5820
   97OSM   C13F 9697   2.563   3.740   9.686  0.2659  0.4405 -0.0190
   97OSM   H13F 9698   2.510   3.834   9.662  3.0715  1.1165 -5.0747
   97OSM   H13G 9699   2.507   3.644   9.678 -0.8130  1.0248  0.4228
   97OSM   C14F 9700   2.681   3.744   9.594 -0.3106 -0.0217  0.4703
   97OSM   H14F 9701   2.731   3.645   9.581  0.4694  0.3885  0.2347
   97OSM   H14G 9702   2.756   3.819   9.628  0.3008  0.1005 -1.0377
   97OSM   C15F 9703   2.632   3.769   9.449  0.6251 -0.1342 -0.0639
   97OSM   H15F 9704   2.617   3.879   9.448  0.8767 -0.0942 -1.3117
   97OSM   H15G 9705   2.533   3.724   9.428  0.7978 -0.7535  0.4403
   97OSM   C16F 9706   2.747   3.744   9.350  0.4003  0.2287  0.2016
   97OSM   H16F 9707   2.761   3.634   9.340  1.0255  0.2435  0.8205
   97OSM   H16G 9708   2.839   3.801   9.377  0.7139  0.2013 -0.7717
   97OSM   C17F 9709   2.707   3.784   9.203 -0.0927  0.0969  0.2256
   97OSM   H17F 9710   2.706   3.896   9.206 -1.6050  0.0865  1.5965
   97OSM   H17G 9711   2.605   3.745   9.185 -0.9856  0.5350  3.7217
   97OSM   C18F 9712   2.801   3.759   9.093  0.3789  0.3985 -0.6263
   97OSM   H18F 9713   2.799   3.650   9.072 -0.8697  0.4169 -0.6742
   97OSM   H18G 9714   2.904   3.791   9.117  0.5721 -0.6156 -0.0701
   97OSM   H18H 9715   2.759   3.808   9.002 -1.9351  0.7298  0.5411
   98OSM      N 9716   3.070   3.407  11.257 -0.1075 -0.1508  0.0007
   98OSM    C15 9717   2.931   3.449  11.252  0.0667  0.3852  0.3350
   98OSM   H15A 9718   2.872   3.390  11.183 -0.3708 -0.4446  1.3828
   98OSM   H15B 9719   2.940   3.551  11.219  0.1691  0.4091  0.4328
   98OSM   H15C 9720   2.889   3.427  11.349 -1.5613  0.4992 -0.3106
   98OSM    C14 9721   3.091   3.281  11.345  0.2024 -0.4281  0.5441
   98OSM   H14A 9722   3.074   3.310  11.447 -2.2823 -0.3895  0.1773
   98OSM   H14B 9723   3.189   3.237  11.339 -0.3931 -1.6175 -1.9870
   98OSM   H14C 9724   3.022   3.200  11.326 -1.4151  1.2346 -1.1154
   98OSM    C13 9725   3.107   3.367  11.126 -0.3335 -0.5422 -0.1517
   98OSM   H13A 9726   3.046   3.298  11.070 -1.2032  0.9981 -1.1837
   98OSM   H13B 9727   3.206   3.324  11.117 -1.0086 -1.8077 -2.5551
   98OSM   H13C 9728   3.122   3.459  11.071  3.4505  0.5316  2.3002
   98OSM    C12 9729   3.160   3.526  11.308  0.2198  0.0873  0.0795
   98OSM   H12A 9730   3.263   3.491  11.304 -0.1464 -1.1346  0.7576
   98OSM   H12B 9731   3.129   3.540  11.410 -0.9051  0.1919 -0.2668
   98OSM    C11 9732   3.152   3.672  11.247  0.5361  0.3028 -0.4924
   98OSM   H11A 9733   3.197   3.663  11.146 -1.6044 -1.5352 -1.3656
   98OSM   H11B 9734   3.217   3.737  11.310  1.2363  2.3041 -3.1337
   98OSM      P 9735   2.949   3.792  11.128  0.3114 -0.1619 -0.2122
   98OSM    O13 9736   2.804   3.800  11.154  0.3194  0.5610  0.0581
   98OSM    O14 9737   3.018   3.913  11.090  0.1221 -0.2226  0.0564
   98OSM    O11 9738   2.969   3.690  11.001 -0.4003  0.9191  0.4505
   98OSM    O12 9739   3.022   3.717  11.250  0.2040 -0.3126  0.0660
   98OSM    C1S 9740   2.921   3.736  10.875 -0.2256 -0.2385  0.4912
   98OSM    H1S 9741   2.963   3.835  10.850 -1.0929 -0.5330 -2.6549
   98OSM    H1T 9742   2.810   3.742  10.876 -0.1990  0.2956  1.3822
   98OSM     NF 9743   2.932   3.736  10.638 -0.1946 -0.3762  0.1503
   98OSM    HNF 9744   2.837   3.731  10.609 -1.3181 -0.3643  3.3507
   98OSM    C2S 9745   2.958   3.647  10.750  0.1745  0.2220  0.5842
   98OSM    H2S 9746   3.065   3.621  10.754  0.6944  2.0557 -0.3994
   98OSM    C3S 9747   2.870   3.519  10.756 -0.1902 -0.7790 -0.6375
   98OSM    H3S 9748   2.764   3.551  10.756  0.6201  2.2724 -0.2373
   98OSM     O3 9749   2.909   3.444  10.872 -0.1998 -0.0102  0.0254
   98OSM    HO3 9750   2.965   3.492  10.933 -0.3862 -1.0655  1.0490
   98OSM    C4S 9751   2.891   3.431  10.639 -0.4221 -0.3970  0.0455
   98OSM    H4S 9752   2.991   3.387  10.640  0.3850  1.3361 -0.3693
   98OSM    C5S 9753   2.814   3.421  10.529  0.5833 -0.1864  0.3298
   98OSM    H5S 9754   2.731   3.493  10.532  3.2928  3.1946  0.7315
   98OSM    C6S 9755   2.843   3.338  10.403 -0.9902 -0.4718  0.8812
   98OSM    H6S 9756   2.760   3.264  10.400 -0.8446 -0.6731  1.5455
   98OSM    H6T 9757   2.930   3.269  10.404  1.0501  1.9606  1.2211
   98OSM    C7S 9758   2.840   3.432  10.277  0.0922 -0.2387 -0.3875
   98OSM    H7S 9759   2.914   3.514  10.288 -2.2559  1.6342  4.1413
   98OSM    H7T 9760   2.746   3.492  10.281  0.5141  0.3678  1.8285
   98OSM    C8S 9761   2.865   3.346  10.154 -0.3646  0.1681 -0.3579
   98OSM    H8S 9762   2.783   3.271  10.156  0.1877 -0.4889  2.7560
   98OSM    H8T 9763   2.959   3.287  10.160 -1.0504 -1.0591 -1.3607
   98OSM    C9S 9764   2.864   3.412  10.019 -0.5599  0.4579 -0.8948
   98OSM    H9S 9765   2.965   3.459  10.013 -0.6824  0.8828  0.1124
   98OSM    H9T 9766   2.785   3.491  10.017 -0.7416  0.4113  1.7187
   98OSM   C10S 9767   2.852   3.309   9.908  0.2998  1.0832 -0.1377
   98OSM   H10S 9768   2.781   3.228   9.934 -1.8236  1.8305 -3.1754
   98OSM   H10T 9769   2.948   3.253   9.915  0.9206  2.0267 -0.8577
   98OSM   C11S 9770   2.810   3.365   9.772  0.4077  0.9941 -0.2773
   98OSM   H11S 9771   2.890   3.427   9.726  2.1518 -0.4250  0.7080
   98OSM   H11T 9772   2.716   3.421   9.793 -0.1821 -0.4698  1.2258
   98OSM   C12S 9773   2.771   3.255   9.668  0.5686  0.7700 -0.0135
   98OSM   H12S 9774   2.692   3.192   9.713  1.0524 -0.0249 -0.2664
   98OSM   H12T 9775   2.851   3.184   9.639 -1.1572 -0.3620 -2.3979
   98OSM   C13S 9776   2.713   3.319   9.532 -0.2841 -0.3020 -0.4657
   98OSM   H13S 9777   2.801   3.361   9.478 -0.9193  0.5142 -0.8893
   98OSM   H13T 9778   2.643   3.401   9.561  1.0565  0.7447 -0.0716
   98OSM   C14S 9779   2.637   3.220   9.441 -0.5446 -0.3986  0.4318
   98OSM   H14S 9780   2.548   3.190   9.501 -0.3962  3.1838  2.7448
   98OSM   H14T 9781   2.700   3.129   9.427  0.5493  0.4375 -0.2526
   98OSM   C15S 9782   2.606   3.277   9.304  0.6658  0.5038  0.1561
   98OSM   H15S 9783   2.596   3.387   9.320 -0.0011  0.6377 -1.0536
   98OSM   H15T 9784   2.509   3.235   9.271  1.2734 -0.0349 -1.0065
   98OSM   C16S 9785   2.711   3.250   9.200 -0.2167 -0.3686  0.2538
   98OSM   H16S 9786   2.722   3.147   9.160 -2.8963 -0.1903 -1.1151
   98OSM   H16T 9787   2.808   3.274   9.249 -0.3123 -0.0946  0.3072
   98OSM   C17S 9788   2.698   3.355   9.092  0.2111 -0.0462 -0.2161
   98OSM   H17S 9789   2.765   3.339   9.004  0.6150  1.6580 -0.2514
   98OSM   H17T 9790   2.739   3.454   9.121  1.0918 -0.4852  0.0406
   98OSM   C18S 9791   2.556   3.375   9.038  0.3659 -0.3081  0.4734
   98OSM   H18S 9792   2.523   3.284   8.983 -1.0982  0.4296  0.0799
   98OSM   H18T 9793   2.547   3.459   8.967 -2.2071 -0.0060  1.0680
   98OSM   H18U 9794   2.484   3.386   9.122 -0.3610  1.9206 -0.3696
   98OSM    C1F 9795   3.003   3.839  10.600  0.2250 -0.6422 -0.1193
   98OSM     OF 9796   3.118   3.859  10.635 -0.5560  0.3408  0.0851
   98OSM    C2F 9797   2.935   3.947  10.521  0.2275 -0.3536  0.1144
   98OSM    H2F 9798   2.971   4.050  10.545  1.9097 -0.4852 -1.5774
   98OSM    H2G 9799   2.825   3.953  10.535 -0.2937 -2.2830 -2.3622
   98OSM    C3F 9800   2.967   3.935  10.370 -0.3757  0.5380 -0.1394
   98OSM    H3F 9801   3.078   3.945  10.373 -0.4200  1.3355 -0.6975
   98OSM    H3G 9802   2.936   4.017  10.302  0.9035  0.4940 -0.8183
   98OSM    C4F 9803   2.924   3.801  10.304  0.7274  0.5319 -0.4394
   98OSM    H4F 9804   2.822   3.781  10.344  1.3579  0.8317  1.4289
   98OSM    H4G 9805   2.995   3.729  10.350  1.0387  0.2553 -1.3399
   98OSM    C5F 9806   2.914   3.805  10.149 -1.1313  0.0749  0.3658
   98OSM    H5F 9807   2.854   3.892  10.115  0.4245  0.7659 -0.7430
   98OSM    H5G 9808   2.859   3.719  10.106  2.1021 -1.5993 -0.7758
   98OSM    C6F 9809   3.055   3.814  10.089 -0.1968  0.3771 -0.5624
   98OSM    H6F 9810   3.094   3.715  10.058 -2.3840  0.0903 -2.7393
   98OSM    H6G 9811   3.130   3.858  10.158 -0.1729 -0.8706  0.2382
   98OSM    C7F 9812   3.055   3.889   9.954 -0.1923 -0.4465  0.4778
   98OSM    H7F 9813   3.160   3.883   9.918 -0.1479 -1.2676  0.7209
   98OSM    H7G 9814   3.044   3.999   9.961  0.4886 -0.4727  2.5332
   98OSM    C8F 9815   2.964   3.830   9.844 -0.6234 -0.4409 -0.1183
   98OSM    H8F 9816   2.961   3.906   9.763  0.8535 -1.4189 -1.1365
   98OSM    H8G 9817   2.859   3.825   9.880 -0.7118  0.5922 -0.2052
   98OSM    C9F 9818   3.013   3.695   9.794 -0.2423  0.2505  0.5683
   98OSM    H9F 9819   3.004   3.606   9.859  0.4822  0.2736  0.7218
   98OSM   C10F 9820   3.057   3.669   9.671  0.1869  1.0580 -0.1130
   98OSM   H10F 9821   3.089   3.571   9.632  0.1300  0.2231  1.8034
   98OSM   C11F 9822   3.066   3.766   9.563 -0.0082 -0.6940  0.4637
   98OSM   H11F 9823   3.130   3.854   9.586 -2.4985  0.9306  1.6618
   98OSM   H11G 9824   2.963   3.806   9.548 -0.0461 -1.3382 -1.1599
   98OSM   C12F 9825   3.115   3.713   9.428  1.1951  0.3498 -0.1669
   98OSM   H12F 9826   3.045   3.636   9.389  1.0468  0.4235 -0.0476
   98OSM   H12G 9827   3.219   3.672   9.431  0.2675 -2.1003  2.0219
   98OSM   C13F 9828   3.131   3.819   9.315 -0.4126 -0.3789 -0.6600
   98OSM   H13F 9829   3.216   3.885   9.342  0.4221 -1.5665 -0.3097
   98OSM   H13G 9830   3.052   3.895   9.301  0.1348  0.3479  0.0908
   98OSM   C14F 9831   3.155   3.766   9.179 -0.1733 -0.1067 -0.6333
   98OSM   H14F 9832   3.077   3.695   9.146  0.4860 -1.1162 -0.0693
   98OSM   H14G 9833   3.253   3.714   9.172 -0.4081 -0.5747 -0.4651
   98OSM   C15F 9834   3.162   3.874   9.074 -0.4223 -0.4114 -0.4306
   98OSM   H15F 9835   3.249   3.940   9.096  0.5503 -1.6753 -0.3843
   98OSM   H15G 9836   3.071   3.938   9.075  0.8824  1.5443 -1.3077
   98OSM   C16F 9837   3.180   3.828   8.928  0.0022  0.6311  0.0242
   98OSM   H16F 9838   3.129   3.731   8.908  1.7820  0.0515 -2.2342
   98OSM   H16G 9839   3.285   3.803   8.901 -0.3859 -1.1105  0.0079
   98OSM   C17F 9840   3.140   3.935   8.825 -0.1989  0.4386  0.3745
   98OSM   H17F 9841   3.183   3.910   8.725 -1.2004 -0.9237  0.2658
   98OSM   H17G 9842   3.186   4.030   8.860 -0.1884 -0.2061  2.2183
   98OSM   C18F 9843   2.987   3.951   8.786  0.3116 -0.4434  0.3453
   98OSM   H18F 9844   2.972   4.032   8.712  0.3059 -2.5879 -2.1398
   98OSM   H18G 9845   2.930   3.983   8.876 -0.3864 -0.2455 -0.1640
   98OSM   H18H 9846   2.933   3.861   8.750 -2.4299  0.8052  1.1283
   99OSM      N 9847   4.308   3.862  11.441  0.1696  0.3513  0.4732
   99OSM    C15 9848   4.421   3.794  11.375 -0.1783 -0.3683 -0.4917
   99OSM   H15A 9849   4.466   3.734  11.453 -1.4411 -1.0447 -0.2573
   99OSM   H15B 9850   4.498   3.866  11.349 -1.2467  0.2756 -2.0150
   99OSM   H15C 9851   4.390   3.733  11.292 -2.1072 -1.1634  0.7578
   99OSM    C14 9852   4.208   3.753  11.481 -0.4994  0.0861  0.0668
   99OSM   H14A 9853   4.258   3.692  11.555  0.6745  0.2765 -0.5448
   99OSM   H14B 9854   4.188   3.681  11.404 -3.5632 -1.1691  1.8788
   99OSM   H14C 9855   4.115   3.796  11.515 -0.4245  1.4363 -1.3168
   99OSM    C13 9856   4.354   3.928  11.574  0.2430 -0.4091 -0.3958
   99OSM   H13A 9857   4.421   3.860  11.624 -1.5378 -1.2627  0.9309
   99OSM   H13B 9858   4.271   3.952  11.638  0.9173 -0.4640  0.5162
   99OSM   H13C 9859   4.412   4.018  11.554 -0.3593  0.0659 -0.0377
   99OSM    C12 9860   4.232   3.963  11.353 -0.0688 -0.2070 -0.1347
   99OSM   H12A 9861   4.149   4.008  11.405  1.0627 -0.0706  1.6194
   99OSM   H12B 9862   4.202   3.906  11.265  1.6011  0.2499 -1.0278
   99OSM    C11 9863   4.310   4.088  11.306 -0.9075 -0.1076  0.3523
   99OSM   H11A 9864   4.359   4.121  11.400  0.8950  1.8004 -1.1839
   99OSM   H11B 9865   4.237   4.164  11.270 -0.2562 -1.1149 -3.5542
   99OSM      P 9866   4.409   4.017  11.075  0.1432  0.4655  0.3216
   99OSM    O13 9867   4.543   3.983  11.033  0.3998 -0.1358  0.2384
   99OSM    O14 9868   4.305   3.913  11.044  0.3308 -0.0562 -0.4590
   99OSM    O11 9869   4.360   4.141  10.996  0.0952  0.2372 -0.4339
   99OSM    O12 9870   4.416   4.063  11.223 -0.4200  0.0744 -0.1839
   99OSM    C1S 9871   4.400   4.275  11.030 -0.4740  1.0436 -0.0563
   99OSM    H1S 9872   4.427   4.282  11.138 -4.6138  0.7050  1.1739
   99OSM    H1T 9873   4.313   4.342  11.013 -1.6197 -0.0680  1.1864
   99OSM     NF 9874   4.586   4.453  11.001  0.4793  0.2761 -0.0726
   99OSM    HNF 9875   4.586   4.541  10.955  2.9152  0.8939  0.9041
   99OSM    C2S 9876   4.521   4.335  10.941  0.4555 -1.1394 -1.3333
   99OSM    H2S 9877   4.607   4.266  10.945  2.5126  1.3303  0.6882
   99OSM    C3S 9878   4.486   4.363  10.784 -0.2652  0.0538  0.3880
   99OSM    H3S 9879   4.583   4.372  10.730 -0.2714 -3.7723 -0.6029
   99OSM     O3 9880   4.418   4.485  10.767  0.4347  0.1386 -0.6865
   99OSM    HO3 9881   4.430   4.523  10.854  1.2345  1.4032 -1.3188
   99OSM    C4S 9882   4.411   4.249  10.716 -0.4186 -0.0487 -0.6240
   99OSM    H4S 9883   4.317   4.216  10.763  0.4463  1.9872  2.8494
   99OSM    C5S 9884   4.477   4.170  10.629 -0.1090  0.2300 -0.3388
   99OSM    H5S 9885   4.583   4.199  10.619 -0.1648  0.9537  0.9544
   99OSM    C6S 9886   4.428   4.036  10.574 -0.7620 -0.2022  0.9304
   99OSM    H6S 9887   4.347   3.997  10.640 -1.8045  2.0364  1.0802
   99OSM    H6T 9888   4.509   3.961  10.566  0.7441  1.4855 -0.9786
   99OSM    C7S 9889   4.360   4.046  10.431  0.0019 -0.0551  0.4576
   99OSM    H7S 9890   4.281   4.123  10.438 -1.2353 -1.2758  0.4860
   99OSM    H7T 9891   4.309   3.947  10.430  0.3388 -0.2683  2.0043
   99OSM    C8S 9892   4.450   4.066  10.311  0.2580  0.0279 -0.1269
   99OSM    H8S 9893   4.544   4.009  10.324  0.9682  1.0947 -0.4406
   99OSM    H8T 9894   4.475   4.174  10.303 -0.1259  0.0959 -0.4018
   99OSM    C9S 9895   4.386   4.029  10.181  0.4885 -0.1757  0.4158
   99OSM    H9S 9896   4.299   4.096  10.162 -0.0951 -1.0959 -0.2071
   99OSM    H9T 9897   4.348   3.927  10.200  3.3246 -1.0822  1.7907
   99OSM   C10S 9898   4.480   4.030  10.057 -0.0605  0.9837 -0.4974
   99OSM   H10S 9899   4.416   4.013   9.968  0.1586  0.3419 -0.5397
   99OSM   H10T 9900   4.551   3.947  10.075 -0.7929  0.6071  0.7326
   99OSM   C11S 9901   4.548   4.163  10.026 -0.4466  0.0008  0.5789
   99OSM   H11S 9902   4.604   4.201  10.115  0.2394 -0.7543  0.4728
   99OSM   H11T 9903   4.466   4.237  10.007  1.2743  1.9384  0.3110
   99OSM   C12S 9904   4.643   4.160   9.907 -0.2029  0.9307 -0.2809
   99OSM   H12S 9905   4.726   4.107   9.958 -2.9571  0.7951  4.7165
   99OSM   H12T 9906   4.604   4.102   9.820  1.3853 -0.2610 -0.2332
   99OSM   C13S 9907   4.712   4.291   9.862 -0.1045  0.3825 -0.2885
   99OSM   H13S 9908   4.638   4.355   9.810 -0.7413  0.6448  0.9023
   99OSM   H13T 9909   4.785   4.272   9.780  2.1619  2.5204  1.0939
   99OSM   C14S 9910   4.794   4.357   9.979  0.6735 -0.1693 -0.1766
   99OSM   H14S 9911   4.882   4.298  10.013  1.3031  0.4477 -0.6913
   99OSM   H14T 9912   4.720   4.365  10.061 -2.3108 -0.0527 -2.6994
   99OSM   C15S 9913   4.848   4.504   9.951 -0.0921  0.6296  0.3631
   99OSM   H15S 9914   4.760   4.571   9.951 -2.3189 -2.1163  1.4095
   99OSM   H15T 9915   4.890   4.513   9.848 -0.8448  1.8442  0.1484
   99OSM   C16S 9916   4.937   4.549  10.064 -0.5681  0.1227  0.0658
   99OSM   H16S 9917   5.020   4.477  10.082 -1.1007 -0.8033 -0.9965
   99OSM   H16T 9918   4.881   4.534  10.159  0.7904  2.5358  1.3308
   99OSM   C17S 9919   4.979   4.695  10.055 -0.1882  0.8068 -0.1005
   99OSM   H17S 9920   4.892   4.763  10.046 -0.0322  0.9229 -0.8218
   99OSM   H17T 9921   5.047   4.715   9.970 -0.6984  0.9587 -0.4818
   99OSM   C18S 9922   5.061   4.730  10.178  0.1071  0.9022  0.2715
   99OSM   H18S 9923   5.078   4.840  10.187 -0.2231  0.8676  1.6010
   99OSM   H18T 9924   5.164   4.689  10.165 -0.6078 -0.9977  0.3373
   99OSM   H18U 9925   5.010   4.696  10.271  0.5686  1.0538  0.5871
   99OSM    C1F 9926   4.646   4.461  11.116  0.1767 -0.5987 -0.2236
   99OSM     OF 9927   4.633   4.374  11.200 -0.4903 -0.4249 -0.5058
   99OSM    C2F 9928   4.731   4.580  11.140  0.4780 -0.4017  0.0968
   99OSM    H2F 9929   4.681   4.667  11.189  1.8272  0.0973  0.6389
   99OSM    H2G 9930   4.764   4.605  11.037 -0.5597 -0.3883 -0.2458
   99OSM    C3F 9931   4.858   4.544  11.216 -0.7023  0.1430  0.1645
   99OSM    H3F 9932   4.884   4.645  11.255 -2.2976  1.4865 -2.0215
   99OSM    H3G 9933   4.840   4.478  11.304  0.3111 -0.8279 -0.3315
   99OSM    C4F 9934   4.973   4.480  11.143  0.2932 -0.8013 -0.2814
   99OSM    H4F 9935   5.019   4.546  11.066  0.2253 -1.4770 -0.9096
   99OSM    H4G 9936   4.937   4.386  11.096  3.7565 -0.1112 -4.9912
   99OSM    C5F 9937   5.087   4.421  11.237 -0.0984  0.4270  0.0069
   99OSM    H5F 9938   5.029   4.381  11.323  0.4129  1.1140  0.6779
   99OSM    H5G 9939   5.176   4.484  11.259  1.5732 -1.4311 -1.0342
   99OSM    C6F 9940   5.179   4.315  11.160  0.5187  0.0670 -0.0418
   99OSM    H6F 9941   5.104   4.239  11.129 -0.1526 -0.6326  2.9723
   99OSM    H6G 9942   5.261   4.268  11.218  1.3112  0.5087 -0.7985
   99OSM    C7F 9943   5.236   4.359  11.018 -0.5542 -0.2741 -0.2557
   99OSM    H7F 9944   5.314   4.429  11.054 -1.4165  0.0518  1.0458
   99OSM    H7G 9945   5.157   4.413  10.961  0.6441  0.1638 -1.5497
   99OSM    C8F 9946   5.308   4.249  10.934  0.8006  0.1210 -0.2099
   99OSM    H8F 9947   5.374   4.202  11.010 -0.0629 -0.7911  0.0065
   99OSM    H8G 9948   5.373   4.280  10.849  0.6298 -0.4752 -0.5681
   99OSM    C9F 9949   5.210   4.146  10.886  0.0321  0.0185 -0.3232
   99OSM    H9F 9950   5.222   4.046  10.930 -2.6911 -0.6572 -1.0016
   99OSM   C10F 9951   5.093   4.166  10.824 -0.2593  0.3000  0.5902
   99OSM   H10F 9952   5.041   4.077  10.787  0.0861  0.3592 -0.0403
   99OSM   C11F 9953   5.042   4.294  10.763 -0.1366  0.3286 -0.4794
   99OSM   H11F 9954   5.129   4.363  10.764  1.8421 -1.9515  1.9374
   99OSM   H11G 9955   4.969   4.333  10.837  1.0465  0.0943  0.8506
   99OSM   C12F 9956   4.956   4.296  10.636 -0.1761  0.1405 -0.1371
   99OSM   H12F 9957   4.905   4.393  10.619 -1.9493 -0.8905 -0.8925
   99OSM   H12G 9958   4.877   4.218  10.645  1.1051 -0.9739  3.7954
   99OSM   C13F 9959   5.030   4.258  10.496  0.3101 -0.4137  0.3627
   99OSM   H13F 9960   5.062   4.152  10.509  0.5129 -0.4794 -0.6327
   99OSM   H13G 9961   5.119   4.324  10.490 -2.1375  3.0400 -1.1655
   99OSM   C14F 9962   4.940   4.272  10.377 -0.2240  0.4138  0.1635
   99OSM   H14F 9963   5.002   4.230  10.295 -2.2143 -1.3950 -0.5237
   99OSM   H14G 9964   4.915   4.378  10.355  0.6070  0.4886 -0.4731
   99OSM   C15F 9965   4.819   4.177  10.383 -0.0239 -0.1617 -0.0285
   99OSM   H15F 9966   4.764   4.187  10.286  0.7143 -0.4193 -0.4800
   99OSM   H15G 9967   4.744   4.207  10.459 -0.4238  2.0571 -1.2065
   99OSM   C16F 9968   4.850   4.024  10.407  0.0320 -0.1717 -0.1609
   99OSM   H16F 9969   4.749   3.980  10.418 -0.0416  0.5043  2.6599
   99OSM   H16G 9970   4.896   4.010  10.507  2.0878 -0.3473 -1.0789
   99OSM   C17F 9971   4.932   3.964  10.297  0.2563  0.1696  0.1485
   99OSM   H17F 9972   4.956   3.859  10.324 -2.0084 -0.6666 -0.8939
   99OSM   H17G 9973   5.036   4.005  10.295  0.3574  0.0423  1.5288
   99OSM   C18F 9974   4.868   3.973  10.158 -0.5372  0.4638 -0.7783
   99OSM   H18F 9975   4.786   3.898  10.163  1.6983 -2.2509 -1.9449
   99OSM   H18G 9976   4.942   3.939  10.081 -1.1002 -1.1887 -0.6240
   99OSM   H18H 9977   4.833   4.077  10.138  2.3484  1.7786  0.3712
  100OSM      N 9978   0.482   4.992  11.139  0.0991  0.9534  0.0775
  100OSM    C15 9979   0.358   5.000  11.222  0.1739  0.4018  1.0443
  100OSM   H15A 9980   0.272   4.964  11.167  0.4110  1.9664 -0.4205
  100OSM   H15B 9981   0.332   5.098  11.258  0.6714  0.9963 -0.1647
  100OSM   H15C 9982   0.377   4.942  11.311  0.1758 -1.5274 -0.1500
  100OSM    C14 9983   0.592   5.024  11.235 -0.3508 -0.7997 -0.0386
  100OSM   H14A 9984   0.684   5.024  11.180 -1.1976 -2.9633 -1.5923
  100OSM   H14B 9985   0.602   4.955  11.318 -2.4810  0.6884  1.5726
  100OSM   H14C 9986   0.581   5.126  11.269  3.6239 -0.5622  1.0725
  100OSM    C13 9987   0.504   4.850  11.089 -0.0515 -0.0294  0.6017
  100OSM   H13A 9988   0.440   4.833  11.003 -0.0301 -0.3810  0.6529
  100OSM   H13B 9989   0.487   4.786  11.175  0.8528 -0.0028  0.8145
  100OSM   H13C 9990   0.607   4.838  11.060 -0.7889 -2.3093 -1.5044
  100OSM    C12 9991   0.483   5.087  11.021  0.1985 -0.1608  0.7398
  100OSM   H12A 9992   0.384   5.099  10.978  1.5505  0.8383 -2.3310
  100OSM   H12B 9993   0.543   5.041  10.944  0.4383  3.0425 -1.1562
  100OSM    C11 9994   0.530   5.227  11.036 -0.2620  0.2353  0.2066
  100OSM   H11A 9995   0.485   5.266  11.130  2.4690  1.6785  1.0299
  100OSM   H11B 9996   0.488   5.283  10.950 -0.4139 -1.2611 -0.7260
  100OSM      P 9997   0.745   5.380  11.039 -0.3815 -0.1882  0.6607
  100OSM    O13 9998   0.665   5.465  11.122  0.5104 -0.8388  0.0182
  100OSM    O14 9999   0.883   5.360  11.073  0.1281  0.0562  0.3954
  100OSM    O1110000   0.736   5.436  10.893 -0.0514 -0.0849  0.0457
  100OSM    O1210001   0.671   5.235  11.036 -0.3835 -0.5447 -0.1405
  100OSM    C1S10002   0.789   5.381  10.773  0.2095  0.0402 -0.1581
  100OSM    H1S10003   0.828   5.278  10.787 -0.7500 -0.6113 -1.8501
  100OSM    H1T10004   0.871   5.446  10.737 -0.7658  1.7806  0.6560
  100OSM     NF10005   0.710   5.274  10.562  0.1482 -0.7106 -0.1562
  100OSM    HNF10006   0.751   5.318  10.482  0.6864  1.2035  1.0994
  100OSM    C2S10007   0.667   5.369  10.665 -0.5348  0.1855 -0.4076
  100OSM    H2S10008   0.578   5.326  10.716 -0.2429 -1.3195 -1.1109
  100OSM    C3S10009   0.629   5.508  10.614 -0.2217 -0.1275  0.9252
  100OSM    H3S10010   0.716   5.552  10.561 -1.1058 -0.2626 -0.7058
  100OSM     O310011   0.608   5.605  10.717 -0.0562 -0.2341  0.1284
  100OSM    HO310012   0.648   5.564  10.794 -0.4285 -0.1182  0.3857
  100OSM    C4S10013   0.506   5.502  10.534 -0.5081 -0.9816  0.2600
  100OSM    H4S10014   0.417   5.464  10.587 -1.3405 -1.7298 -1.5716
  100OSM    C5S10015   0.492   5.542  10.403  0.0458  0.1042 -0.1777
  100OSM    H5S10016   0.571   5.593  10.345  0.2029  0.8645  0.6960
  100OSM    C6S10017   0.361   5.537  10.315 -0.2500 -0.8942 -0.0031
  100OSM    H6S10018   0.309   5.634  10.323  1.6742  0.5961 -3.6204
  100OSM    H6T10019   0.296   5.457  10.357 -0.7537 -0.6140 -0.2500
  100OSM    C7S10020   0.393   5.507  10.168 -0.2513 -0.0857  0.2169
  100OSM    H7S10021   0.440   5.591  10.113 -0.2519  0.1089  0.5124
  100OSM    H7T10022   0.295   5.501  10.117  0.0105  3.2642 -0.9105
  100OSM    C8S10023   0.464   5.377  10.132 -0.3699  0.0455  0.2819
  100OSM    H8S10024   0.418   5.300  10.198  0.1129  0.6355  1.3335
  100OSM    H8T10025   0.569   5.377  10.168  0.5800 -1.2363 -2.2256
  100OSM    C9S10026   0.471   5.334   9.982  0.6630 -0.0064 -0.1980
  100OSM    H9S10027   0.541   5.401   9.929  0.3696 -0.8516 -1.7113
  100OSM    H9T10028   0.371   5.344   9.934  0.8288  0.1763 -0.5071
  100OSM   C10S10029   0.515   5.185   9.976 -0.0480  0.5487 -0.2878
  100OSM   H10S10030   0.457   5.131  10.054  1.2144  1.6893  1.5005
  100OSM   H10T10031   0.622   5.184  10.006 -0.5581 -0.7899  1.6772
  100OSM   C11S10032   0.485   5.115   9.836 -0.2748  0.2478  0.4844
  100OSM   H11S10033   0.379   5.085   9.853 -0.4504  0.9639  0.7052
  100OSM   H11T10034   0.550   5.029   9.808 -0.8165 -0.1771  0.5039
  100OSM   C12S10035   0.481   5.219   9.721 -0.0314  0.8285 -0.5167
  100OSM   H12S10036   0.572   5.282   9.730  0.7400 -0.5852  3.9397
  100OSM   H12T10037   0.390   5.282   9.709  0.0135  0.7826 -1.1693
  100OSM   C13S10038   0.484   5.160   9.581  0.5113  0.6604 -0.1022
  100OSM   H13S10039   0.391   5.108   9.551  1.1160  0.1824 -1.1799
  100OSM   H13T10040   0.573   5.093   9.579  0.5315  0.6982 -0.4757
  100OSM   C14S10041   0.512   5.268   9.474  0.3851  0.0966 -0.0528
  100OSM   H14S10042   0.599   5.328   9.507 -0.3994  1.3660 -0.2305
  100OSM   H14T10043   0.434   5.347   9.473 -0.1858 -0.4272  0.8097
  100OSM   C15S10044   0.524   5.211   9.327  0.2078  0.3520 -0.4724
  100OSM   H15S10045   0.445   5.135   9.309  1.6482 -0.5506 -3.8240
  100OSM   H15T10046   0.618   5.155   9.303  1.8818  2.0304  1.7722
  100OSM   C16S10047   0.514   5.326   9.223 -0.7408  0.7241  0.3542
  100OSM   H16S10048   0.611   5.377   9.209 -0.7303  0.4194 -0.6892
  100OSM   H16T10049   0.435   5.396   9.261 -1.9854 -0.8301  0.7325
  100OSM   C17S10050   0.474   5.273   9.085  0.5417  0.0260  0.0241
  100OSM   H17S10051   0.534   5.183   9.062  1.8635  0.7608  0.4923
  100OSM   H17T10052   0.502   5.354   9.014 -0.8637  1.2520  0.7910
  100OSM   C18S10053   0.322   5.254   9.078 -0.7565 -0.5177 -0.1963
  100OSM   H18S10054   0.269   5.227   9.172  0.0307  0.2050  0.4575
  100OSM   H18T10055   0.287   5.187   8.996 -2.7656  0.3199 -0.0844
  100OSM   H18U10056   0.275   5.350   9.049 -1.4348 -0.7916 -0.0480
  100OSM    C1F10057   0.715   5.148  10.569 -0.1814 -0.1854  0.1993
  100OSM     OF10058   0.661   5.085  10.656  0.3671 -0.0721  0.1300
  100OSM    C2F10059   0.774   5.076  10.452 -0.1227 -0.8457  0.8933
  100OSM    H2F10060   0.885   5.075  10.459 -0.0730  1.2497  1.2359
  100OSM    H2G10061   0.742   5.117  10.354  0.3799  0.6876  1.3350
  100OSM    C3F10062   0.729   4.933  10.451  0.9308  0.4579  0.2416
  100OSM    H3F10063   0.618   4.920  10.450  1.1273 -1.5648 -0.1394
  100OSM    H3G10064   0.763   4.877  10.541 -3.1428 -1.6054  0.7384
  100OSM    C4F10065   0.780   4.858  10.328  0.0336  0.1320  0.3631
  100OSM    H4F10066   0.748   4.753  10.338  0.2445  0.1918  1.9481
  100OSM    H4G10067   0.891   4.853  10.336 -0.0849 -0.2807  2.2120
  100OSM    C5F10068   0.737   4.905  10.183  0.1722 -0.1960  0.0717
  100OSM    H5F10069   0.741   5.016  10.178 -3.7601  0.0086 -1.8899
  100OSM    H5G10070   0.631   4.875  10.170  0.5045 -0.4495 -2.3764
  100OSM    C6F10071   0.818   4.836  10.073  0.0822  0.4794 -0.4353
  100OSM    H6F10072   0.918   4.884  10.068 -1.2079  3.3974 -0.5316
  100OSM    H6G10073   0.786   4.862   9.970 -0.4526 -0.6773 -0.5696
  100OSM    C7F10074   0.839   4.686  10.098 -0.8078 -0.0952  0.1852
  100OSM    H7F10075   0.744   4.652  10.145  0.0929 -1.1351  1.3148
  100OSM    H7G10076   0.919   4.676  10.174  0.4328  0.8446 -0.9433
  100OSM    C8F10077   0.881   4.592   9.971  0.2340  0.0300 -0.0820
  100OSM    H8F10078   0.947   4.509  10.001  0.6564  0.2817 -0.3127
  100OSM    H8G10079   0.938   4.653   9.898  0.0360  0.5859  0.2133
  100OSM    C9F10080   0.761   4.531   9.903 -0.0376 -0.5582 -0.3768
  100OSM    H9F10081   0.666   4.527   9.958  1.7010  0.7292  2.9969
  100OSM   C10F10082   0.767   4.493   9.782 -0.3537 -0.4923  0.2418
  100OSM   H10F10083   0.672   4.458   9.739 -0.6446  0.6398 -0.0760
  100OSM   C11F10084   0.886   4.492   9.693  0.2424 -0.2412 -0.1836
  100OSM   H11F10085   0.966   4.435   9.744  1.4310  0.5240 -1.1018
  100OSM   H11G10086   0.915   4.597   9.670 -2.4451  1.7684  4.2868
  100OSM   C12F10087   0.860   4.422   9.556  0.4118 -0.5368 -0.6358
  100OSM   H12F10088   0.814   4.324   9.580  1.6694 -0.6081  1.9015
  100OSM   H12G10089   0.953   4.391   9.502 -0.4806 -0.1612 -2.4375
  100OSM   C13F10090   0.773   4.509   9.463 -0.3139 -0.0654 -0.0347
  100OSM   H13F10091   0.829   4.604   9.450  1.0742 -0.6320  1.4978
  100OSM   H13G10092   0.679   4.541   9.511 -1.8472 -1.1798 -2.1068
  100OSM   C14F10093   0.749   4.446   9.322  0.1352  0.2087 -0.0738
  100OSM   H14F10094   0.674   4.510   9.270  0.3773 -0.7014 -1.5839
  100OSM   H14G10095   0.702   4.348   9.345 -1.6954  0.6597 -1.5529
  100OSM   C15F10096   0.876   4.428   9.237 -0.5369 -0.4408 -0.2806
  100OSM   H15F10097   0.939   4.344   9.271 -1.8715 -1.8451 -1.1574
  100OSM   H15G10098   0.927   4.527   9.232 -1.1517 -0.1367 -0.7059
  100OSM   C16F10099   0.845   4.408   9.084  0.2859 -0.5260  0.2859
  100OSM   H16F10100   0.944   4.400   9.033  0.5404  0.2135  0.6342
  100OSM   H16G10101   0.799   4.506   9.058  0.3540 -0.9768 -1.6440
  100OSM   C17F10102   0.749   4.296   9.037  0.3746 -0.0855 -0.1869
  100OSM   H17F10103   0.651   4.304   9.087  1.0443 -1.0223  1.3402
  100OSM   H17G10104   0.791   4.198   9.068 -0.3776 -0.1667  0.6068
  100OSM   C18F10105   0.744   4.297   8.885  0.1665 -0.0798 -0.0123
  100OSM   H18F10106   0.692   4.203   8.856 -1.6150  1.0789 -0.8195
  100OSM   H18G10107   0.850   4.284   8.857  0.3240  0.1194  0.4784
  100OSM   H18H10108   0.692   4.384   8.839  1.2530  0.1871 -0.7671
  101OSM      N10109   4.205   5.294  11.194 -0.7704 -0.3211  0.4533
  101OSM    C1510110   4.209   5.215  11.067 -0.7019 -0.3497 -0.4855
  101OSM   H15A10111   4.255   5.269  10.986  0.9676 -2.5514 -1.1046
  101OSM   H15B10112   4.114   5.178  11.033 -1.1699  0.4821 -0.1116
  101OSM   H15C10113   4.278   5.132  11.071 -0.1766  0.0158 -1.6074
  101OSM    C1410114   4.085   5.375  11.208  0.1093  0.4802  0.0026
  101OSM   H14A10115   3.996   5.322  11.237  0.2380 -0.3550 -1.0637
  101OSM   H14B10116   4.064   5.410  11.108  0.6228 -0.1523 -0.3369
  101OSM   H14C10117   4.081   5.460  11.274  0.3002  0.6395 -0.1887
  101OSM    C1310118   4.217   5.201  11.305  0.3685  0.0611 -0.6592
  101OSM   H13A10119   4.300   5.132  11.296 -1.5336 -2.3408 -0.9209
  101OSM   H13B10120   4.128   5.140  11.315 -0.9706  2.2349  1.7492
  101OSM   H13C10121   4.238   5.254  11.397  2.2646 -0.7645 -0.5529
  101OSM    C1210122   4.324   5.391  11.201  0.1804 -0.1340  1.2547
  101OSM   H12A10123   4.335   5.422  11.304  1.4162 -2.1443  1.7930
  101OSM   H12B10124   4.309   5.469  11.128 -0.3209 -0.3719  1.0997
  101OSM    C1110125   4.459   5.321  11.175 -0.1838 -0.3139  0.3317
  101OSM   H11A10126   4.460   5.212  11.195 -0.3842 -0.5160 -0.7281
  101OSM   H11B10127   4.528   5.363  11.252  1.7904 -0.6377 -1.1984
  101OSM      P10128   4.557   5.485  10.999  0.3031 -0.1078  0.2238
  101OSM    O1310129   4.447   5.578  10.984 -0.0449  0.0834 -0.3569
  101OSM    O1410130   4.663   5.518  11.097 -0.0910 -0.2565 -0.2590
  101OSM    O1110131   4.614   5.461  10.856  0.3278  0.4312 -0.1119
  101OSM    O1210132   4.505   5.342  11.035  0.2201 -0.3516  0.7063
  101OSM    C1S10133   4.521   5.408  10.761  0.6456 -0.0315 -0.0712
  101OSM    H1S10134   4.435   5.474  10.736 -0.1566 -0.7779  0.6612
  101OSM    H1T10135   4.487   5.306  10.788  0.9015 -0.1246 -0.0991
  101OSM     NF10136   4.504   5.371  10.513  0.1064  0.3821  0.1441
  101OSM    HNF10137   4.509   5.281  10.470  3.5238 -0.0655  1.2004
  101OSM    C2S10138   4.591   5.393  10.622 -0.2659 -0.4588  0.1731
  101OSM    H2S10139   4.654   5.483  10.604  3.0365 -2.9058 -1.5877
  101OSM    C3S10140   4.686   5.266  10.635  0.3722  0.2554 -0.2465
  101OSM    H3S10141   4.623   5.178  10.660  2.0803 -0.8588  0.3163
  101OSM     O310142   4.775   5.275  10.744  0.0379 -0.2935  0.2337
  101OSM    HO310143   4.744   5.346  10.800 -0.9960  0.1250 -0.8190
  101OSM    C4S10144   4.769   5.245  10.519  0.2795 -0.2272 -0.6338
  101OSM    H4S10145   4.836   5.327  10.489 -0.7812  0.2999 -1.6529
  101OSM    C5S10146   4.779   5.133  10.447 -0.0795 -1.3242 -0.9838
  101OSM    H5S10147   4.736   5.041  10.491 -2.5818 -0.1765 -0.8131
  101OSM    C6S10148   4.865   5.120  10.329 -0.2183  0.4035 -0.1211
  101OSM    H6S10149   4.938   5.037  10.341  1.6741  1.7963 -1.4896
  101OSM    H6T10150   4.921   5.213  10.306 -1.3528  0.6172 -2.3354
  101OSM    C7S10151   4.800   5.085  10.198  0.2130  0.7697  0.2431
  101OSM    H7S10152   4.718   5.157  10.178  0.9227  1.7681  0.8372
  101OSM    H7T10153   4.760   4.982  10.208  1.8555 -0.1036 -1.5934
  101OSM    C8S10154   4.894   5.098  10.080 -0.1183  1.2853  0.0825
  101OSM    H8S10155   4.948   5.002  10.071 -1.2046  0.8584 -2.4889
  101OSM    H8T10156   4.962   5.185  10.100  0.9292  0.5825 -0.3442
  101OSM    C9S10157   4.803   5.109   9.947  0.4795 -0.8976 -0.4313
  101OSM    H9S10158   4.748   5.205   9.943  1.4342 -0.2481  0.8629
  101OSM    H9T10159   4.732   5.024   9.952  0.6833 -0.9998  2.3380
  101OSM   C10S10160   4.890   5.109   9.821 -0.6675  0.2371  0.4231
  101OSM   H10S10161   4.948   5.202   9.837 -1.4900  1.0257 -0.9888
  101OSM   H10T10162   4.817   5.109   9.737 -2.5870  0.0039  2.0151
  101OSM   C11S10163   4.986   4.990   9.810  0.3126  0.5360 -0.0181
  101OSM   H11S10164   4.927   4.902   9.844 -0.1625  0.2453 -1.5286
  101OSM   H11T10165   5.070   5.000   9.883  0.6273 -0.5840 -0.1919
  101OSM   C12S10166   5.023   4.956   9.668 -0.5671  0.4524  0.5068
  101OSM   H12S10167   4.928   4.955   9.611  0.1179  1.4488 -0.6735
  101OSM   H12T10168   5.075   4.858   9.661 -0.4704  0.3828  1.8195
  101OSM   C13S10169   5.105   5.064   9.612  0.1709 -0.4378  0.4057
  101OSM   H13S10170   5.186   5.071   9.688  0.3647 -1.2530  0.2835
  101OSM   H13T10171   5.048   5.159   9.601  0.7213 -0.3375 -2.1159
  101OSM   C14S10172   5.181   5.035   9.477  0.8797  0.2645  0.6059
  101OSM   H14S10173   5.262   4.960   9.494 -0.4148 -1.9119 -2.1734
  101OSM   H14T10174   5.230   5.132   9.457  3.8715 -1.3053 -0.3477
  101OSM   C15S10175   5.093   4.964   9.369 -0.1035 -0.2027 -0.3921
  101OSM   H15S10176   5.019   5.041   9.339  2.6762  2.6672 -0.3324
  101OSM   H15T10177   5.037   4.877   9.409  0.7899 -0.3186  0.6526
  101OSM   C16S10178   5.167   4.926   9.240 -0.6912 -0.1511  0.2566
  101OSM   H16S10179   5.229   5.009   9.202 -1.8323 -0.1674 -1.7309
  101OSM   H16T10180   5.092   4.913   9.160 -2.2001  3.2967  0.9517
  101OSM   C17S10181   5.246   4.796   9.250  0.1864 -0.0258  0.1992
  101OSM   H17S10182   5.174   4.712   9.264 -0.6516  0.8267  1.2817
  101OSM   H17T10183   5.318   4.789   9.334 -0.1270 -0.8945  0.4134
  101OSM   C18S10184   5.332   4.770   9.133  0.3991  0.1905 -0.0693
  101OSM   H18S10185   5.393   4.860   9.111  0.9725  0.1246  1.1621
  101OSM   H18T10186   5.259   4.752   9.052  1.3859 -0.6964 -0.7870
  101OSM   H18U10187   5.391   4.676   9.142 -2.0096 -1.2778  1.3338
  101OSM    C1F10188   4.415   5.461  10.473  0.3317 -0.4371 -0.1704
  101OSM     OF10189   4.414   5.572  10.521 -0.1352 -0.2155 -0.4272
  101OSM    C2F10190   4.309   5.416  10.370 -0.4281 -0.2108  0.0721
  101OSM    H2F10191   4.221   5.371  10.421 -0.3364 -0.0735  0.3492
  101OSM    H2G10192   4.355   5.340  10.303  1.6410  1.7018 -0.8031
  101OSM    C3F10193   4.249   5.523  10.276  0.4001 -0.2478  0.5783
  101OSM    H3F10194   4.320   5.562  10.199 -0.0059  0.2152  0.4280
  101OSM    H3G10195   4.237   5.622  10.325 -3.8578  0.2637 -1.0866
  101OSM    C4F10196   4.114   5.496  10.212 -0.0877 -0.1319  0.3583
  101OSM    H4F10197   4.080   5.589  10.163  0.7841  0.2661  0.4923
  101OSM    H4G10198   4.041   5.470  10.291  0.6519  0.7545  1.3579
  101OSM    C5F10199   4.121   5.382  10.103 -0.3546  0.2090  0.0124
  101OSM    H5F10200   4.015   5.352  10.084  0.0586  0.2075 -2.7357
  101OSM    H5G10201   4.180   5.301  10.150 -0.2002 -1.6742 -3.1238
  101OSM    C6F10202   4.208   5.414   9.978 -0.6044  0.1111 -0.1070
  101OSM    H6F10203   4.302   5.463  10.011 -1.3450  0.9217  0.8769
  101OSM    H6G10204   4.227   5.318   9.926 -0.6252  0.2722 -0.4152
  101OSM    C7F10205   4.144   5.515   9.879  0.3730  0.7995  0.0925
  101OSM    H7F10206   4.126   5.616   9.921 -0.4627 -0.2511  2.4468
  101OSM    H7G10207   4.046   5.478   9.840 -0.1566  0.2273  1.8808
  101OSM    C8F10208   4.222   5.527   9.749  0.3140  0.3846 -0.0963
  101OSM    H8F10209   4.325   5.558   9.778 -0.5606  2.9381  0.4785
  101OSM    H8G10210   4.177   5.621   9.711 -0.9556  1.2427  3.1826
  101OSM    C9F10211   4.223   5.398   9.660 -0.0849 -0.8458 -0.3169
  101OSM    H9F10212   4.244   5.305   9.714 -1.8377 -0.1385  1.6972
  101OSM   C10F10213   4.192   5.377   9.534 -0.5985 -0.0127  0.4439
  101OSM   H10F10214   4.219   5.282   9.487  0.6162  0.2648  0.5576
  101OSM   C11F10215   4.143   5.487   9.438 -0.5170 -0.0298  0.1208
  101OSM   H11F10216   4.170   5.587   9.480  1.6395  1.6180 -4.5489
  101OSM   H11G10217   4.033   5.482   9.429 -0.4746  0.1815 -0.5793
  101OSM   C12F10218   4.205   5.482   9.293  0.2545  0.0073  0.2379
  101OSM   H12F10219   4.314   5.461   9.300  0.2750  0.6005  3.3391
  101OSM   H12G10220   4.196   5.585   9.255 -0.8258  0.0376  0.5529
  101OSM   C13F10221   4.152   5.390   9.184  0.0945 -0.1878 -0.2572
  101OSM   H13F10222   4.044   5.405   9.162 -0.2451  0.1531  1.4514
  101OSM   H13G10223   4.161   5.285   9.219 -0.4944 -0.1458  0.0290
  101OSM   C14F10224   4.224   5.395   9.047 -0.2723  0.7304  0.0741
  101OSM   H14F10225   4.179   5.324   8.975  0.1179 -0.0008  0.5373
  101OSM   H14G10226   4.331   5.369   9.063 -0.2400  0.9707  0.2728
  101OSM   C15F10227   4.229   5.535   8.979  0.0338  0.0044 -0.6440
  101OSM   H15F10228   4.269   5.607   9.055  1.1796 -1.3473  0.0749
  101OSM   H15G10229   4.124   5.562   8.957 -0.7190 -1.0267  1.3619
  101OSM   C16F10230   4.307   5.542   8.844 -0.3854 -0.0638 -0.3021
  101OSM   H16F10231   4.278   5.461   8.774 -0.2701  0.2236 -0.6878
  101OSM   H16G10232   4.412   5.529   8.880 -1.2675 -2.2050  1.7715
  101OSM   C17F10233   4.304   5.685   8.786  0.0204 -0.4985 -0.3166
  101OSM   H17F10234   4.279   5.759   8.865  0.6867 -1.0529  0.4376
  101OSM   H17G10235   4.222   5.691   8.711 -0.0866  0.8113 -0.1048
  101OSM   C18F10236   4.438   5.738   8.726 -0.0477  0.3314 -0.3991
  101OSM   H18F10237   4.455   5.672   8.639  0.2425 -0.1578  0.0238
  101OSM   H18G10238   4.515   5.715   8.803 -1.9896 -2.6814  0.7937
  101OSM   H18H10239   4.434   5.847   8.705  1.2076  0.6900  0.9760
  102OSM      N10240   5.434   0.676  10.778  0.7033 -0.7127 -0.8034
  102OSM    C1510241   5.460   0.748  10.904 -1.0100 -0.4599 -0.1448
  102OSM   H15A10242   5.525   0.830  10.883  0.3765 -1.4616  0.0943
  102OSM   H15B10243   5.498   0.682  10.981 -0.5656  0.0811  0.1037
  102OSM   H15C10244   5.369   0.803  10.927 -0.8362 -0.5387  0.7810
  102OSM    C1410245   5.338   0.559  10.807 -0.3572 -0.4927  0.1300
  102OSM   H14A10246   5.330   0.507  10.712  1.4969 -0.3308 -0.1584
  102OSM   H14B10247   5.250   0.594  10.859  1.0585  1.4377  1.3639
  102OSM   H14C10248   5.390   0.492  10.875  0.3289  0.2523  0.3524
  102OSM    C1310249   5.355   0.776  10.687  0.7187  0.7232 -0.4135
  102OSM   H13A10250   5.253   0.794  10.718 -0.5911 -2.9546 -1.9788
  102OSM   H13B10251   5.348   0.746  10.584  0.2066 -0.6942  0.0063
  102OSM   H13C10252   5.410   0.868  10.680  3.5198 -0.8585 -0.8591
  102OSM    C1210253   5.560   0.623  10.709  0.2187 -0.2404  0.2889
  102OSM   H12A10254   5.606   0.553  10.778  1.1533  1.7054  1.7343
  102OSM   H12B10255   5.639   0.697  10.702  0.6163 -0.6575  0.3130
  102OSM    C1110256   5.533   0.551  10.573 -0.8646  0.4432 -0.5389
  102OSM   H11A10257   5.628   0.525  10.522 -0.5984 -1.0282  0.6329
  102OSM   H11B10258   5.474   0.624  10.513 -1.6229  0.1745 -0.1384
  102OSM      P10259   5.521   0.298  10.622 -0.1420  0.3767  0.0993
  102OSM    O1310260   5.635   0.312  10.716 -0.5518  0.3625  0.0020
  102OSM    O1410261   5.418   0.198  10.666 -0.5021 -0.2960  0.1625
  102OSM    O1110262   5.579   0.245  10.485 -0.1515  0.5259  0.0554
  102OSM    O1210263   5.448   0.435  10.583 -0.1240  0.1444 -0.4145
  102OSM    C1S10264   5.483   0.253  10.369 -0.5780 -0.0993 -0.3208
  102OSM    H1S10265   5.390   0.307  10.397 -1.4500 -1.9851  0.5939
  102OSM    H1T10266   5.449   0.149  10.349 -3.4262  0.8482 -0.8378
  102OSM     NF10267   5.456   0.329  10.135 -0.3016 -0.2321  0.4763
  102OSM    HNF10268   5.491   0.283  10.054 -1.2520 -1.0267  0.4900
  102OSM    C2S10269   5.550   0.319  10.246  0.7389  0.2614 -0.5160
  102OSM    H2S10270   5.578   0.419  10.286 -2.6975  1.1565 -0.0191
  102OSM    C3S10271   5.676   0.245  10.203  0.4401  0.1011 -0.2730
  102OSM    H3S10272   5.655   0.139  10.174 -0.2497  0.0545  0.4022
  102OSM     O310273   5.771   0.225  10.305 -0.7613 -0.8899  0.5315
  102OSM    HO310274   5.722   0.261  10.380  1.3597  2.4797  0.5345
  102OSM    C4S10275   5.742   0.299  10.074 -0.8560 -0.6161 -0.7731
  102OSM    H4S10276   5.703   0.243   9.988 -1.0034 -1.9421  0.1266
  102OSM    C5S10277   5.833   0.399  10.073 -0.5685 -0.3316 -0.2703
  102OSM    H5S10278   5.879   0.442  10.163 -1.3521 -0.7900  0.3642
  102OSM    C6S10279   5.896   0.458   9.950 -0.5174  0.2672 -0.2146
  102OSM    H6S10280   5.998   0.414   9.944 -0.4092  0.5514 -0.4547
  102OSM    H6T10281   5.918   0.564   9.973  0.9308  0.3390 -1.7166
  102OSM    C7S10282   5.830   0.436   9.810 -0.6042 -0.4697 -0.4600
  102OSM    H7S10283   5.732   0.487   9.811 -0.4505 -0.0729 -2.0082
  102OSM    H7T10284   5.822   0.327   9.792 -2.0888 -0.7517  1.5592
  102OSM    C8S10285   5.909   0.506   9.693  0.1637  1.0729  0.6857
  102OSM    H8S10286   6.006   0.451   9.690 -0.5224 -0.1705  0.8818
  102OSM    H8T10287   5.924   0.614   9.714  0.6953  0.8424  1.5365
  102OSM    C9S10288   5.834   0.503   9.559  0.4393 -0.4322 -0.8794
  102OSM    H9S10289   5.724   0.506   9.574  0.4067  1.3202 -1.2929
  102OSM    H9T10290   5.836   0.401   9.514  1.3863 -0.3337 -1.0888
  102OSM   C10S10291   5.887   0.607   9.464  0.5332 -0.4060 -0.0177
  102OSM   H10S10292   5.989   0.626   9.503 -0.2367 -2.8771  3.8413
  102OSM   H10T10293   5.836   0.702   9.494  0.0943 -0.0367 -1.8388
  102OSM   C11S10294   5.872   0.569   9.314  0.8247 -0.6140 -0.1181
  102OSM   H11S10295   5.776   0.513   9.309  0.7261 -0.6247  1.3062
  102OSM   H11T10296   5.959   0.504   9.289  0.1611 -1.4883 -0.2304
  102OSM   C12S10297   5.868   0.688   9.219  0.2042 -0.0459 -0.0211
  102OSM   H12S10298   5.944   0.757   9.261  0.8108  0.2611 -1.5579
  102OSM   H12T10299   5.767   0.733   9.230  0.5572  0.7004  0.2479
  102OSM   C13S10300   5.897   0.657   9.072  0.4431  0.1576 -0.0237
  102OSM   H13S10301   5.892   0.762   9.036 -1.2497  0.8636  2.0738
  102OSM   H13T10302   5.836   0.579   9.021  0.6854  0.0563 -0.1615
  102OSM   C14S10303   6.036   0.608   9.042 -0.4085  0.3015  0.0383
  102OSM   H14S10304   6.037   0.498   9.055 -2.2885  0.2000 -0.4024
  102OSM   H14T10305   6.104   0.649   9.120 -0.6270  0.9630 -0.1064
  102OSM   C15S10306   6.082   0.632   8.899 -0.1491 -0.1934  0.2295
  102OSM   H15S10307   6.189   0.604   8.891 -0.1837 -0.3223  0.2058
  102OSM   H15T10308   6.067   0.742   8.890 -0.2432 -0.0032  2.3012
  102OSM   C16S10309   5.996   0.558   8.793 -0.0273  0.4356  0.1094
  102OSM   H16S10310   5.894   0.601   8.799 -0.7395 -1.2259  0.4593
  102OSM   H16T10311   5.978   0.456   8.832 -2.2171  1.3138  1.5576
  102OSM   C17S10312   6.034   0.556   8.643  0.0339 -0.1220  0.2253
  102OSM   H17S10313   6.012   0.656   8.600 -0.3532  0.0689  0.8577
  102OSM   H17T10314   5.957   0.489   8.598 -0.3691 -0.7786  1.8238
  102OSM   C18S10315   6.174   0.519   8.603  0.2052 -0.2257  0.7897
  102OSM   H18S10316   6.257   0.584   8.638  0.0465  0.1451  0.4783
  102OSM   H18T10317   6.196   0.520   8.495  0.2003  0.1069  0.7915
  102OSM   H18U10318   6.202   0.418   8.642  0.9396  0.1950  1.3763
  102OSM    C1F10319   5.349   0.406  10.133 -0.6190  0.3573 -0.0646
  102OSM     OF10320   5.347   0.502  10.206  0.0268 -0.3702  0.6568
  102OSM    C2F10321   5.252   0.375  10.015 -0.3761 -0.4335 -0.0919
  102OSM    H2F10322   5.195   0.282  10.037 -2.3765  0.4597 -1.1824
  102OSM    H2G10323   5.309   0.357   9.922  0.7781 -1.4693  0.7884
  102OSM    C3F10324   5.150   0.489   9.975 -0.5373  0.0172  0.3682
  102OSM    H3F10325   5.215   0.577   9.953  0.7764 -1.1702 -0.6441
  102OSM    H3G10326   5.092   0.523  10.064  1.5539 -0.3712  1.9651
  102OSM    C4F10327   5.056   0.453   9.858  0.0559 -0.2549  0.3241
  102OSM    H4F10328   4.996   0.362   9.880  1.3042 -1.1143  0.2854
  102OSM    H4G10329   5.111   0.431   9.764 -0.9568  1.1393 -0.6315
  102OSM    C5F10330   4.950   0.565   9.815 -0.4501 -0.7365  0.8938
  102OSM    H5F10331   4.896   0.586   9.910  1.3577  3.0315  1.2779
  102OSM    H5G10332   4.884   0.534   9.731  0.0600  2.4311 -0.8181
  102OSM    C6F10333   5.015   0.700   9.766 -0.0106 -0.6018 -0.2963
  102OSM    H6F10334   5.094   0.684   9.690 -0.4004  1.6064 -1.2464
  102OSM    H6G10335   5.079   0.744   9.846  0.5316  0.2218 -1.1610
  102OSM    C7F10336   4.917   0.810   9.719 -0.3403  0.0071 -0.0235
  102OSM    H7F10337   4.858   0.845   9.807  0.9898 -0.1728  0.9838
  102OSM    H7G10338   4.855   0.772   9.635  1.1666 -3.0688  0.1015
  102OSM    C8F10339   4.993   0.933   9.656  0.0656 -0.0163  0.0893
  102OSM    H8F10340   5.046   0.910   9.562 -1.0410 -0.8940 -0.3515
  102OSM    H8G10341   5.073   0.967   9.726 -0.8662  1.2615  0.5701
  102OSM    C9F10342   4.905   1.049   9.641 -0.4785 -0.1937  0.4828
  102OSM    H9F10343   4.904   1.114   9.730 -2.3260  0.1926  0.2219
  102OSM   C10F10344   4.814   1.071   9.542  0.3999  0.4978 -0.2370
  102OSM   H10F10345   4.753   1.162   9.532  1.6778  1.2618 -1.5036
  102OSM   C11F10346   4.788   0.977   9.428 -0.5861 -0.4740  0.0192
  102OSM   H11F10347   4.684   1.003   9.397 -0.7891  0.1921  1.2028
  102OSM   H11G10348   4.774   0.870   9.453 -1.1124 -0.5535 -0.5813
  102OSM   C12F10349   4.887   0.992   9.310  0.7590 -0.1152  0.1310
  102OSM   H12F10350   4.983   1.016   9.360  1.3098  0.8763 -1.3245
  102OSM   H12G10351   4.856   1.085   9.258 -0.9434  0.7637  2.5202
  102OSM   C13F10352   4.909   0.875   9.219  0.4068 -0.1513  0.4001
  102OSM   H13F10353   4.929   0.787   9.284 -0.9945 -1.7243 -1.1600
  102OSM   H13G10354   5.001   0.904   9.165 -1.0160  1.2650 -1.3976
  102OSM   C14F10355   4.792   0.837   9.122  0.1807  0.6191  0.0623
  102OSM   H14F10356   4.726   0.925   9.106 -0.5356  0.1303  0.2712
  102OSM   H14G10357   4.718   0.771   9.172  1.0605  1.0587  2.0389
  102OSM   C15F10358   4.855   0.777   8.994 -0.3048  0.0567  0.3720
  102OSM   H15F10359   4.921   0.856   8.951  3.8599 -0.8333  4.3073
  102OSM   H15G10360   4.783   0.762   8.911  0.3038  3.4690 -0.9378
  102OSM   C16F10361   4.941   0.649   9.013 -0.2661 -0.3645 -0.1352
  102OSM   H16F10362   4.869   0.567   9.031 -0.8808  0.1062 -0.4438
  102OSM   H16G10363   5.022   0.646   9.089  0.1997  1.9601 -0.4618
  102OSM   C17F10364   4.997   0.595   8.873 -0.1832 -0.4031 -0.1078
  102OSM   H17F10365   4.924   0.607   8.789  1.6219  0.2094 -1.6590
  102OSM   H17G10366   5.015   0.487   8.888 -1.2199 -0.6268 -0.3637
  102OSM   C18F10367   5.124   0.674   8.829  0.4527 -0.3371 -0.0392
  102OSM   H18F10368   5.148   0.663   8.721  1.0632  0.7822 -0.0297
  102OSM   H18G10369   5.210   0.642   8.891  0.5636 -0.0444 -0.0414
  102OSM   H18H10370   5.110   0.780   8.858  0.9498 -0.2921  0.0426
  103OSM      N10371   5.643   5.017  10.911 -0.2517  0.5227 -0.1351
  103OSM    C1510372   5.694   5.006  11.050  0.1729  0.8153  0.3996
  103OSM   H15A10373   5.715   4.906  11.085  0.1523  0.4169 -0.6924
  103OSM   H15B10374   5.634   5.051  11.127 -1.7853 -0.2380 -0.4433
  103OSM   H15C10375   5.777   5.075  11.056 -1.2969  2.5145  2.2745
  103OSM    C1410376   5.512   4.942  10.899 -0.4671  0.9205 -0.3388
  103OSM   H14A10377   5.465   4.953  10.803 -1.0830  0.9043 -0.0422
  103OSM   H14B10378   5.437   4.980  10.967  0.3839  0.6525  0.7745
  103OSM   H14C10379   5.515   4.836  10.918  0.0017  1.0936  0.6336
  103OSM    C1310380   5.637   5.165  10.885  0.1277 -0.1205 -0.1631
  103OSM   H13A10381   5.557   5.199  10.950 -0.1480 -2.8384  1.1042
  103OSM   H13B10382   5.624   5.194  10.782  0.3727  0.3966 -0.0519
  103OSM   H13C10383   5.728   5.215  10.914  0.9283 -0.3890 -2.0522
  103OSM    C1210384   5.753   4.954  10.826 -0.4632  0.6487  0.3076
  103OSM   H12A10385   5.727   4.954  10.721  1.5803 -2.2554 -0.3109
  103OSM   H12B10386   5.759   4.848  10.843  1.2627  0.5635 -0.5987
  103OSM    C1110387   5.896   5.014  10.843 -0.3842 -0.4552  0.2511
  103OSM   H11A10388   5.939   4.982  10.940 -0.6827 -1.5978  0.0207
  103OSM   H11B10389   5.883   5.124  10.844 -2.1653 -0.6435  1.4036
  103OSM      P10390   6.058   4.837  10.718 -0.0995 -0.0645  0.2212
  103OSM    O1310391   6.173   4.859  10.627 -0.2786 -0.1178  0.2601
  103OSM    O1410392   6.087   4.772  10.840 -0.0438  0.4312 -0.4290
  103OSM    O1110393   5.949   4.754  10.639 -0.2920 -0.1695 -0.2478
  103OSM    O1210394   5.988   4.977  10.737 -0.0282  0.0032  0.5378
  103OSM    C1S10395   5.912   4.807  10.503  0.2194 -0.6216 -0.3080
  103OSM    H1S10396   6.003   4.799  10.440  1.4950  4.3327  0.4787
  103OSM    H1T10397   5.881   4.913  10.511 -0.7904 -0.8969 -0.4252
  103OSM     NF10398   5.777   4.788  10.301 -0.0475  0.0926 -0.5795
  103OSM    HNF10399   5.746   4.882  10.290  1.5699  0.6692 -0.3850
  103OSM    C2S10400   5.790   4.740  10.440 -0.1097  0.4229  0.5442
  103OSM    H2S10401   5.811   4.631  10.440 -1.8879  0.0380  1.6473
  103OSM    C3S10402   5.665   4.752  10.539 -0.4083  0.0677  0.4483
  103OSM    H3S10403   5.657   4.862  10.555  0.9498  0.3435 -0.5703
  103OSM     O310404   5.675   4.698  10.672  0.1855  0.0506 -0.4494
  103OSM    HO310405   5.768   4.675  10.677 -0.0459 -0.6897  2.4554
  103OSM    C4S10406   5.539   4.712  10.475 -0.1145  0.0218  0.9531
  103OSM    H4S10407   5.498   4.793  10.413 -1.4719 -0.7478  0.7895
  103OSM    C5S10408   5.492   4.580  10.465 -0.9299 -0.2101 -0.2947
  103OSM    H5S10409   5.556   4.508  10.518 -2.0605  0.9042  2.8274
  103OSM    C6S10410   5.375   4.515  10.397  0.2690 -0.4740  0.2862
  103OSM    H6S10411   5.317   4.591  10.340 -0.5080 -0.5556  0.9505
  103OSM    H6T10412   5.307   4.471  10.472 -1.3542 -1.7187 -1.8059
  103OSM    C7S10413   5.406   4.400  10.297  0.5044  0.0772 -0.5459
  103OSM    H7S10414   5.421   4.308  10.358 -1.0201  0.3272  0.2710
  103OSM    H7T10415   5.488   4.427  10.226  1.6240 -1.2274  0.2114
  103OSM    C8S10416   5.288   4.367  10.203 -0.2269 -0.4578 -0.4805
  103OSM    H8S10417   5.300   4.434  10.115  1.1117 -0.9882 -0.7273
  103OSM    H8T10418   5.197   4.394  10.261  0.2839 -3.2864  1.8662
  103OSM    C9S10419   5.296   4.231  10.141 -0.3278 -0.2598 -0.2972
  103OSM    H9S10420   5.252   4.161  10.215 -0.6431  0.6677  0.4088
  103OSM    H9T10421   5.401   4.197  10.125 -0.4539 -1.1238  0.6291
  103OSM   C10S10422   5.214   4.220  10.018  1.0021 -0.0837 -0.0179
  103OSM   H10S10423   5.166   4.318   9.996 -0.8616 -0.8380  0.5152
  103OSM   H10T10424   5.126   4.154  10.036  1.9055 -1.5298 -0.7591
  103OSM   C11S10425   5.286   4.177   9.886  0.5675 -0.0615 -0.4912
  103OSM   H11S10426   5.330   4.076   9.903 -2.8741 -1.6933 -0.3003
  103OSM   H11T10427   5.363   4.254   9.865 -0.2146  0.5164 -1.2930
  103OSM   C12S10428   5.203   4.171   9.764 -0.1294 -0.4309  0.1371
  103OSM   H12S10429   5.279   4.161   9.684  1.1536  2.5189  0.8727
  103OSM   H12T10430   5.164   4.272   9.738  2.5890  1.2878  2.2354
  103OSM   C13S10431   5.093   4.064   9.763 -0.2631 -0.1314  0.0107
  103OSM   H13S10432   5.005   4.103   9.819 -0.9079  0.8673 -1.6334
  103OSM   H13T10433   5.129   3.973   9.815  1.4442  0.1429 -0.6525
  103OSM   C14S10434   5.043   4.019   9.627  0.6035 -0.1670 -0.5514
  103OSM   H14S10435   4.996   4.112   9.588 -1.1652  0.2012  2.1457
  103OSM   H14T10436   4.964   3.942   9.637  1.0223 -0.5940 -0.5064
  103OSM   C15S10437   5.148   3.963   9.531  0.0718  0.6409 -0.1112
  103OSM   H15S10438   5.191   3.871   9.578  0.0915  1.4933  1.6088
  103OSM   H15T10439   5.233   4.033   9.515  1.1712 -0.3411  1.1661
  103OSM   C16S10440   5.105   3.913   9.396  0.2873 -0.2452 -0.3280
  103OSM   H16S10441   5.026   3.834   9.395  2.7876 -2.9554 -2.0459
  103OSM   H16T10442   5.182   3.856   9.339  0.2553  0.0511 -0.6668
  103OSM   C17S10443   5.059   4.024   9.304  0.2064 -0.0519 -0.5430
  103OSM   H17S10444   5.152   4.077   9.276 -0.6408  1.0524 -1.3679
  103OSM   H17T10445   4.999   4.104   9.351  0.4031  1.1236 -2.2010
  103OSM   C18S10446   5.009   3.958   9.174  0.2309 -0.6325  0.0644
  103OSM   H18S10447   5.059   3.864   9.140 -1.8612 -1.2984 -1.3992
  103OSM   H18T10448   5.013   4.027   9.087  0.0332 -1.5670 -0.7084
  103OSM   H18U10449   4.902   3.930   9.180 -0.0094 -0.1874 -1.5564
  103OSM    C1F10450   5.843   4.728  10.207 -0.5208  0.1025  0.0933
  103OSM     OF10451   5.904   4.620  10.228  0.1210 -0.5342  0.2725
  103OSM    C2F10452   5.831   4.799  10.068  0.4519 -0.4650 -0.1912
  103OSM    H2F10453   5.878   4.899  10.074 -1.3225  0.3066  2.2202
  103OSM    H2G10454   5.722   4.811  10.049  0.3688  0.7560  0.9253
  103OSM    C3F10455   5.903   4.709   9.952 -0.4796  0.2024  0.0681
  103OSM    H3F10456   5.835   4.624   9.928  0.1545  0.1140 -1.5481
  103OSM    H3G10457   5.993   4.663   9.997 -1.5810 -0.4611  1.6776
  103OSM    C4F10458   5.933   4.783   9.823 -0.2267  0.5280 -0.2924
  103OSM    H4F10459   6.006   4.733   9.756  1.0438 -1.9470  2.7196
  103OSM    H4G10460   5.986   4.878   9.846 -1.9531  1.4206  0.1491
  103OSM    C5F10461   5.804   4.821   9.748  0.2402 -0.4059  0.1920
  103OSM    H5F10462   5.736   4.875   9.817 -0.1476 -1.0174  0.2889
  103OSM    H5G10463   5.755   4.723   9.731 -0.4843 -0.0772  0.3585
  103OSM    C6F10464   5.823   4.893   9.616  0.3356  0.2418 -0.0531
  103OSM    H6F10465   5.861   4.825   9.536 -2.1496 -0.2655 -0.8847
  103OSM    H6G10466   5.906   4.964   9.637  2.8487 -2.5702  0.3709
  103OSM    C7F10467   5.687   4.940   9.566  0.2950  0.0483 -0.2013
  103OSM    H7F10468   5.657   5.023   9.633 -0.9217 -0.9555  0.5420
  103OSM    H7G10469   5.612   4.858   9.578  1.4273 -0.8556  0.9311
  103OSM    C8F10470   5.690   4.985   9.417 -0.2339  0.9056  0.0663
  103OSM    H8F10471   5.721   4.895   9.361 -0.4238 -0.0419  1.4249
  103OSM    H8G10472   5.750   5.074   9.389  0.5366  0.6699  0.9030
  103OSM    C9F10473   5.546   5.006   9.383 -0.2118  0.3004  0.1452
  103OSM    H9F10474   5.485   4.914   9.383  2.6220 -1.7359 -0.8247
  103OSM   C10F10475   5.489   5.120   9.345 -0.4469 -0.2157 -0.0789
  103OSM   H10F10476   5.385   5.129   9.312  0.4864 -0.4416 -3.5416
  103OSM   C11F10477   5.559   5.250   9.330 -0.3511 -1.1047  0.0291
  103OSM   H11F10478   5.654   5.259   9.387 -0.0321  3.5853 -0.8103
  103OSM   H11G10479   5.495   5.326   9.378  0.6271 -0.7780  0.8592
  103OSM   C12F10480   5.581   5.273   9.177 -0.1526 -0.6453  0.1100
  103OSM   H12F10481   5.617   5.178   9.131 -2.6650 -2.1941  1.1175
  103OSM   H12G10482   5.649   5.359   9.159 -1.2467  0.3755  0.7407
  103OSM   C13F10483   5.456   5.299   9.091 -0.0634 -0.3571 -0.5381
  103OSM   H13F10484   5.400   5.389   9.124 -3.9615 -1.6553 -2.8197
  103OSM   H13G10485   5.391   5.210   9.104  2.2230 -2.1584 -0.8105
  103OSM   C14F10486   5.485   5.310   8.942  0.1010 -0.4707  0.8442
  103OSM   H14F10487   5.576   5.373   8.928  0.2307 -0.4726  1.5917
  103OSM   H14G10488   5.399   5.351   8.885  0.5947 -1.7656 -0.8930
  103OSM   C15F10489   5.511   5.188   8.867 -0.5020  0.4774 -1.2078
  103OSM   H15F10490   5.604   5.142   8.907 -0.6704  2.5818  1.9394
  103OSM   H15G10491   5.540   5.218   8.764  0.0851  2.3172 -0.5367
  103OSM   C16F10492   5.397   5.088   8.847  0.0858  0.0470  0.0982
  103OSM   H16F10493   5.317   5.120   8.778 -0.4911  1.5258  1.3992
  103OSM   H16G10494   5.344   5.068   8.943  0.2406  3.4943  1.0342
  103OSM   C17F10495   5.460   4.950   8.801  0.2752  0.3084  0.5988
  103OSM   H17F10496   5.530   4.910   8.877 -0.0840  1.3363  1.4937
  103OSM   H17G10497   5.520   4.970   8.710 -0.2325  1.3558  0.4713
  103OSM   C18F10498   5.348   4.843   8.763  1.1129 -0.1168 -0.0259
  103OSM   H18F10499   5.257   4.849   8.826  1.3171 -1.5622  0.4348
  103OSM   H18G10500   5.386   4.740   8.775  1.3905  0.1664  1.7930
  103OSM   H18H10501   5.305   4.862   8.662  0.4906  0.5690  0.3555
  104OSM      N10502   5.720   3.919  10.827 -0.1923 -0.4963  0.3199
  104OSM    C1510503   5.646   4.009  10.728 -0.6717 -0.3089  0.0244
  104OSM   H15A10504   5.713   4.086  10.694 -1.3995  0.9720  1.3583
  104OSM   H15B10505   5.568   4.064  10.778  0.5457  1.0494  0.4801
  104OSM   H15C10506   5.613   3.960  10.637  0.1203 -1.1254  0.1560
  104OSM    C1410507   5.790   4.020  10.918  0.4430 -0.0660  0.1878
  104OSM   H14A10508   5.862   4.071  10.856  1.6505  0.1840  1.7359
  104OSM   H14B10509   5.845   3.982  11.003  2.2557  1.8965 -0.0124
  104OSM   H14C10510   5.714   4.089  10.953 -0.1271 -0.3224 -0.5158
  104OSM    C1310511   5.620   3.846  10.903 -0.0101  0.0974 -0.1677
  104OSM   H13A10512   5.551   3.790  10.842 -2.0657 -0.0815  2.1896
  104OSM   H13B10513   5.568   3.913  10.970  0.1538 -1.8552  2.0070
  104OSM   H13C10514   5.661   3.776  10.974  0.4936  0.6245  0.0661
  104OSM    C1210515   5.830   3.840  10.757 -0.2137 -0.5527  0.0798
  104OSM   H12A10516   5.897   3.790  10.825  0.2363  1.5882  1.2730
  104OSM   H12B10517   5.903   3.909  10.718 -0.0953 -1.5729 -1.6358
  104OSM    C1110518   5.783   3.736  10.653  0.0073 -0.4142  0.3990
  104OSM   H11A10519   5.877   3.714  10.597  0.3944 -2.2733  1.7096
  104OSM   H11B10520   5.713   3.790  10.586 -0.0405 -0.0569  0.7373
  104OSM      P10521   5.803   3.523  10.812  0.6118  0.0776 -0.0013
  104OSM    O1310522   5.910   3.606  10.868  0.6490 -0.5486 -0.8992
  104OSM    O1410523   5.717   3.461  10.910 -0.0273  0.5371  0.1060
  104OSM    O1110524   5.857   3.402  10.731 -0.3499  0.1303 -0.2624
  104OSM    O1210525   5.727   3.610  10.705  0.3520 -0.0686 -0.0582
  104OSM    C1S10526   5.788   3.334  10.627 -0.0509  0.4192  0.0120
  104OSM    H1S10527   5.677   3.339  10.636 -0.0262  0.3884  0.3296
  104OSM    H1T10528   5.813   3.225  10.630 -0.4344  0.2536 -1.7320
  104OSM     NF10529   5.761   3.281  10.391 -0.5325 -0.1871 -0.5146
  104OSM    HNF10530   5.815   3.220  10.334  0.2010  1.2618 -1.4419
  104OSM    C2S10531   5.821   3.377  10.484  0.2903 -0.2269 -0.5217
  104OSM    H2S10532   5.778   3.479  10.466  0.8134  0.1240  0.1833
  104OSM    C3S10533   5.970   3.396  10.461  0.0938 -0.5959  0.3302
  104OSM    H3S10534   6.017   3.298  10.486  0.2026 -1.3401 -2.4354
  104OSM     O310535   6.014   3.505  10.538  0.6696 -0.8527 -0.3224
  104OSM    HO310536   5.971   3.481  10.621  0.9673 -0.5157 -0.0651
  104OSM    C4S10537   6.001   3.431  10.318  0.2477 -0.1327 -0.4208
  104OSM    H4S10538   5.937   3.510  10.276  0.1778 -0.2647 -0.5629
  104OSM    C5S10539   6.102   3.374  10.251 -0.3043  0.1789 -0.0836
  104OSM    H5S10540   6.159   3.294  10.301 -1.9217  0.1278  1.7891
  104OSM    C6S10541   6.132   3.402  10.104  0.8019  0.4199  0.7885
  104OSM    H6S10542   6.225   3.342  10.093  0.9473  0.7250  0.3107
  104OSM    H6T10543   6.145   3.511  10.084 -2.5712  1.0396  1.3352
  104OSM    C7S10544   6.017   3.342  10.016 -0.0349 -0.1215  0.0586
  104OSM    H7S10545   5.925   3.396  10.047  0.8412  1.0186  0.7377
  104OSM    H7T10546   6.012   3.234  10.040 -2.0165 -0.5664 -2.0125
  104OSM    C8S10547   6.056   3.363   9.872 -0.5960 -0.0279  0.5317
  104OSM    H8S10548   6.156   3.322   9.845 -0.4937  1.1522 -1.0067
  104OSM    H8T10549   6.038   3.469   9.843 -0.3605  0.1706  1.0876
  104OSM    C9S10550   5.960   3.286   9.779  0.3757  1.0194  0.2239
  104OSM    H9S10551   5.852   3.305   9.795  0.2647  0.0235  0.7355
  104OSM    H9T10552   5.972   3.176   9.791 -1.0691  0.8135 -0.0557
  104OSM   C10S10553   5.987   3.316   9.635 -0.0051 -0.0083  0.2295
  104OSM   H10S10554   6.089   3.286   9.602 -1.4433 -3.1598 -1.8610
  104OSM   H10T10555   5.966   3.425   9.631  0.6667  0.1643  1.1928
  104OSM   C11S10556   5.896   3.247   9.536  0.0555 -0.7064 -0.1261
  104OSM   H11S10557   5.792   3.273   9.568  0.7017  3.1492 -0.5983
  104OSM   H11T10558   5.911   3.138   9.533 -0.5782 -0.9245  2.2001
  104OSM   C12S10559   5.940   3.301   9.396 -0.4258 -0.1570 -0.2079
  104OSM   H12S10560   6.049   3.295   9.374 -0.3564  0.5293 -0.0631
  104OSM   H12T10561   5.929   3.411   9.400 -1.3720 -0.2343 -0.5344
  104OSM   C13S10562   5.860   3.238   9.281  0.1859 -0.5761 -0.4429
  104OSM   H13S10563   5.757   3.271   9.304  1.3231  2.9064  0.3022
  104OSM   H13T10564   5.864   3.128   9.267 -1.1055 -0.9765  1.7390
  104OSM   C14S10565   5.897   3.302   9.147  0.4604 -0.4412 -0.0913
  104OSM   H14S10566   6.003   3.277   9.122  0.6676  0.7134 -0.4465
  104OSM   H14T10567   5.909   3.410   9.170  1.7885 -0.5828 -0.0267
  104OSM   C15S10568   5.793   3.266   9.030 -0.1251 -0.2610 -0.1190
  104OSM   H15S10569   5.833   3.312   8.938 -0.5344  1.3506  0.4659
  104OSM   H15T10570   5.711   3.336   9.057  0.5816  1.3458 -1.9576
  104OSM   C16S10571   5.750   3.128   9.016 -0.1212 -0.1698 -0.1956
  104OSM   H16S10572   5.704   3.077   9.103 -0.5244 -1.6735 -1.2605
  104OSM   H16T10573   5.842   3.069   8.997 -0.7417 -0.6142 -2.0203
  104OSM   C17S10574   5.656   3.100   8.897  0.1949 -0.2251  0.2399
  104OSM   H17S10575   5.716   3.133   8.809  1.1983  0.4622  1.1564
  104OSM   H17T10576   5.571   3.170   8.910 -0.5104 -0.7382 -1.3360
  104OSM   C18S10577   5.608   2.961   8.871 -0.2360 -0.5991  0.2922
  104OSM   H18S10578   5.701   2.900   8.872 -0.4174 -0.9212 -0.8140
  104OSM   H18T10579   5.574   2.957   8.765  0.9545 -0.1525 -0.1227
  104OSM   H18U10580   5.534   2.919   8.943  0.0543 -1.7911 -0.0842
  104OSM    C1F10581   5.624   3.265  10.375 -0.1330 -0.5424 -0.1709
  104OSM     OF10582   5.550   3.336  10.435  0.7393  0.3999 -0.5508
  104OSM    C2F10583   5.579   3.166  10.277  0.0131  0.3235 -0.5715
  104OSM    H2F10584   5.621   3.066  10.304 -1.8976 -0.8221 -1.5996
  104OSM    H2G10585   5.616   3.188  10.174 -1.0653 -0.5333 -1.1713
  104OSM    C3F10586   5.426   3.150  10.272  0.3234  0.4664 -0.5953
  104OSM    H3F10587   5.367   3.242  10.256  0.2161  0.2584 -1.4298
  104OSM    H3G10588   5.377   3.100  10.359 -3.5015  2.0176 -1.6341
  104OSM    C4F10589   5.375   3.059  10.156  0.6800  0.4410 -0.1581
  104OSM    H4F10590   5.268   3.032  10.161  0.6945 -0.1436 -2.2236
  104OSM    H4G10591   5.429   2.962  10.156  1.8819  1.0651 -1.8257
  104OSM    C5F10592   5.389   3.123  10.019 -0.7542  0.1780  0.4696
  104OSM    H5F10593   5.499   3.133  10.006 -0.7506  0.7169  0.8677
  104OSM    H5G10594   5.359   3.230  10.025 -0.9938  0.1969 -0.8509
  104OSM    C6F10595   5.321   3.053   9.900  0.0396 -0.5357 -0.6668
  104OSM    H6F10596   5.214   3.034   9.926  0.0462 -0.5430 -0.6445
  104OSM    H6G10597   5.371   2.956   9.880  0.2764 -0.2811 -1.3525
  104OSM    C7F10598   5.313   3.134   9.770 -0.1042  0.0005  0.7675
  104OSM    H7F10599   5.416   3.154   9.735 -0.3702 -1.8676 -1.3465
  104OSM    H7G10600   5.260   3.232   9.779 -1.8397 -0.5177 -2.3322
  104OSM    C8F10601   5.252   3.056   9.649 -0.3793 -0.9053  0.1877
  104OSM    H8F10602   5.321   2.969   9.643  2.7796  1.4632 -0.8407
  104OSM    H8G10603   5.279   3.118   9.561 -1.1731 -0.8136  0.0048
  104OSM    C9F10604   5.109   3.013   9.659  0.2225  0.1282 -0.0358
  104OSM    H9F10605   5.092   2.951   9.748  0.0375  1.4652  0.8963
  104OSM   C10F10606   5.015   3.051   9.571  0.1816 -0.5487  0.4148
  104OSM   H10F10607   4.924   2.989   9.581  1.4474 -2.2671  1.8846
  104OSM   C11F10608   5.036   3.137   9.446 -0.1272 -0.5299  0.5014
  104OSM   H11F10609   5.120   3.208   9.461  0.9971 -1.7753  0.3794
  104OSM   H11G10610   4.946   3.186   9.405 -1.4933 -1.4309  2.2603
  104OSM   C12F10611   5.089   3.045   9.332 -0.5392 -0.1881  0.4994
  104OSM   H12F10612   5.021   2.958   9.320 -0.5971  0.2361 -3.0015
  104OSM   H12G10613   5.191   3.004   9.353  0.4776  1.5900 -0.7755
  104OSM   C13F10614   5.094   3.117   9.197 -0.6041  0.6815 -0.7278
  104OSM   H13F10615   5.145   3.215   9.212 -1.4242  0.9975  0.0635
  104OSM   H13G10616   4.990   3.127   9.160 -0.5501  0.3448 -0.9705
  104OSM   C14F10617   5.174   3.040   9.090 -0.4199 -0.3662  0.0337
  104OSM   H14F10618   5.130   2.938   9.090  1.2866 -1.2665 -3.4151
  104OSM   H14G10619   5.282   3.046   9.115 -0.1893  0.4881 -1.0965
  104OSM   C15F10620   5.162   3.084   8.946 -0.1065 -0.3976  0.4723
  104OSM   H15F10621   5.197   3.188   8.932 -1.7543  0.2381  0.9631
  104OSM   H15G10622   5.059   3.100   8.909  0.4244 -0.4629 -1.0885
  104OSM   C16F10623   5.209   2.978   8.835 -0.0283  0.0436  0.4400
  104OSM   H16F10624   5.135   2.898   8.857 -0.1260 -0.0685 -0.2864
  104OSM   H16G10625   5.315   2.947   8.836 -0.5308 -1.8747 -0.5988
  104OSM   C17F10626   5.167   3.016   8.693  0.8029  0.1801 -0.3964
  104OSM   H17F10627   5.222   3.103   8.652  1.0055  1.2187  1.9137
  104OSM   H17G10628   5.062   3.050   8.685  0.7425 -0.1010 -0.8535
  104OSM   C18F10629   5.171   2.887   8.607  0.3767  0.1105 -0.3394
  104OSM   H18F10630   5.145   2.895   8.499 -1.5858  0.6573  0.1304
  104OSM   H18G10631   5.100   2.813   8.649 -1.1216  1.7722  0.1791
  104OSM   H18H10632   5.272   2.840   8.606  0.0465 -0.6161 -0.0113
  105OSM      N10633   3.054   5.090  11.003  0.1720 -0.7930  0.2288
  105OSM    C1510634   2.975   5.004  11.097  0.7319  0.6613 -0.4588
  105OSM   H15A10635   2.892   4.951  11.053  0.0323 -0.7154  2.2736
  105OSM   H15B10636   2.938   5.057  11.184 -1.4316 -0.0492 -0.8812
  105OSM   H15C10637   3.044   4.929  11.134 -0.4283 -0.1478  0.1197
  105OSM    C1410638   3.136   5.174  11.089 -0.9331  0.6075  0.7492
  105OSM   H14A10639   3.223   5.119  11.122 -0.1008 -1.0382 -3.4732
  105OSM   H14B10640   3.091   5.227  11.171 -0.3736 -0.2831  1.6527
  105OSM   H14C10641   3.164   5.258  11.027 -2.4207  0.9176  0.4656
  105OSM    C1310642   3.144   5.008  10.912 -0.3102 -0.6815 -0.3824
  105OSM   H13A10643   3.208   5.060  10.842 -0.3375  0.2278  0.2462
  105OSM   H13B10644   3.090   4.921  10.878 -0.0837 -1.7072  1.7217
  105OSM   H13C10645   3.208   4.954  10.981 -0.3758 -2.0839 -1.3802
  105OSM    C1210646   2.961   5.174  10.922  0.6244  0.1597 -0.2631
  105OSM   H12A10647   2.901   5.109  10.860  1.1533 -0.3958 -0.2001
  105OSM   H12B10648   3.013   5.234  10.849 -1.5206 -0.1918 -2.1831
  105OSM    C1110649   2.859   5.258  10.998 -0.8007 -0.4552 -0.4977
  105OSM   H11A10650   2.820   5.337  10.930 -1.1851  0.6582  0.9613
  105OSM   H11B10651   2.907   5.318  11.078 -0.4940  2.2533 -2.5365
  105OSM      P10652   2.642   5.106  10.970 -0.3450  0.0169 -0.1249
  105OSM    O1310653   2.627   4.977  11.041 -0.5084  0.5438  0.0282
  105OSM    O1410654   2.527   5.197  10.957  0.0203  0.1438 -0.3493
  105OSM    O1110655   2.696   5.061  10.826  0.8504 -0.6798  0.1799
  105OSM    O1210656   2.753   5.186  11.048  0.1306 -0.4905  0.1953
  105OSM    C1S10657   2.676   5.147  10.712 -0.2568  0.0605  0.0040
  105OSM    H1S10658   2.719   5.247  10.733  1.5991 -0.5273 -0.8236
  105OSM    H1T10659   2.567   5.159  10.691  0.1092  0.5881 -1.7968
  105OSM     NF10660   2.779   5.172  10.475  0.3718  0.5937  0.8141
  105OSM    HNF10661   2.722   5.158  10.394 -0.9888  1.9204  1.4905
  105OSM    C2S10662   2.757   5.084  10.588  0.2837 -0.3878  0.4211
  105OSM    H2S10663   2.862   5.056  10.613  0.0953 -0.0796  1.5906
  105OSM    C3S10664   2.686   4.954  10.551  0.5550 -0.5591 -0.7417
  105OSM    H3S10665   2.580   4.972  10.525  0.6531  1.1042 -0.1560
  105OSM     O310666   2.673   4.856  10.650 -0.1664 -0.3970 -0.0641
  105OSM    HO310667   2.685   4.914  10.725 -0.8408 -0.7314  0.3174
  105OSM    C4S10668   2.750   4.882  10.429  0.5875  0.1263  0.8205
  105OSM    H4S10669   2.684   4.880  10.340  1.6292 -0.0301  0.0403
  105OSM    C5S10670   2.881   4.848  10.417  0.6787 -0.3203 -0.0716
  105OSM    H5S10671   2.961   4.871  10.489  1.4352 -1.5138 -0.4928
  105OSM    C6S10672   2.939   4.778  10.293 -0.1340  0.6145 -0.4307
  105OSM    H6S10673   2.963   4.671  10.312 -2.0237  0.3555  0.7261
  105OSM    H6T10674   3.038   4.822  10.269  0.1371 -1.0352 -2.6201
  105OSM    C7S10675   2.864   4.794  10.160 -0.2845  0.0940 -0.1912
  105OSM    H7S10676   2.842   4.902  10.148 -0.7287 -0.0786 -1.0168
  105OSM    H7T10677   2.771   4.733  10.151  0.8683 -1.8670  0.5075
  105OSM    C8S10678   2.948   4.750  10.040  0.0901 -0.1228  0.7885
  105OSM    H8S10679   2.967   4.642  10.062 -1.8226 -0.2254  2.1824
  105OSM    H8T10680   3.045   4.803  10.049  0.3982 -0.8228  1.9333
  105OSM    C9S10681   2.895   4.767   9.894 -0.4870 -0.4549 -1.4024
  105OSM    H9S10682   2.859   4.871   9.879  1.9310  0.9130  1.2794
  105OSM    H9T10683   2.817   4.690   9.878  1.2877 -2.1695 -2.2226
  105OSM   C10S10684   3.019   4.747   9.798 -0.0138 -0.0027 -0.6046
  105OSM   H10S10685   3.046   4.640   9.794 -1.3329 -0.4402  1.1122
  105OSM   H10T10686   3.109   4.804   9.832 -1.6443  3.2368 -1.3168
  105OSM   C11S10687   2.985   4.798   9.661  0.2183  0.4032 -0.0385
  105OSM   H11S10688   3.034   4.891   9.627  0.3906 -0.2158 -1.6058
  105OSM   H11T10689   2.874   4.804   9.649  0.1764 -1.7706 -1.4304
  105OSM   C12S10690   3.035   4.693   9.555 -0.0211 -1.1473 -0.2483
  105OSM   H12S10691   2.981   4.599   9.578 -0.4529 -1.4763 -2.4377
  105OSM   H12T10692   3.140   4.668   9.581 -0.1921  0.6164  2.5872
  105OSM   C13S10693   3.025   4.735   9.405 -0.1481 -0.2422  0.5104
  105OSM   H13S10694   3.091   4.824   9.394  0.1863 -0.5932 -0.4676
  105OSM   H13T10695   2.918   4.752   9.382 -0.3997 -0.8384  1.2255
  105OSM   C14S10696   3.084   4.624   9.313 -0.7893 -0.6250  0.2710
  105OSM   H14S10697   3.039   4.525   9.333 -1.2599 -1.1619 -2.8572
  105OSM   H14T10698   3.193   4.618   9.335 -1.3270 -1.3741  3.1201
  105OSM   C15S10699   3.075   4.649   9.162  0.0658  0.5244  0.5970
  105OSM   H15S10700   2.972   4.685   9.142 -0.1585  0.9425  2.2866
  105OSM   H15T10701   3.095   4.562   9.097  0.8196  1.7393 -0.8520
  105OSM   C16S10702   3.156   4.769   9.116  0.0658  0.0429  0.4073
  105OSM   H16S10703   3.262   4.747   9.095  0.2675 -0.2243  1.5938
  105OSM   H16T10704   3.165   4.834   9.206  0.6763 -0.5170  0.7647
  105OSM   C17S10705   3.090   4.837   8.998 -0.6379 -0.1600 -0.1437
  105OSM   H17S10706   3.166   4.916   8.981  0.0513 -0.5209  1.1443
  105OSM   H17T10707   2.999   4.892   9.028  0.4099 -0.7124  4.8949
  105OSM   C18S10708   3.076   4.744   8.881 -0.0870 -0.2996  0.5599
  105OSM   H18S10709   3.163   4.676   8.880  0.3044  0.1741  1.3989
  105OSM   H18T10710   3.062   4.793   8.782  0.3957  3.8352  2.3143
  105OSM   H18U10711   2.979   4.690   8.883 -1.1881  1.4009 -1.4310
  105OSM    C1F10712   2.839   5.284  10.488  0.1956 -0.0552  0.4931
  105OSM     OF10713   2.907   5.302  10.586  0.1050 -0.1111  0.2437
  105OSM    C2F10714   2.830   5.382  10.378  0.3761  1.0023  0.3672
  105OSM    H2F10715   2.737   5.375  10.317 -0.0710 -0.5492  1.1909
  105OSM    H2G10716   2.916   5.365  10.309 -1.6564  0.8549 -2.3171
  105OSM    C3F10717   2.839   5.531  10.420 -0.2136 -0.8831  0.0642
  105OSM    H3F10718   2.937   5.552  10.469 -0.4908 -0.4887  0.4441
  105OSM    H3G10719   2.758   5.565  10.487  0.9766  2.9320 -0.1985
  105OSM    C4F10720   2.824   5.626  10.302 -0.2029 -0.9381 -0.1167
  105OSM    H4F10721   2.827   5.734  10.329  1.2901 -0.9110 -0.3549
  105OSM    H4G10722   2.719   5.617  10.264  0.0529 -0.7625 -0.8841
  105OSM    C5F10723   2.922   5.602  10.184  0.0281  0.4356  0.7487
  105OSM    H5F10724   2.906   5.507  10.128 -2.1424  0.0037  2.0106
  105OSM    H5G10725   3.027   5.601  10.221  0.8784  0.0202 -1.5224
  105OSM    C6F10726   2.915   5.719  10.079  0.1004 -0.1870 -0.9114
  105OSM    H6F10727   2.932   5.813  10.136  0.6699 -1.7848  1.7227
  105OSM    H6G10728   2.816   5.736  10.033 -0.0336 -0.9150 -0.9093
  105OSM    C7F10729   3.015   5.691   9.970 -0.4448  0.4841  0.3885
  105OSM    H7F10730   3.001   5.586   9.935 -1.2327 -0.3559  2.9956
  105OSM    H7G10731   3.113   5.680  10.021 -0.1629 -2.5607 -0.6081
  105OSM    C8F10732   3.028   5.797   9.865  0.6040  0.1229  0.0308
  105OSM    H8F10733   3.042   5.888   9.927 -0.7736  0.5519 -0.2419
  105OSM    H8G10734   2.933   5.817   9.810  0.3516 -0.3565  0.2812
  105OSM    C9F10735   3.153   5.767   9.780  0.3340 -0.0641 -0.2150
  105OSM    H9F10736   3.248   5.792   9.830 -0.0400 -0.0868  0.5250
  105OSM   C10F10737   3.151   5.726   9.649  0.5164  0.3114  0.3599
  105OSM   H10F10738   3.238   5.731   9.582 -0.6175  3.3010 -1.0304
  105OSM   C11F10739   3.024   5.698   9.576  0.4697 -0.5160  0.0169
  105OSM   H11F10740   2.937   5.761   9.604  0.9604  0.1146  0.1416
  105OSM   H11G10741   2.991   5.593   9.592 -0.5749 -0.1024  0.6937
  105OSM   C12F10742   3.033   5.735   9.426 -0.5434 -0.2723  0.5969
  105OSM   H12F10743   2.949   5.691   9.369 -0.7415  1.1502 -0.2793
  105OSM   H12G10744   3.123   5.686   9.383 -1.7932 -0.6274 -1.8413
  105OSM   C13F10745   3.040   5.885   9.394 -0.5457  0.6441 -0.1187
  105OSM   H13F10746   3.121   5.919   9.462  0.5730 -2.2559  0.1289
  105OSM   H13G10747   2.946   5.928   9.436 -0.3152  1.7350 -0.6612
  105OSM   C14F10748   3.057   5.923   9.246  0.4233  0.0128  0.3989
  105OSM   H14F10749   2.999   5.853   9.182  1.1955 -1.1252  0.9132
  105OSM   H14G10750   3.166   5.921   9.224  0.6329 -0.9774  1.4148
  105OSM   C15F10751   3.009   6.071   9.219  0.2721  0.7402 -0.0136
  105OSM   H15F10752   3.060   6.139   9.290  1.2247  0.7396 -0.6716
  105OSM   H15G10753   2.902   6.069   9.247  0.1552 -1.4737 -0.4424
  105OSM   C16F10754   3.028   6.117   9.077 -0.1212 -0.8064  0.7141
  105OSM   H16F10755   3.027   6.032   9.006  3.1923  1.3599 -2.2935
  105OSM   H16G10756   3.135   6.130   9.050 -0.5070 -2.9551 -2.4966
  105OSM   C17F10757   2.939   6.231   9.031 -0.0688 -0.1887  0.1338
  105OSM   H17F10758   2.936   6.320   9.097 -2.3322 -0.2476  0.1985
  105OSM   H17G10759   2.841   6.181   9.044 -0.9225  1.6458  1.1823
  105OSM   C18F10760   2.955   6.274   8.886  0.0683 -0.6532 -0.2641
  105OSM   H18F10761   2.973   6.188   8.818 -1.3269 -2.4891  1.5633
  105OSM   H18G10762   3.047   6.337   8.877 -0.3182  0.0477  0.5078
  105OSM   H18H10763   2.880   6.344   8.842  1.7617  1.1332 -0.4607
  106OSM      N10764   1.622   5.263  10.648 -0.3777  0.3893  0.3683
  106OSM    C1510765   1.573   5.374  10.738  0.3861  0.1521 -0.0034
  106OSM   H15A10766   1.465   5.376  10.738  0.3834  0.1383 -0.5856
  106OSM   H15B10767   1.612   5.467  10.698 -2.5854  2.5796  2.3021
  106OSM   H15C10768   1.613   5.365  10.838  0.2779  1.0935  0.1274
  106OSM    C1410769   1.580   5.283  10.508  0.6186 -0.8688 -0.3428
  106OSM   H14A10770   1.614   5.380  10.477  1.7658 -1.2003 -0.1550
  106OSM   H14B10771   1.472   5.288  10.504  0.5216 -2.5294 -4.3584
  106OSM   H14C10772   1.620   5.211  10.439  2.9834 -0.7105  0.7548
  106OSM    C1310773   1.772   5.272  10.650 -0.0858  0.4201  0.1247
  106OSM   H13A10774   1.825   5.190  10.603  0.0247  0.5855 -0.0408
  106OSM   H13B10775   1.812   5.289  10.749 -1.3514  1.4334  0.4811
  106OSM   H13C10776   1.792   5.358  10.588  0.4662  0.6790  0.6460
  106OSM    C1210777   1.577   5.128  10.714 -0.3249 -0.4972 -0.7484
  106OSM   H12A10778   1.645   5.117  10.798 -0.8498 -1.5578 -0.4510
  106OSM   H12B10779   1.607   5.049  10.647 -1.2567 -1.5051  0.0069
  106OSM    C1110780   1.434   5.118  10.750  0.2121 -0.5415 -0.4338
  106OSM   H11A10781   1.417   5.193  10.831  0.6962  0.9299 -1.6590
  106OSM   H11B10782   1.411   5.016  10.788 -0.8712  0.3002  1.3172
  106OSM      P10783   1.199   5.188  10.651  0.0254 -0.0878  0.0971
  106OSM    O1310784   1.127   5.061  10.642 -0.8120  0.2695  0.0468
  106OSM    O1410785   1.178   5.280  10.769  0.7651 -0.0286  0.0306
  106OSM    O1110786   1.168   5.287  10.521 -0.1173 -0.0925 -0.1065
  106OSM    O1210787   1.352   5.159  10.635 -0.3473  0.5346  0.3523
  106OSM    C1S10788   1.158   5.232  10.388 -0.0582 -0.6625  0.3192
  106OSM    H1S10789   1.050   5.206  10.383 -0.2566 -0.5798  2.9049
  106OSM    H1T10790   1.228   5.148  10.367  1.1261  0.7984 -2.0206
  106OSM     NF10791   1.191   5.258  10.143 -0.3064  0.3324 -0.2550
  106OSM    HNF10792   1.275   5.223  10.102  0.5975  2.6872 -0.5494
  106OSM    C2S10793   1.196   5.330  10.267  0.1223 -0.1115 -0.2214
  106OSM    H2S10794   1.135   5.422  10.256  0.8152  0.2398 -1.3399
  106OSM    C3S10795   1.337   5.392  10.292 -0.3716 -0.3869  1.1695
  106OSM    H3S10796   1.403   5.302  10.297 -2.0441 -1.8846 -1.2979
  106OSM     O310797   1.338   5.481  10.406  0.6034 -0.2305  0.0814
  106OSM    HO310798   1.243   5.489  10.419  0.5622  0.3556 -0.5429
  106OSM    C4S10799   1.391   5.468  10.175  0.0689  0.4994 -0.3750
  106OSM    H4S10800   1.463   5.413  10.114  0.9374  1.7381 -0.5145
  106OSM    C5S10801   1.343   5.590  10.148 -0.2429 -1.0032  0.5618
  106OSM    H5S10802   1.263   5.625  10.215  2.4988  1.0940  2.9938
  106OSM    C6S10803   1.370   5.678  10.029  0.3265  0.2284  0.1248
  106OSM    H6S10804   1.441   5.761  10.052  0.0536  0.6637 -0.5720
  106OSM    H6T10805   1.272   5.721  10.000 -0.6877 -0.7775  1.8764
  106OSM    C7S10806   1.423   5.602   9.902 -0.1694 -0.4030  0.7070
  106OSM    H7S10807   1.371   5.504   9.891  0.4234 -0.6100 -0.3684
  106OSM    H7T10808   1.528   5.583   9.930  0.6875  2.3340 -0.3122
  106OSM    C8S10809   1.406   5.682   9.775 -0.2328  0.9355  0.2787
  106OSM    H8S10810   1.448   5.783   9.797 -1.2044  1.3709  0.1822
  106OSM    H8T10811   1.298   5.695   9.753 -0.3225  0.6742  0.5552
  106OSM    C9S10812   1.474   5.609   9.666 -0.1755  0.0463  0.1046
  106OSM    H9S10813   1.441   5.504   9.649 -0.3664  0.4245 -2.2667
  106OSM    H9T10814   1.577   5.597   9.705  0.0884 -0.2173 -0.6533
  106OSM   C10S10815   1.485   5.694   9.539  0.3524  0.2321  0.9755
  106OSM   H10S10816   1.558   5.773   9.566 -0.5190  1.8052 -1.0228
  106OSM   H10T10817   1.392   5.751   9.515  0.9140  0.8916  0.2982
  106OSM   C11S10818   1.544   5.611   9.422 -0.4990  1.0092  0.0318
  106OSM   H11S10819   1.470   5.530   9.405  0.2810  0.1437  0.5804
  106OSM   H11T10820   1.643   5.568   9.450 -1.9312 -1.6186  1.5352
  106OSM   C12S10821   1.555   5.693   9.294  0.5906 -0.1769  0.2975
  106OSM   H12S10822   1.639   5.764   9.306  1.0702 -0.2179 -2.2147
  106OSM   H12T10823   1.465   5.757   9.281 -0.3527 -1.7639 -1.6686
  106OSM   C13S10824   1.576   5.604   9.165  0.1141  0.4868 -0.4962
  106OSM   H13S10825   1.496   5.526   9.161 -0.2369  0.6172  1.9903
  106OSM   H13T10826   1.675   5.555   9.170  0.2672  0.8906  1.1427
  106OSM   C14S10827   1.582   5.688   9.037  0.2269  0.1137  0.0001
  106OSM   H14S10828   1.681   5.733   9.017  0.9889 -1.2826  0.4796
  106OSM   H14T10829   1.503   5.766   9.046 -0.3005 -0.5301  1.1601
  106OSM   C15S10830   1.552   5.595   8.917 -0.1420  0.4853 -0.4965
  106OSM   H15S10831   1.565   5.665   8.832 -2.5384  2.3266  0.5619
  106OSM   H15T10832   1.445   5.567   8.924  0.3282 -1.1994  0.3663
  106OSM   C16S10833   1.666   5.489   8.906  0.0372 -0.5257 -0.8068
  106OSM   H16S10834   1.639   5.400   8.967  1.4729  1.0969  2.4874
  106OSM   H16T10835   1.768   5.525   8.933 -0.0790 -1.6185  1.2877
  106OSM   C17S10836   1.678   5.429   8.759 -0.2067 -0.1332  0.5881
  106OSM   H17S10837   1.765   5.361   8.769 -0.9653 -1.1625  0.3345
  106OSM   H17T10838   1.705   5.515   8.694 -1.6008  0.6851  1.0433
  106OSM   C18S10839   1.542   5.364   8.713 -0.2931 -0.5434 -0.0873
  106OSM   H18S10840   1.514   5.299   8.798 -3.2586  1.7787  0.8943
  106OSM   H18T10841   1.568   5.322   8.614 -2.2489  0.0043 -0.8647
  106OSM   H18U10842   1.460   5.438   8.698  0.8590  1.1497  1.4776
  106OSM    C1F10843   1.074   5.220  10.094  0.2361  0.2159 -0.0805
  106OSM     OF10844   0.964   5.252  10.142 -0.1820  0.3612  0.4242
  106OSM    C2F10845   1.090   5.141   9.971  0.0644  0.6044  0.0323
  106OSM    H2F10846   1.130   5.041   9.996  0.9322  0.6671 -1.0429
  106OSM    H2G10847   1.175   5.175   9.908  0.5506 -1.3947 -0.4385
  106OSM    C3F10848   0.959   5.141   9.889  0.5956 -0.6567  0.7625
  106OSM    H3F10849   0.928   5.247   9.878 -2.5664 -1.6801 -1.7468
  106OSM    H3G10850   0.874   5.098   9.946 -1.2880  1.0334 -0.6125
  106OSM    C4F10851   0.981   5.072   9.755  0.1908 -0.1743 -0.5794
  106OSM    H4F10852   0.971   4.961   9.765 -1.6964  0.1374  2.4210
  106OSM    H4G10853   1.077   5.090   9.702 -1.2703  0.0315 -3.3598
  106OSM    C5F10854   0.874   5.125   9.657  0.3625  0.0533 -0.5573
  106OSM    H5F10855   0.883   5.232   9.626 -2.6915  0.2858 -0.9415
  106OSM    H5G10856   0.779   5.123   9.715 -0.0578  1.9393 -1.1132
  106OSM    C6F10857   0.859   5.050   9.523  0.8924 -0.7624  0.0730
  106OSM    H6F10858   0.800   5.101   9.444 -0.1446 -3.8414 -1.2942
  106OSM    H6G10859   0.828   4.945   9.539  2.5262 -1.0954  1.3874
  106OSM    C7F10860   0.999   5.036   9.464  0.1703 -0.2263 -0.4895
  106OSM    H7F10861   1.057   4.970   9.532  1.2116 -0.0146 -1.1531
  106OSM    H7G10862   1.056   5.129   9.444  2.3399 -1.6924 -1.4526
  106OSM    C8F10863   1.009   4.966   9.324  0.7429 -0.7255  0.0684
  106OSM    H8F10864   0.947   4.874   9.325 -0.2851 -0.0504 -0.0141
  106OSM    H8G10865   1.112   4.934   9.300  1.3283  0.5105  0.8322
  106OSM    C9F10866   0.966   5.056   9.209 -0.2034  0.4796  0.1737
  106OSM    H9F10867   0.890   5.131   9.234  1.8834  2.1177  2.0032
  106OSM   C10F10868   1.013   5.045   9.084 -0.9223 -0.0206 -0.6702
  106OSM   H10F10869   0.973   5.116   9.011 -1.5845  0.0616 -0.2325
  106OSM   C11F10870   1.105   4.937   9.024 -0.8858 -0.1100  0.4871
  106OSM   H11F10871   1.064   4.902   8.927 -1.1521 -4.1672  1.8730
  106OSM   H11G10872   1.095   4.846   9.088 -1.7719 -0.4866 -0.1611
  106OSM   C12F10873   1.245   4.983   9.012 -0.6437 -0.3542  0.7172
  106OSM   H12F10874   1.303   4.961   9.105 -0.9157  3.0099  1.8358
  106OSM   H12G10875   1.240   5.093   8.998 -2.4799 -0.6504 -1.3786
  106OSM   C13F10876   1.323   4.924   8.892  0.2697 -0.0151  0.0550
  106OSM   H13F10877   1.403   4.996   8.863 -0.8796  1.9557  1.4861
  106OSM   H13G10878   1.255   4.932   8.805 -0.1879  1.1969  0.4897
  106OSM   C14F10879   1.369   4.784   8.913 -0.0383  0.3656 -0.0033
  106OSM   H14F10880   1.287   4.713   8.936  0.6212 -0.0107  1.3203
  106OSM   H14G10881   1.442   4.769   8.995 -1.1592  0.1772  0.9744
  106OSM   C15F10882   1.433   4.739   8.779  0.3202 -0.4806  0.2803
  106OSM   H15F10883   1.492   4.814   8.722  0.5066 -0.6296  0.2759
  106OSM   H15G10884   1.344   4.712   8.718 -0.5807  2.1439  0.2915
  106OSM   C16F10885   1.513   4.610   8.780 -0.2302  1.2306  0.2141
  106OSM   H16F10886   1.445   4.536   8.828  1.5815 -2.2152 -2.0855
  106OSM   H16G10887   1.591   4.619   8.858 -0.0822 -1.1877  0.4313
  106OSM   C17F10888   1.548   4.557   8.645  0.1030 -0.1712 -0.0370
  106OSM   H17F10889   1.450   4.533   8.598 -0.0278 -0.6021  0.4479
  106OSM   H17G10890   1.588   4.456   8.664 -1.7533 -0.7869  0.8579
  106OSM   C18F10891   1.630   4.639   8.550 -0.2734 -0.5612 -0.0514
  106OSM   H18F10892   1.572   4.731   8.527 -1.7382 -2.0153 -2.6499
  106OSM   H18G10893   1.645   4.586   8.454  1.1208  1.4288 -0.9976
  106OSM   H18H10894   1.732   4.649   8.592  0.1289 -0.9616 -0.9188
  107OSM      N10895   6.741   3.384  10.981 -0.0955 -0.2567 -0.1871
  107OSM    C1510896   6.852   3.485  11.010 -0.4452  0.5414  0.9186
  107OSM   H15A10897   6.866   3.550  10.926  0.8175 -1.2970 -0.3800
  107OSM   H15B10898   6.945   3.433  11.033 -1.4595 -2.5755 -1.2907
  107OSM   H15C10899   6.824   3.534  11.102  1.8967  1.5949  1.1378
  107OSM    C1410900   6.762   3.317  10.857 -0.6698  1.0266  0.4486
  107OSM   H14A10901   6.771   3.390  10.778  0.9266  0.2493 -0.1395
  107OSM   H14B10902   6.675   3.256  10.837 -0.0059  0.3137 -0.3806
  107OSM   H14C10903   6.845   3.248  10.861 -3.4180 -2.5575  0.2918
  107OSM    C1310904   6.724   3.288  11.096  0.3135 -0.1516 -0.1548
  107OSM   H13A10905   6.817   3.234  11.103  0.2922 -0.0791  0.7178
  107OSM   H13B10906   6.639   3.223  11.082 -0.0643 -0.0526  1.5479
  107OSM   H13C10907   6.708   3.339  11.189  2.1999 -1.9429  1.2448
  107OSM    C1210908   6.606   3.462  10.969  0.0642 -0.5701 -0.0786
  107OSM   H12A10909   6.596   3.524  11.056  0.1819 -1.4419  0.5750
  107OSM   H12B10910   6.533   3.383  10.978  0.7639 -1.4235 -1.5362
  107OSM    C1110911   6.575   3.527  10.833  0.1699  0.2712  0.1969
  107OSM   H11A10912   6.474   3.572  10.831  0.9616  2.1706  0.9101
  107OSM   H11B10913   6.563   3.445  10.759  0.5310 -0.0842  0.5242
  107OSM      P10914   6.694   3.760  10.860  0.2442 -0.2365  0.2619
  107OSM    O1310915   6.627   3.759  10.989  0.3911  0.1107 -0.2355
  107OSM    O1410916   6.834   3.794  10.856 -0.2275 -0.3266  0.3032
  107OSM    O1110917   6.618   3.855  10.759  0.3328  0.6422  0.2722
  107OSM    O1210918   6.680   3.615  10.788  0.0324  0.0932 -0.1031
  107OSM    C1S10919   6.629   3.844  10.617  0.2159  0.5792 -0.2643
  107OSM    H1S10920   6.711   3.772  10.594 -1.8508 -1.8870 -0.3342
  107OSM    H1T10921   6.638   3.949  10.584 -1.3157  0.4308 -1.2533
  107OSM     NF10922   6.519   3.782  10.410 -0.2527  0.1478  0.3881
  107OSM    HNF10923   6.493   3.859  10.351 -1.5458  0.0595  0.8098
  107OSM    C2S10924   6.497   3.799  10.553  0.4345  0.3605  0.5757
  107OSM    H2S10925   6.463   3.701  10.593 -1.1227  1.3129  1.7416
  107OSM    C3S10926   6.380   3.897  10.601 -0.1298 -0.0074  0.8030
  107OSM    H3S10927   6.407   3.997  10.559  0.0245 -0.3635  0.0335
  107OSM     O310928   6.349   3.905  10.736  0.3034 -0.2020  0.3278
  107OSM    HO310929   6.425   3.872  10.783 -0.0936  0.3628  1.4022
  107OSM    C4S10930   6.256   3.851  10.530  0.4057 -0.2917 -0.1072
  107OSM    H4S10931   6.231   3.745  10.545 -1.5329  0.2634  0.8467
  107OSM    C5S10932   6.176   3.920  10.448  0.5332  0.8059 -0.2154
  107OSM    H5S10933   6.188   4.027  10.429  0.5620  0.4866 -2.1913
  107OSM    C6S10934   6.046   3.865  10.385 -0.2412 -0.5624  0.2081
  107OSM    H6S10935   5.961   3.899  10.448  0.1671 -0.2344  0.5926
  107OSM    H6T10936   6.042   3.755  10.399  1.5973 -0.5161  1.5580
  107OSM    C7S10937   6.021   3.898  10.240  0.8785 -0.0041  1.1180
  107OSM    H7S10938   6.046   4.004  10.216 -0.7263 -0.0333 -1.0007
  107OSM    H7T10939   5.914   3.891  10.210  1.4916  0.6087 -1.4995
  107OSM    C8S10940   6.087   3.796  10.137  0.5517  0.0362 -0.1852
  107OSM    H8S10941   6.027   3.702  10.140  3.6316 -2.0585  0.2434
  107OSM    H8T10942   6.182   3.760  10.181  0.2937 -0.9221 -0.3807
  107OSM    C9S10943   6.106   3.863  10.005  0.5032 -0.1063  0.2076
  107OSM    H9S10944   6.196   3.926  10.022  0.6790 -0.4650  0.6152
  107OSM    H9T10945   6.023   3.931   9.977  2.8007  2.7661 -0.1126
  107OSM   C10S10946   6.143   3.763   9.892  0.5692 -0.3782  0.9754
  107OSM   H10S10947   6.069   3.682   9.877 -0.6092  0.8086  0.1006
  107OSM   H10T10948   6.233   3.719   9.939 -0.7731 -3.1194  1.1606
  107OSM   C11S10949   6.185   3.829   9.761  0.5117 -0.5151 -0.2146
  107OSM   H11S10950   6.284   3.875   9.776  1.7142 -2.1370 -2.5115
  107OSM   H11T10951   6.116   3.908   9.723  2.3523  1.1843 -0.1542
  107OSM   C12S10952   6.214   3.732   9.635 -0.1990 -0.4465 -0.3438
  107OSM   H12S10953   6.259   3.638   9.674 -2.4775 -1.7767 -0.7052
  107OSM   H12T10954   6.293   3.786   9.580  1.1555 -1.1913  0.7953
  107OSM   C13S10955   6.104   3.702   9.533  0.0065 -0.3794  0.2351
  107OSM   H13S10956   6.019   3.645   9.577 -1.0703  0.2996 -0.8961
  107OSM   H13T10957   6.138   3.642   9.446 -0.6726  0.8061 -0.8832
  107OSM   C14S10958   6.043   3.833   9.480  1.0421  0.1843 -0.1107
  107OSM   H14S10959   6.129   3.898   9.452  0.0625  0.5526 -2.5496
  107OSM   H14T10960   5.978   3.879   9.558 -3.1073 -0.2114 -3.0190
  107OSM   C15S10961   5.969   3.811   9.344 -0.0909 -0.1699 -0.2130
  107OSM   H15S10962   5.886   3.738   9.350 -1.2568  1.1310  0.2271
  107OSM   H15T10963   6.041   3.762   9.276 -2.6323 -1.9255 -1.8090
  107OSM   C16S10964   5.920   3.939   9.277  0.1869  0.0131  0.4722
  107OSM   H16S10965   6.008   4.006   9.274 -0.6270  1.0749 -0.0350
  107OSM   H16T10966   5.846   3.973   9.352  0.3268 -0.1670  0.6965
  107OSM   C17S10967   5.861   3.907   9.139 -0.2712 -0.2474  0.3824
  107OSM   H17S10968   5.809   3.810   9.147 -0.8190 -0.0841 -0.9087
  107OSM   H17T10969   5.931   3.894   9.053 -0.3833 -0.8638  0.3782
  107OSM   C18S10970   5.762   4.014   9.100 -0.0360  0.4873  0.6758
  107OSM   H18S10971   5.819   4.107   9.123  3.3095 -1.4651  1.0100
  107OSM   H18T10972   5.675   4.018   9.169  0.5170  0.7551  1.3807
  107OSM   H18U10973   5.743   4.019   8.991 -1.5643  1.8376  0.9638
  107OSM    C1F10974   6.582   3.686  10.348 -0.3361  0.2167  0.0378
  107OSM     OF10975   6.643   3.606  10.415  0.3074 -0.2847  0.2129
  107OSM    C2F10976   6.582   3.688  10.199  0.1184 -0.3681  0.1942
  107OSM    H2F10977   6.690   3.687  10.174 -0.1754 -2.7669 -1.2514
  107OSM    H2G10978   6.547   3.782  10.152 -0.2201 -0.4294  0.3205
  107OSM    C3F10979   6.518   3.564  10.129  0.4609 -0.3317 -0.9444
  107OSM    H3F10980   6.415   3.564  10.171  0.8598  2.5371  0.2809
  107OSM    H3G10981   6.576   3.470  10.139  2.6177  1.0620  0.4989
  107OSM    C4F10982   6.519   3.589   9.973  0.6008 -0.4874 -0.0087
  107OSM    H4F10983   6.622   3.625   9.952  0.3649 -0.4589 -1.2412
  107OSM    H4G10984   6.454   3.671   9.936  3.5404  1.5000 -1.1276
  107OSM    C5F10985   6.490   3.455   9.906  0.2770  0.8208  0.4723
  107OSM    H5F10986   6.394   3.417   9.946  0.7052 -0.3564  0.4122
  107OSM    H5G10987   6.576   3.396   9.945  0.6063 -0.1508 -1.6138
  107OSM    C6F10988   6.498   3.455   9.755 -0.0990  0.8827  0.3608
  107OSM    H6F10989   6.586   3.515   9.723 -0.2044  1.3201  0.8899
  107OSM    H6G10990   6.410   3.501   9.706  1.2425  1.0827 -2.0366
  107OSM    C7F10991   6.519   3.306   9.693  0.0119 -0.0980  0.1637
  107OSM    H7F10992   6.434   3.247   9.733 -1.1147 -0.5926 -2.7387
  107OSM    H7G10993   6.615   3.264   9.731  0.4174 -1.3895 -2.1162
  107OSM    C8F10994   6.509   3.302   9.538  0.5044 -0.6073 -1.0396
  107OSM    H8F10995   6.568   3.214   9.503  0.3308 -2.3817  2.6059
  107OSM    H8G10996   6.569   3.389   9.505  0.3008 -0.7405 -1.7820
  107OSM    C9F10997   6.374   3.317   9.462 -0.6877  0.5551 -0.0764
  107OSM    H9F10998   6.295   3.244   9.485 -0.0280 -0.2037 -0.1647
  107OSM   C10F10999   6.340   3.425   9.393  0.7623 -0.2855 -0.3978
  107OSM   H10F11000   6.239   3.427   9.348  0.3914 -0.5053  0.4116
  107OSM   C11F11001   6.427   3.543   9.359 -0.1707  0.3073 -0.2034
  107OSM   H11F11002   6.505   3.562   9.436  0.5078 -0.5570 -0.6541
  107OSM   H11G11003   6.373   3.640   9.356  2.0182  1.7953  2.9706
  107OSM   C12F11004   6.502   3.525   9.230 -0.0069  0.4830  0.2193
  107OSM   H12F11005   6.568   3.436   9.241 -1.7559 -0.8146  0.6593
  107OSM   H12G11006   6.570   3.612   9.217 -0.9983  1.2625  0.1676
  107OSM   C13F11007   6.417   3.501   9.106 -0.1103  0.0188  0.8515
  107OSM   H13F11008   6.372   3.399   9.107 -1.7478  0.6992  0.5404
  107OSM   H13G11009   6.482   3.494   9.016 -0.0208  0.7067  0.8538
  107OSM   C14F11010   6.304   3.603   9.073 -0.3243  0.1887 -0.2064
  107OSM   H14F11011   6.348   3.702   9.048  2.4398 -1.1612 -1.1068
  107OSM   H14G11012   6.237   3.619   9.161 -0.3818 -0.9250 -0.0363
  107OSM   C15F11013   6.203   3.562   8.969 -0.1545  0.4527 -0.5426
  107OSM   H15F11014   6.154   3.471   9.009 -0.4270  0.2521 -1.3284
  107OSM   H15G11015   6.241   3.538   8.867 -0.3581 -1.4024 -0.2182
  107OSM   C16F11016   6.101   3.675   8.939 -0.1886 -0.6734 -1.0356
  107OSM   H16F11017   6.153   3.770   8.917  1.1016 -1.3881 -1.1371
  107OSM   H16G11018   6.045   3.694   9.033  2.2825  0.5791  0.2664
  107OSM   C17F11019   5.996   3.643   8.833 -0.2596  0.7435  0.3641
  107OSM   H17F11020   5.937   3.552   8.858 -1.3074  0.5832 -2.3723
  107OSM   H17G11021   6.061   3.616   8.747 -0.8987 -1.7164  0.5772
  107OSM   C18F11022   5.905   3.755   8.797 -0.2331 -0.1323  0.2190
  107OSM   H18F11023   5.955   3.854   8.786  0.6617 -0.6681 -0.7244
  107OSM   H18G11024   5.823   3.765   8.871  0.7173 -0.1130  1.2896
  107OSM   H18H11025   5.858   3.735   8.698  1.8057  0.2201 -0.8670
  108OSM      N11026   0.673   4.324  10.817 -0.5277 -0.2179  0.0335
  108OSM    C1511027   0.689   4.460  10.874 -0.0348  0.4638 -0.0518
  108OSM   H15A11028   0.787   4.471  10.918  1.2312 -2.3065 -1.8810
  108OSM   H15B11029   0.615   4.476  10.951 -1.8565 -0.3823 -1.5439
  108OSM   H15C11030   0.682   4.536  10.798  0.4431 -0.9368 -1.5768
  108OSM    C1411031   0.676   4.234  10.934  0.6179  0.3546  0.5432
  108OSM   H14A11032   0.671   4.135  10.892 -3.1053  0.6320  0.0095
  108OSM   H14B11033   0.583   4.241  10.989 -0.5180 -1.0342 -1.0988
  108OSM   H14C11034   0.760   4.253  11.000  0.4162 -0.1980  0.9682
  108OSM    C1311035   0.541   4.317  10.753 -0.1828 -0.1798  0.0055
  108OSM   H13A11036   0.540   4.379  10.664 -1.1806 -1.4772 -0.9210
  108OSM   H13B11037   0.465   4.357  10.818  0.3075 -0.9370  1.0855
  108OSM   H13C11038   0.513   4.217  10.724  0.8643 -0.9131  1.3943
  108OSM    C1211039   0.791   4.282  10.721 -0.0376  0.2151 -0.2090
  108OSM   H12A11040   0.891   4.295  10.761 -0.0793 -0.1782  0.0271
  108OSM   H12B11041   0.794   4.352  10.639  1.2011 -0.1487 -0.4924
  108OSM    C1111042   0.787   4.143  10.659 -0.5505  0.2235 -0.2500
  108OSM   H11A11043   0.844   4.146  10.563 -0.0955 -0.9920 -0.0331
  108OSM   H11B11044   0.682   4.117  10.634 -0.2767 -0.3559 -0.8328
  108OSM      P11045   0.990   4.005  10.755 -0.1134 -0.6340 -0.1447
  108OSM    O1311046   1.063   4.133  10.742 -0.2369  0.0571  0.2724
  108OSM    O1411047   1.015   3.921  10.872  0.8543  0.3203  0.4076
  108OSM    O1111048   1.003   3.932  10.612  0.2817  0.4770  0.3250
  108OSM    O1211049   0.830   4.038  10.753  0.1144  0.1541 -0.2056
  108OSM    C1S11050   0.911   3.834  10.570  0.6135  0.1817  0.2257
  108OSM    H1S11051   0.819   3.893  10.552 -0.2183 -0.9002  0.7851
  108OSM    H1T11052   0.900   3.759  10.651  1.2920 -0.2331 -0.0529
  108OSM     NF11053   0.835   3.678  10.391  0.3972  0.3301  0.3986
  108OSM    HNF11054   0.848   3.580  10.398  0.0109  0.2858  0.5539
  108OSM    C2S11055   0.943   3.765  10.439 -0.5672  0.4003  0.5250
  108OSM    H2S11056   0.958   3.851  10.371 -2.3350  0.8208  0.6015
  108OSM    C3S11057   1.072   3.689  10.467 -0.2917 -0.1608  0.0707
  108OSM    H3S11058   1.046   3.618  10.548 -0.8970  1.4922  1.3985
  108OSM     O311059   1.186   3.764  10.510  0.0955 -0.3419  0.1849
  108OSM    HO311060   1.142   3.846  10.533 -1.1962 -0.5101 -1.5306
  108OSM    C4S11061   1.116   3.615  10.339 -0.0203  0.4864 -0.0223
  108OSM    H4S11062   1.127   3.677  10.249  0.0687 -0.9237 -1.0140
  108OSM    C5S11063   1.150   3.485  10.325 -0.1602  0.1326 -0.0763
  108OSM    H5S11064   1.153   3.424  10.416  0.0081 -1.4034 -1.0871
  108OSM    C6S11065   1.197   3.414  10.206 -0.5263 -0.6750  0.0787
  108OSM    H6S11066   1.147   3.315  10.195 -1.1906 -0.5379  1.6521
  108OSM    H6T11067   1.306   3.392  10.212 -0.5913 -1.0493 -0.0470
  108OSM    C7S11068   1.184   3.490  10.070 -0.1324 -0.4268 -0.5424
  108OSM    H7S11069   1.236   3.589  10.074 -1.1885  0.2214 -1.9793
  108OSM    H7T11070   1.076   3.511  10.053 -0.3897 -1.3728 -0.1029
  108OSM    C8S11071   1.258   3.415   9.961 -0.4258 -0.0543 -0.8848
  108OSM    H8S11072   1.204   3.318   9.963 -0.0652 -0.2601  0.4241
  108OSM    H8T11073   1.368   3.413   9.979 -0.2727  0.5803 -1.6779
  108OSM    C9S11074   1.253   3.474   9.823  1.1006 -0.5336  0.2102
  108OSM    H9S11075   1.318   3.564   9.820  1.1793 -0.4619  2.1990
  108OSM    H9T11076   1.151   3.506   9.793  0.6521 -1.7625  0.3767
  108OSM   C10S11077   1.289   3.375   9.711 -0.1297  0.2696  0.0321
  108OSM   H10S11078   1.206   3.302   9.712  2.2417 -2.6079  0.0665
  108OSM   H10T11079   1.379   3.322   9.750 -0.0784  0.7352  0.5579
  108OSM   C11S11080   1.298   3.429   9.562 -0.0547 -0.2447  0.3812
  108OSM   H11S11081   1.323   3.355   9.483  3.1035  2.4351 -1.3947
  108OSM   H11T11082   1.393   3.487   9.564  0.8663 -1.7217  0.7437
  108OSM   C12S11083   1.179   3.505   9.501  0.3346  0.1085 -0.0832
  108OSM   H12S11084   1.119   3.556   9.579  0.6071  0.7398 -0.2789
  108OSM   H12T11085   1.115   3.425   9.459  1.8579 -0.1023 -2.1417
  108OSM   C13S11086   1.226   3.594   9.389  0.9083 -0.3376 -0.2421
  108OSM   H13S11087   1.281   3.679   9.435 -1.7048 -0.1243  2.8610
  108OSM   H13T11088   1.130   3.636   9.351  0.1523 -0.6652  1.2435
  108OSM   C14S11089   1.310   3.523   9.276 -0.9909  0.3371 -0.0138
  108OSM   H14S11090   1.250   3.438   9.237 -1.2516  0.0170  1.0446
  108OSM   H14T11091   1.407   3.490   9.320 -0.7464  1.5995  0.4493
  108OSM   C15S11092   1.358   3.620   9.162  0.6322  0.1910  0.3484
  108OSM   H15S11093   1.449   3.586   9.108 -0.6122 -0.5558 -1.3743
  108OSM   H15T11094   1.385   3.714   9.214 -1.2327  0.3019  1.2230
  108OSM   C16S11095   1.244   3.646   9.058  0.0031 -0.4257 -0.2293
  108OSM   H16S11096   1.147   3.666   9.108 -0.1727 -2.2755  0.2440
  108OSM   H16T11097   1.222   3.547   9.011  0.0345  0.5944 -2.5506
  108OSM   C17S11098   1.281   3.744   8.947 -0.6280 -0.8722  0.1923
  108OSM   H17S11099   1.304   3.846   8.984  0.4881  0.0740 -2.7531
  108OSM   H17T11100   1.196   3.753   8.876  0.0390  1.3729 -0.4080
  108OSM   C18S11101   1.404   3.699   8.865 -0.8110 -0.0475  0.1450
  108OSM   H18S11102   1.397   3.600   8.815  0.7659 -1.1523  1.9212
  108OSM   H18T11103   1.497   3.688   8.925 -2.0072 -1.6398  1.8194
  108OSM   H18U11104   1.424   3.778   8.789  0.2969 -2.0390 -1.7601
  108OSM    C1F11105   0.716   3.723  10.343 -0.9629 -0.0137 -0.2490
  108OSM     OF11106   0.674   3.842  10.354  0.1110  0.1808 -0.6845
  108OSM    C2F11107   0.635   3.611  10.276  0.2944  0.5365  0.0538
  108OSM    H2F11108   0.578   3.555  10.353 -1.5486  0.0679 -1.5624
  108OSM    H2G11109   0.705   3.544  10.222  1.8218  1.5651  0.6882
  108OSM    C3F11110   0.530   3.665  10.169  0.1725 -0.5412 -0.7687
  108OSM    H3F11111   0.510   3.773  10.187 -0.1583 -0.3795 -1.9782
  108OSM    H3G11112   0.431   3.621  10.195  0.0941  1.4185  2.7717
  108OSM    C4F11113   0.576   3.651  10.021  0.3860 -0.4456 -0.0731
  108OSM    H4F11114   0.602   3.546   9.998 -1.3039 -0.8985  0.0010
  108OSM    H4G11115   0.674   3.702  10.009 -0.7185  1.9395  0.3310
  108OSM    C5F11116   0.475   3.718   9.929 -0.3451 -0.0555 -0.1396
  108OSM    H5F11117   0.455   3.825   9.955 -0.9442 -0.2165  0.0827
  108OSM    H5G11118   0.380   3.661   9.943 -0.5621  0.3535  0.1134
  108OSM    C6F11119   0.518   3.713   9.783  0.0005 -0.1275 -1.0619
  108OSM    H6F11120   0.523   3.614   9.733  2.6556 -0.8645  0.4531
  108OSM    H6G11121   0.615   3.767   9.772 -0.0792  0.1659 -0.3726
  108OSM    C7F11122   0.416   3.800   9.700 -0.4632 -0.0628 -0.3838
  108OSM    H7F11123   0.417   3.897   9.754 -1.2318  0.3734 -1.1360
  108OSM    H7G11124   0.314   3.759   9.715 -0.9159  1.5062  1.1640
  108OSM    C8F11125   0.437   3.819   9.550  0.0359  0.3852  0.3695
  108OSM    H8F11126   0.541   3.843   9.520 -0.7657  0.3185 -2.7911
  108OSM    H8G11127   0.376   3.899   9.502 -1.0022 -0.5490  0.0994
  108OSM    C9F11128   0.399   3.697   9.463  0.6823 -0.2630 -0.4361
  108OSM    H9F11129   0.359   3.614   9.524  0.6120  0.4092  0.4507
  108OSM   C10F11130   0.426   3.685   9.332  0.1250 -0.3207  0.6567
  108OSM   H10F11131   0.390   3.592   9.285 -1.4313  0.9928 -0.8847
  108OSM   C11F11132   0.490   3.789   9.240 -0.3907 -0.3125  0.0228
  108OSM   H11F11133   0.576   3.749   9.182 -0.5770 -2.5358  1.1547
  108OSM   H11G11134   0.544   3.866   9.299  1.2273  0.9045 -2.8426
  108OSM   C12F11135   0.407   3.879   9.148 -1.3103 -0.7742  0.0203
  108OSM   H12F11136   0.484   3.949   9.109 -0.1916 -2.0209 -0.0749
  108OSM   H12G11137   0.333   3.939   9.204 -2.2055 -0.2939 -1.6222
  108OSM   C13F11138   0.344   3.805   9.028 -0.3801  0.4926  0.4590
  108OSM   H13F11139   0.275   3.723   9.056  0.3740  0.5040  2.5596
  108OSM   H13G11140   0.423   3.744   8.980 -2.5115 -1.1000 -1.2463
  108OSM   C14F11141   0.286   3.908   8.921  0.6965  0.0153 -0.2182
  108OSM   H14F11142   0.366   3.980   8.892 -0.9293  1.3301 -1.5717
  108OSM   H14G11143   0.226   3.977   8.985  0.6319  0.8591 -1.1720
  108OSM   C15F11144   0.209   3.844   8.808  0.1485 -0.0647  0.3038
  108OSM   H15F11145   0.141   3.918   8.759  0.5005  1.6348  2.2505
  108OSM   H15G11146   0.148   3.758   8.842 -2.5845  2.5091  2.5251
  108OSM   C16F11147   0.292   3.793   8.689  0.3375  0.5912  0.6692
  108OSM   H16F11148   0.351   3.714   8.740 -0.1584 -0.0224  0.3048
  108OSM   H16G11149   0.355   3.874   8.646 -0.8254  0.8357 -0.6265
  108OSM   C17F11150   0.215   3.716   8.581 -0.7042  0.3010  0.0750
  108OSM   H17F11151   0.135   3.647   8.617 -0.4526 -0.0337  0.0024
  108OSM   H17G11152   0.286   3.649   8.528 -0.3795  0.8046 -0.1264
  108OSM   C18F11153   0.167   3.808   8.476 -0.0782 -0.5589  0.1603
  108OSM   H18F11154   0.116   3.758   8.391  0.2641  0.2283 -0.5248
  108OSM   H18G11155   0.250   3.875   8.445 -0.0827 -0.8615 -0.5342
  108OSM   H18H11156   0.082   3.868   8.515  1.5529  0.9894  1.5089
  109OSM      N11157   6.470   4.223  11.108  0.5055 -0.2606 -0.1088
  109OSM    C1511158   6.478   4.160  11.246  0.1631 -0.1111  0.3309
  109OSM   H15A11159   6.438   4.229  11.318  0.6759 -0.5720  1.0746
  109OSM   H15B11160   6.580   4.148  11.279 -0.5314 -0.3640  2.5377
  109OSM   H15C11161   6.428   4.064  11.253 -0.2251  0.0501 -0.1538
  109OSM    C1411162   6.566   4.341  11.101  0.1931  0.4478 -0.1682
  109OSM   H14A11163   6.544   4.415  11.176  1.8201  0.8404 -0.0294
  109OSM   H14B11164   6.553   4.388  11.004 -4.7009  0.8011  0.4424
  109OSM   H14C11165   6.665   4.304  11.123  0.2228  0.3857 -0.4052
  109OSM    C1311166   6.509   4.123  11.008 -0.3519 -0.0124  0.4965
  109OSM   H13A11167   6.617   4.131  11.005 -0.1743 -0.3720  3.1450
  109OSM   H13B11168   6.470   4.142  10.909 -1.4053  0.5979  1.0077
  109OSM   H13C11169   6.488   4.020  11.033 -2.0465  0.0677 -0.4307
  109OSM    C1211170   6.323   4.266  11.075 -0.1247 -0.1058 -0.7361
  109OSM   H12A11171   6.291   4.351  11.134 -3.8209 -0.2445 -2.3239
  109OSM   H12B11172   6.260   4.182  11.097 -0.3370  0.6543  1.8995
  109OSM    C1111173   6.306   4.311  10.929 -0.2760 -0.4916  0.7096
  109OSM   H11A11174   6.307   4.222  10.862 -1.1863  0.7951 -1.1003
  109OSM   H11B11175   6.382   4.385  10.896 -1.7024 -0.0637 -1.8515
  109OSM      P11176   6.040   4.306  10.891  0.1231  0.4651 -0.3991
  109OSM    O1311177   6.051   4.164  10.937  0.1786  0.3062 -0.1117
  109OSM    O1411178   5.925   4.384  10.951  0.4326 -0.3466  0.8207
  109OSM    O1111179   6.018   4.304  10.737  0.0562  0.2972 -0.1312
  109OSM    O1211180   6.177   4.377  10.921 -0.3978 -0.1855  0.4115
  109OSM    C1S11181   6.029   4.415  10.656  0.5169 -0.1817 -0.0277
  109OSM    H1S11182   6.122   4.474  10.666 -0.2945  1.2149 -0.4773
  109OSM    H1T11183   5.949   4.487  10.683  1.7176  0.5238  1.8729
  109OSM     NF11184   6.048   4.481  10.408  0.4696  0.0766  0.1123
  109OSM    HNF11185   5.984   4.531  10.350  0.7712  0.7121  0.3154
  109OSM    C2S11186   5.991   4.385  10.508  0.1556 -0.1018  0.0117
  109OSM    H2S11187   6.045   4.293  10.476 -0.9188  0.3908 -3.7379
  109OSM    C3S11188   5.840   4.355  10.500 -0.5007 -0.4170 -0.3136
  109OSM    H3S11189   5.775   4.443  10.520 -3.3509 -2.7108  1.3008
  109OSM     O311190   5.793   4.246  10.581 -0.2824 -0.3755  0.4646
  109OSM    HO311191   5.860   4.249  10.650  1.0617 -0.0325 -0.8074
  109OSM    C4S11192   5.807   4.317  10.352 -0.3321  0.3643 -0.1420
  109OSM    H4S11193   5.809   4.401  10.282  0.7739 -0.2192 -0.8379
  109OSM    C5S11194   5.785   4.191  10.304 -0.7503  0.2123 -0.8326
  109OSM    H5S11195   5.789   4.098  10.363  2.8446  0.3450 -0.6291
  109OSM    C6S11196   5.745   4.172  10.157 -0.4508  0.0535  0.3323
  109OSM    H6S11197   5.660   4.232  10.119  0.2904 -0.8029 -3.0643
  109OSM    H6T11198   5.717   4.064  10.151  1.7122 -0.5455 -0.1915
  109OSM    C7S11199   5.858   4.195  10.056  0.2844  0.5382 -0.1154
  109OSM    H7S11200   5.951   4.142  10.088 -1.1126 -2.1828 -0.1972
  109OSM    H7T11201   5.884   4.303  10.055  0.6112  0.5580  2.7151
  109OSM    C8S11202   5.831   4.122   9.924 -0.3741  1.1766  0.5419
  109OSM    H8S11203   5.814   4.013   9.911 -0.2067  1.4196 -2.5123
  109OSM    H8T11204   5.924   4.153   9.872 -0.0307  1.4967  1.3352
  109OSM    C9S11205   5.722   4.187   9.848  0.4910  0.1732  0.4145
  109OSM    H9S11206   5.737   4.296   9.863  1.4773  0.2256 -0.7199
  109OSM    H9T11207   5.618   4.158   9.873 -0.2409 -0.1652 -2.6197
  109OSM   C10S11208   5.716   4.165   9.695 -1.1058  0.5808 -0.0141
  109OSM   H10S11209   5.726   4.056   9.674 -0.6500 -0.1433  3.3656
  109OSM   H10T11210   5.790   4.216   9.630 -3.3946  1.2403 -2.2349
  109OSM   C11S11211   5.585   4.202   9.635 -0.5808 -0.2679  0.3381
  109OSM   H11S11212   5.564   4.307   9.665 -0.4625 -0.2108  0.2181
  109OSM   H11T11213   5.507   4.134   9.676 -1.0967  0.0504 -0.0911
  109OSM   C12S11214   5.589   4.175   9.491 -0.0053  0.1542  0.6960
  109OSM   H12S11215   5.594   4.065   9.475 -0.5713  0.1830  0.2908
  109OSM   H12T11216   5.688   4.217   9.464 -0.4057  2.2522  2.2200
  109OSM   C13S11217   5.469   4.227   9.405  0.1437  0.4373 -0.1254
  109OSM   H13S11218   5.453   4.331   9.440 -1.7717  0.0500  0.3031
  109OSM   H13T11219   5.376   4.168   9.421  0.5900 -0.2691 -0.0759
  109OSM   C14S11220   5.504   4.245   9.262  0.1973  0.4116 -0.0666
  109OSM   H14S11221   5.478   4.145   9.221 -1.7763  0.1973  1.5354
  109OSM   H14T11222   5.613   4.267   9.255  0.9995 -1.9569  2.7875
  109OSM   C15S11223   5.418   4.352   9.195  0.2332 -0.3457  0.4353
  109OSM   H15S11224   5.435   4.449   9.246  0.5288 -1.1519  1.9280
  109OSM   H15T11225   5.314   4.322   9.218  0.8150 -2.8128  0.1728
  109OSM   C16S11226   5.449   4.379   9.047 -0.1300  0.2541 -0.7436
  109OSM   H16S11227   5.501   4.290   9.006 -0.6088 -0.8272  0.8634
  109OSM   H16T11228   5.524   4.461   9.039  0.6451 -0.0594  2.0794
  109OSM   C17S11229   5.327   4.401   8.955 -0.0467 -0.9439  0.5742
  109OSM   H17S11230   5.264   4.489   8.981 -0.0799 -1.1026  1.0426
  109OSM   H17T11231   5.255   4.320   8.979  0.3019 -1.7794 -1.0159
  109OSM   C18S11232   5.370   4.413   8.809 -0.2968  0.1805  0.3883
  109OSM   H18S11233   5.444   4.495   8.796 -1.0165  0.6835 -0.7539
  109OSM   H18T11234   5.285   4.425   8.739  0.7470 -0.5054 -1.0799
  109OSM   H18U11235   5.418   4.316   8.783  2.3215  1.3628  0.4141
  109OSM    C1F11236   6.174   4.496  10.385 -0.2006  0.0286 -0.3649
  109OSM     OF11237   6.256   4.435  10.458 -0.1924 -0.5688 -0.5217
  109OSM    C2F11238   6.219   4.588  10.276 -0.3390 -0.4616  1.0048
  109OSM    H2F11239   6.136   4.636  10.221  1.0980  1.1848  0.2000
  109OSM    H2G11240   6.278   4.528  10.204 -0.1570  0.4736  0.3677
  109OSM    C3F11241   6.308   4.700  10.324  0.1369  0.0521 -0.4575
  109OSM    H3F11242   6.397   4.651  10.368  0.4880 -2.3353 -3.4714
  109OSM    H3G11243   6.260   4.773  10.393 -1.1696  0.1223 -1.3900
  109OSM    C4F11244   6.367   4.772  10.203 -0.0858  0.3321 -0.2500
  109OSM    H4F11245   6.430   4.715  10.131  0.9058  1.7896 -0.5870
  109OSM    H4G11246   6.440   4.849  10.236  0.0801  0.7340 -1.4825
  109OSM    C5F11247   6.260   4.853  10.126 -0.1381  0.2922 -0.7898
  109OSM    H5F11248   6.218   4.930  10.195  0.3434  1.9857 -2.2988
  109OSM    H5G11249   6.181   4.783  10.090 -0.8936  1.2398 -1.0243
  109OSM    C6F11250   6.311   4.927  10.004 -0.3444 -0.2060  0.0514
  109OSM    H6F11251   6.387   5.003  10.034 -0.1287 -0.2590 -0.3566
  109OSM    H6G11252   6.221   4.978   9.963  0.1363  0.3083 -0.3775
  109OSM    C7F11253   6.369   4.845   9.889  0.5791 -0.2127 -0.1687
  109OSM    H7F11254   6.293   4.770   9.862  2.8201 -3.0894  0.9643
  109OSM    H7G11255   6.453   4.782   9.924  0.4828  0.1190  0.6875
  109OSM    C8F11256   6.414   4.934   9.767 -0.3722 -0.1585 -0.4036
  109OSM    H8F11257   6.495   5.003   9.798 -2.1609  2.2494 -0.8171
  109OSM    H8G11258   6.332   4.994   9.721 -0.4302 -0.3591 -0.5635
  109OSM    C9F11259   6.460   4.837   9.661  0.0785  0.5174  0.3504
  109OSM    H9F11260   6.538   4.765   9.692 -0.5815 -1.2680 -1.9107
  109OSM   C10F11261   6.432   4.841   9.528  0.1564  0.5759 -0.0457
  109OSM   H10F11262   6.469   4.758   9.466  1.7261  1.4330 -0.3062
  109OSM   C11F11263   6.336   4.931   9.455 -0.1496 -0.4239  0.3243
  109OSM   H11F11264   6.386   4.987   9.373 -1.5456  2.1140  1.0948
  109OSM   H11G11265   6.288   5.005   9.523 -0.3196 -1.4603  1.3593
  109OSM   C12F11266   6.228   4.846   9.384  0.0829  0.0510 -0.5445
  109OSM   H12F11267   6.164   4.804   9.464  0.0278  0.6585 -0.2633
  109OSM   H12G11268   6.274   4.753   9.344  0.0304  0.0530 -0.6070
  109OSM   C13F11269   6.158   4.924   9.276 -0.0131 -0.0858 -0.2943
  109OSM   H13F11270   6.163   5.034   9.293 -2.7133  0.1285 -0.3623
  109OSM   H13G11271   6.050   4.900   9.267 -0.1038  0.1360  0.1455
  109OSM   C14F11272   6.213   4.884   9.142  0.1439  0.0577 -0.1049
  109OSM   H14F11273   6.146   4.799   9.116 -1.7449  0.8012  1.9690
  109OSM   H14G11274   6.318   4.859   9.170  0.1703  0.5454  0.2499
  109OSM   C15F11275   6.212   4.990   9.032  0.5618  0.5034 -1.2536
  109OSM   H15F11276   6.267   5.080   9.068 -0.0413  0.1129  0.7285
  109OSM   H15G11277   6.103   5.007   9.025  0.0539 -1.9074 -0.1999
  109OSM   C16F11278   6.268   4.943   8.900 -0.3084 -0.3879  0.1270
  109OSM   H16F11279   6.357   4.879   8.918 -1.1602 -1.2910  1.2978
  109OSM   H16G11280   6.290   5.032   8.838 -3.9991  0.0951 -0.7157
  109OSM   C17F11281   6.164   4.855   8.822  0.1165 -0.5271 -0.1879
  109OSM   H17F11282   6.074   4.916   8.804 -0.1713 -0.6401  0.7733
  109OSM   H17G11283   6.145   4.768   8.889  2.0426 -0.1325  0.9743
  109OSM   C18F11284   6.234   4.818   8.698 -0.0106  0.2500  0.0877
  109OSM   H18F11285   6.338   4.781   8.715  0.0652 -0.2858 -1.4072
  109OSM   H18G11286   6.229   4.899   8.623  0.2371 -0.4309 -0.6791
  109OSM   H18H11287   6.180   4.736   8.645  0.6210  0.7696 -1.3963
  110OSM      N11288   3.273   1.679  11.114  0.0772  0.4480 -0.2827
  110OSM    C1511289   3.353   1.622  11.228 -0.6120 -0.1606 -0.2550
  110OSM   H15A11290   3.343   1.515  11.236 -1.1744 -0.1726 -0.9740
  110OSM   H15B11291   3.335   1.678  11.318 -0.7409  0.1476 -0.4708
  110OSM   H15C11292   3.459   1.626  11.203  0.2169  0.8470  2.9373
  110OSM    C1411293   3.302   1.826  11.102  0.4487  0.4634  0.0140
  110OSM   H14A11294   3.251   1.881  11.180  0.9571  1.8457 -0.5953
  110OSM   H14B11295   3.269   1.868  11.008 -0.0077  0.2674  0.0819
  110OSM   H14C11296   3.407   1.851  11.105  0.2594  1.4095 -0.6720
  110OSM    C1311297   3.321   1.615  10.986 -0.6185  0.3262  0.0812
  110OSM   H13A11298   3.291   1.511  10.976 -1.3493  0.5314  0.0952
  110OSM   H13B11299   3.426   1.627  10.966 -0.4817  0.6715  0.9917
  110OSM   H13C11300   3.261   1.666  10.912 -2.3965  0.2964  1.4285
  110OSM    C1211301   3.126   1.643  11.125 -0.1111  0.6355  0.6033
  110OSM   H12A11302   3.084   1.672  11.220 -0.4627 -1.5453  1.1698
  110OSM   H12B11303   3.119   1.535  11.119  2.2528  0.5207 -2.8226
  110OSM    C1111304   3.030   1.683  11.005 -0.5861  0.4794  0.0563
  110OSM   H11A11305   2.928   1.645  11.027 -0.8842  1.7047  0.9360
  110OSM   H11B11306   3.060   1.622  10.917 -0.6861  2.8338 -1.7044
  110OSM      P11307   2.940   1.930  11.025 -0.3473 -0.1663 -0.2851
  110OSM    O1311308   2.907   1.898  11.166  0.2952  0.1338 -0.3240
  110OSM    O1411309   3.007   2.063  10.997 -0.2062  0.0413  0.2029
  110OSM    O1111310   2.812   1.916  10.934  0.7013 -0.2293 -0.3230
  110OSM    O1211311   3.041   1.820  10.962  0.3463  0.3354 -0.8177
  110OSM    C1S11312   2.833   1.985  10.808 -0.7555 -0.8134 -0.0833
  110OSM    H1S11313   2.933   1.980  10.761 -1.8767 -1.3945 -2.5518
  110OSM    H1T11314   2.802   2.091  10.820  0.8866 -0.2915 -0.1382
  110OSM     NF11315   2.771   2.000  10.578  0.6889 -0.1065  0.2106
  110OSM    HNF11316   2.720   2.084  10.556  1.5974 -0.0971 -2.1781
  110OSM    C2S11317   2.736   1.930  10.697  0.6122 -0.1625  0.9617
  110OSM    H2S11318   2.761   1.825  10.669 -0.8889 -0.2298 -0.3250
  110OSM    C3S11319   2.583   1.946  10.744  0.8173  0.0488 -1.1707
  110OSM    H3S11320   2.566   2.055  10.758  1.5378  0.0516 -0.2343
  110OSM     O311321   2.564   1.883  10.874 -0.4742  0.4808 -0.5657
  110OSM    HO311322   2.655   1.880  10.905  0.0644 -1.2284 -2.1034
  110OSM    C4S11323   2.485   1.901  10.639  0.0037 -0.6311  0.2377
  110OSM    H4S11324   2.470   1.974  10.558  0.8779 -1.3809 -0.6346
  110OSM    C5S11325   2.407   1.792  10.638 -0.5415 -0.4638 -0.2057
  110OSM    H5S11326   2.397   1.723  10.723 -0.0290  0.0755  0.3001
  110OSM    C6S11327   2.312   1.753  10.526  0.0174 -0.8660  0.1908
  110OSM    H6S11328   2.210   1.753  10.570 -1.1422 -1.8774 -2.3377
  110OSM    H6T11329   2.331   1.648  10.494 -3.9910 -1.8099  0.3957
  110OSM    C7S11330   2.302   1.851  10.405  0.2468  0.0305 -0.2716
  110OSM    H7S11331   2.399   1.858  10.351  0.9651 -2.8027  0.4560
  110OSM    H7T11332   2.269   1.950  10.442  1.9818 -0.4704  2.9192
  110OSM    C8S11333   2.208   1.806  10.300 -0.6179  0.1117  0.4247
  110OSM    H8S11334   2.218   1.867  10.207 -0.8251 -1.3232 -0.5662
  110OSM    H8T11335   2.101   1.815  10.330 -0.5627 -1.6230  1.2018
  110OSM    C9S11336   2.223   1.666  10.253 -0.0361  0.2526 -0.4986
  110OSM    H9S11337   2.173   1.600  10.327  0.2995  0.4379 -0.1024
  110OSM    H9T11338   2.331   1.640  10.262 -0.4949 -1.5003  0.2475
  110OSM   C10S11339   2.174   1.647  10.107  0.2041 -0.1872  0.4093
  110OSM   H10S11340   2.072   1.691  10.099  0.6058  1.3804  2.7994
  110OSM   H10T11341   2.172   1.536  10.101 -0.2224 -0.1134 -1.2695
  110OSM   C11S11342   2.267   1.710  10.002  0.3673 -0.0487  0.0081
  110OSM   H11S11343   2.369   1.676  10.030  0.4143  0.2086  0.1456
  110OSM   H11T11344   2.262   1.821  10.005  0.2361 -0.0792  1.7177
  110OSM   C12S11345   2.231   1.655   9.865  0.2544  0.4109 -0.8662
  110OSM   H12S11346   2.266   1.549   9.865  1.3280  0.7501 -0.7032
  110OSM   H12T11347   2.307   1.690   9.792 -0.6630  1.8754 -1.1518
  110OSM   C13S11348   2.084   1.665   9.814  0.0679  0.2933  0.4874
  110OSM   H13S11349   2.066   1.773   9.797  1.7382  0.4014 -0.8393
  110OSM   H13T11350   2.014   1.623   9.890 -0.4802  0.5047  0.1006
  110OSM   C14S11351   2.061   1.590   9.677  0.4723  0.1380  0.2054
  110OSM   H14S11352   2.111   1.492   9.694  0.7918 -0.4400 -3.3588
  110OSM   H14T11353   2.114   1.636   9.591 -0.0147 -0.6195 -0.5134
  110OSM   C15S11354   1.913   1.565   9.648  0.3676  0.4255  0.4327
  110OSM   H15S11355   1.861   1.657   9.613 -0.9283 -0.1419  0.8553
  110OSM   H15T11356   1.857   1.529   9.736 -0.8708  0.3900 -0.3511
  110OSM   C16S11357   1.902   1.465   9.524  0.3461 -0.7303 -1.0186
  110OSM   H16S11358   1.802   1.416   9.517 -0.5852  0.6312  1.5100
  110OSM   H16T11359   1.971   1.381   9.547 -2.0115 -2.3354  0.7821
  110OSM   C17S11360   1.938   1.526   9.385  0.5596 -0.1824  0.0228
  110OSM   H17S11361   1.993   1.437   9.346  2.2005 -0.8317  3.4308
  110OSM   H17T11362   1.999   1.617   9.400  1.2263 -0.8595  1.7129
  110OSM   C18S11363   1.817   1.554   9.294  0.1036 -0.2665  0.0737
  110OSM   H18S11364   1.855   1.589   9.195 -1.1117 -1.2387 -0.7722
  110OSM   H18T11365   1.762   1.635   9.345  1.8318  0.9310  0.1196
  110OSM   H18U11366   1.748   1.467   9.285 -3.0072  2.2003 -2.4410
  110OSM    C1F11367   2.872   1.979  10.501  0.3367  0.2365  1.0987
  110OSM     OF11368   2.948   1.885  10.517 -0.4919  0.3532 -0.5588
  110OSM    C2F11369   2.900   2.079  10.393 -0.4591  0.3557  0.2150
  110OSM    H2F11370   3.006   2.108  10.412  0.3793 -1.7671 -0.8394
  110OSM    H2G11371   2.838   2.171  10.392 -3.0667 -1.2995 -0.7544
  110OSM    C3F11372   2.887   2.009  10.257 -0.5989 -0.8952 -0.0052
  110OSM    H3F11373   2.967   1.932  10.253  2.9444  2.3823  1.0883
  110OSM    H3G11374   2.907   2.088  10.181 -2.0376  1.3159  1.7872
  110OSM    C4F11375   2.747   1.962  10.211 -0.0790  0.3158  0.0367
  110OSM    H4F11376   2.673   2.042  10.231 -1.4441 -0.8045 -0.3494
  110OSM    H4G11377   2.717   1.873  10.271  1.2514  1.5156  2.6617
  110OSM    C5F11378   2.756   1.932  10.059  0.2324  0.6416  0.1411
  110OSM    H5F11379   2.835   1.857  10.037  0.1449  0.2129  1.1965
  110OSM    H5G11380   2.785   2.027  10.010  1.3896  0.7606  0.9970
  110OSM    C6F11381   2.621   1.887  10.009  0.0251 -0.3048  0.3743
  110OSM    H6F11382   2.559   1.967  10.056  1.4134  0.1916  1.4056
  110OSM    H6G11383   2.598   1.783  10.043 -1.1702  0.3303  1.6463
  110OSM    C7F11384   2.621   1.887   9.853  0.4295 -0.2213 -0.3734
  110OSM    H7F11385   2.651   1.987   9.817  3.3340 -1.1491 -0.7522
  110OSM    H7G11386   2.517   1.884   9.814  0.1345 -0.0403  0.3766
  110OSM    C8F11387   2.692   1.774   9.780  0.2262  0.3274 -0.2714
  110OSM    H8F11388   2.654   1.676   9.814 -1.1065  0.0978 -2.2698
  110OSM    H8G11389   2.798   1.767   9.815 -0.6542 -2.3708  2.1888
  110OSM    C9F11390   2.690   1.766   9.629  0.1953 -0.0732  0.3969
  110OSM    H9F11391   2.735   1.850   9.575 -0.1506 -1.0639 -1.5285
  110OSM   C10F11392   2.620   1.671   9.561  0.0189 -0.8934  0.0155
  110OSM   H10F11393   2.619   1.680   9.451  1.1865 -1.3545 -0.0449
  110OSM   C11F11394   2.542   1.555   9.612  0.6817  0.3773  0.3318
  110OSM   H11F11395   2.525   1.574   9.720 -0.7061 -0.4549  0.2765
  110OSM   H11G11396   2.593   1.457   9.605 -0.0592 -0.0693  1.0572
  110OSM   C12F11397   2.401   1.533   9.550  0.4494  0.5154  0.2601
  110OSM   H12F11398   2.341   1.626   9.563  0.5143  0.2598  2.9630
  110OSM   H12G11399   2.357   1.447   9.604  1.4148  0.9837  1.8421
  110OSM   C13F11400   2.401   1.499   9.395  0.1185  0.2050 -0.1015
  110OSM   H13F11401   2.458   1.405   9.382  0.9699  0.9117 -1.8456
  110OSM   H13G11402   2.458   1.574   9.336  1.9915 -0.5160  0.7272
  110OSM   C14F11403   2.263   1.501   9.327  0.2658  0.8275 -0.5198
  110OSM   H14F11404   2.208   1.595   9.347 -1.2150 -0.4759  2.0460
  110OSM   H14G11405   2.210   1.414   9.371 -0.3693  1.0727 -0.7960
  110OSM   C15F11406   2.280   1.481   9.176 -1.0182 -0.8984 -0.2919
  110OSM   H15F11407   2.330   1.383   9.162 -0.1813 -1.0337  2.9078
  110OSM   H15G11408   2.349   1.563   9.145 -0.7021  0.2086  2.9031
  110OSM   C16F11409   2.155   1.496   9.085 -0.2364  0.3533  0.1766
  110OSM   H16F11410   2.115   1.598   9.105  1.4028  0.5622  2.8352
  110OSM   H16G11411   2.080   1.417   9.103  0.9854 -0.7458  0.5889
  110OSM   C17F11412   2.184   1.490   8.937 -0.6289  0.1104  0.4154
  110OSM   H17F11413   2.276   1.548   8.918 -0.6121 -0.1630 -0.3916
  110OSM   H17G11414   2.104   1.527   8.868 -0.4389 -1.3241 -0.6303
  110OSM   C18F11415   2.218   1.346   8.886  0.1027  0.1105  0.2357
  110OSM   H18F11416   2.306   1.302   8.936  0.8234  1.1484 -0.0901
  110OSM   H18G11417   2.229   1.365   8.777  0.9242  2.8279  0.7060
  110OSM   H18H11418   2.135   1.273   8.896 -0.4327  0.7479  0.5806
  111OSM      N11419   2.443   6.563  11.316 -0.4003  0.5387 -0.5288
  111OSM    C1511420   2.531   6.538  11.426 -0.6221 -0.1298 -0.4036
  111OSM   H15A11421   2.484   6.567  11.519  1.3808 -0.1421  0.6676
  111OSM   H15B11422   2.628   6.586  11.415  0.8974 -3.1946 -1.5884
  111OSM   H15C11423   2.550   6.432  11.437 -1.1681 -0.0545  1.5578
  111OSM    C1411424   2.316   6.493  11.353 -0.3860  1.0404  0.7661
  111OSM   H14A11425   2.238   6.512  11.282 -1.2351 -3.4297  0.2419
  111OSM   H14B11426   2.275   6.522  11.449 -0.7954  0.5610  0.7370
  111OSM   H14C11427   2.320   6.385  11.349 -2.2740  0.9619  0.0444
  111OSM    C1311428   2.416   6.706  11.304  0.2746  0.3076 -0.3042
  111OSM   H13A11429   2.402   6.755  11.399 -0.2148  1.4973 -0.9639
  111OSM   H13B11430   2.324   6.717  11.248 -0.2836 -2.4918 -0.0724
  111OSM   H13C11431   2.492   6.765  11.255 -1.4424  1.9654 -1.1304
  111OSM    C1211432   2.497   6.522  11.175  0.5595  0.4512  0.3102
  111OSM   H12A11433   2.528   6.420  11.185 -1.2346 -0.1306  0.3363
  111OSM   H12B11434   2.583   6.585  11.157  1.7054 -0.6891  1.5535
  111OSM    C1111435   2.407   6.511  11.053  0.1397  0.4970 -0.1807
  111OSM   H11A11436   2.336   6.430  11.079  0.6650  0.2095  0.3920
  111OSM   H11B11437   2.462   6.471  10.965 -1.8142  0.6614 -1.5271
  111OSM      P11438   2.388   6.729  10.927 -0.3409  0.0916  0.2913
  111OSM    O1311439   2.318   6.859  10.947 -0.0669 -0.0667  0.6128
  111OSM    O1411440   2.532   6.745  10.933  0.6869  0.5681  0.7422
  111OSM    O1111441   2.354   6.673  10.782 -0.0803  0.4292  0.1752
  111OSM    O1211442   2.334   6.620  11.034 -0.3010 -1.1317  0.0319
  111OSM    C1S11443   2.240   6.582  10.765  0.1896 -0.1505 -0.2691
  111OSM    H1S11444   2.170   6.584  10.851  1.7728 -1.0077  1.1128
  111OSM    H1T11445   2.278   6.477  10.761  1.8126  0.2329  2.3565
  111OSM     NF11446   2.047   6.539  10.604  0.2028 -0.3475  0.3506
  111OSM    HNF11447   2.058   6.478  10.525 -1.5179 -0.7436  0.3793
  111OSM    C2S11448   2.165   6.621  10.631  0.7501 -0.0777  0.0614
  111OSM    H2S11449   2.133   6.727  10.640  2.7277  0.8366 -2.4628
  111OSM    C3S11450   2.264   6.615  10.507 -0.3267  0.3671  0.5208
  111OSM    H3S11451   2.306   6.513  10.494  0.2920  0.9942 -4.6133
  111OSM     O311452   2.374   6.699  10.519  0.1978  0.0053 -0.1947
  111OSM    HO311453   2.360   6.722  10.611  1.4719  1.5007 -0.3360
  111OSM    C4S11454   2.183   6.642  10.378  0.1661  0.0823  0.1724
  111OSM    H4S11455   2.157   6.555  10.315  2.0444  0.0137 -0.5884
  111OSM    C5S11456   2.147   6.765  10.335  0.5870 -0.1392  0.5696
  111OSM    H5S11457   2.175   6.857  10.388  2.6584 -0.1149 -0.4459
  111OSM    C6S11458   2.063   6.772  10.210  0.1232 -0.7255 -0.4554
  111OSM    H6S11459   2.009   6.868  10.198  1.2570 -0.2307 -1.9508
  111OSM    H6T11460   1.986   6.692  10.207 -1.0451  0.3847 -1.4857
  111OSM    C7S11461   2.148   6.755  10.085 -0.3982  0.1581 -0.3523
  111OSM    H7S11462   2.192   6.653  10.091 -0.1994  0.2600 -0.0624
  111OSM    H7T11463   2.226   6.834  10.091  0.2509 -0.5431  0.6309
  111OSM    C8S11464   2.072   6.768   9.948 -0.3361  0.2957 -0.9054
  111OSM    H8S11465   2.016   6.863   9.940 -0.6351  0.1377 -0.7197
  111OSM    H8T11466   2.001   6.683   9.938 -1.5675  1.1094  0.5528
  111OSM    C9S11467   2.160   6.770   9.824 -0.9662  0.5386  0.1441
  111OSM    H9S11468   2.231   6.685   9.830  1.3992  2.3667 -0.6138
  111OSM    H9T11469   2.225   6.859   9.830  0.5961 -0.5512  0.0679
  111OSM   C10S11470   2.080   6.762   9.689  0.6409  0.2802 -0.1669
  111OSM   H10S11471   1.992   6.827   9.708  2.0925  2.5774 -0.8804
  111OSM   H10T11472   2.055   6.656   9.667  1.6737 -0.4169  1.7577
  111OSM   C11S11473   2.155   6.815   9.566 -0.0670 -0.2335 -0.6647
  111OSM   H11S11474   2.245   6.752   9.548  0.1343  0.2915 -1.5901
  111OSM   H11T11475   2.211   6.908   9.590  0.1165 -0.4021 -0.4391
  111OSM   C12S11476   2.066   6.828   9.446  0.2238 -0.0163  0.1254
  111OSM   H12S11477   1.989   6.906   9.462  2.4478  2.1986  0.6268
  111OSM   H12T11478   2.011   6.732   9.445  0.6382 -0.2697  0.6917
  111OSM   C13S11479   2.133   6.855   9.314  0.1377 -0.0175  0.1414
  111OSM   H13S11480   2.235   6.810   9.308  0.0351 -0.2358  0.0444
  111OSM   H13T11481   2.152   6.965   9.305 -1.9262  0.2479 -1.6722
  111OSM   C14S11482   2.053   6.787   9.196 -0.1225 -0.1844 -0.1360
  111OSM   H14S11483   1.947   6.818   9.198 -0.1507 -0.1800 -1.2955
  111OSM   H14T11484   2.055   6.680   9.224 -0.7183 -0.9960 -2.9111
  111OSM   C15S11485   2.120   6.795   9.060  0.2694  0.1996  0.0437
  111OSM   H15S11486   2.222   6.751   9.060  0.0791 -0.2551  0.5792
  111OSM   H15T11487   2.126   6.905   9.050  4.0140  0.2085  0.9340
  111OSM   C16S11488   2.049   6.733   8.947  0.4949  0.5747 -0.0515
  111OSM   H16S11489   1.950   6.783   8.949 -0.0296 -0.4186 -0.5983
  111OSM   H16T11490   2.038   6.624   8.966 -0.2999  0.8816  1.4439
  111OSM   C17S11491   2.116   6.767   8.809 -0.2399 -0.2778 -0.3775
  111OSM   H17S11492   2.223   6.737   8.805 -0.1136 -0.0613  0.9385
  111OSM   H17T11493   2.123   6.878   8.809  0.4162 -0.3127  0.2856
  111OSM   C18S11494   2.047   6.714   8.678  0.2609  0.0957 -0.6014
  111OSM   H18S11495   1.939   6.738   8.667  0.5617  0.8454 -2.1678
  111OSM   H18T11496   2.032   6.604   8.679  0.1739  0.0517  2.3591
  111OSM   H18U11497   2.099   6.756   8.589 -0.2621 -0.1464 -1.0211
  111OSM    C1F11498   1.936   6.530  10.687 -0.4359 -0.0976  0.3478
  111OSM     OF11499   1.918   6.596  10.789  0.4946  0.4068 -0.2168
  111OSM    C2F11500   1.830   6.426  10.655  0.0533  0.1173 -0.4704
  111OSM    H2F11501   1.732   6.447  10.704 -0.5284 -0.6521 -1.2767
  111OSM    H2G11502   1.861   6.331  10.705 -1.8890  0.3619  1.3973
  111OSM    C3F11503   1.795   6.416  10.503  0.6747  0.2418 -0.3333
  111OSM    H3F11504   1.713   6.343  10.482  0.6086  0.0537  0.5377
  111OSM    H3G11505   1.885   6.369  10.458  0.3458 -1.2295  0.4630
  111OSM    C4F11506   1.780   6.551  10.430 -0.2015  0.0299 -0.3143
  111OSM    H4F11507   1.873   6.565  10.371 -0.3560 -0.8698 -0.7877
  111OSM    H4G11508   1.752   6.641  10.488 -0.1715  1.4543 -2.4014
  111OSM    C5F11509   1.661   6.543  10.329  0.4415 -0.7096  0.4624
  111OSM    H5F11510   1.565   6.525  10.383  0.6385 -1.3226  0.6141
  111OSM    H5G11511   1.680   6.458  10.259  2.0896 -0.7571  0.9307
  111OSM    C6F11512   1.636   6.674  10.251  0.4817 -0.2207  0.2959
  111OSM    H6F11513   1.737   6.709  10.222 -0.8122  1.0564 -3.2535
  111OSM    H6G11514   1.597   6.747  10.325  0.7219 -1.5306  1.7761
  111OSM    C7F11515   1.535   6.661  10.138  0.6402 -0.2830 -0.7084
  111OSM    H7F11516   1.503   6.764  10.111 -0.0558 -0.3991 -0.3548
  111OSM    H7G11517   1.438   6.626  10.180 -0.6429  2.9732 -0.7121
  111OSM    C8F11518   1.577   6.573  10.023  0.9845  0.0387  0.8648
  111OSM    H8F11519   1.496   6.574   9.947  0.6875 -0.7018  1.1606
  111OSM    H8G11520   1.609   6.471  10.052  2.4662 -0.4731 -2.1835
  111OSM    C9F11521   1.694   6.630   9.955 -0.0025 -0.1038 -0.0293
  111OSM    H9F11522   1.791   6.602  10.000 -0.1624 -1.7289 -0.6200
  111OSM   C10F11523   1.696   6.707   9.846  0.6854 -0.1981  0.3447
  111OSM   H10F11524   1.794   6.736   9.807  1.1115 -1.0494  0.7441
  111OSM   C11F11525   1.578   6.756   9.766  0.2672  0.3613 -0.3498
  111OSM   H11F11526   1.586   6.867   9.753 -0.2533  0.6529  1.5374
  111OSM   H11G11527   1.480   6.736   9.813  0.7661  1.5863  1.3279
  111OSM   C12F11528   1.564   6.690   9.626 -0.7656  0.9331  0.5196
  111OSM   H12F11529   1.471   6.728   9.578 -0.7972 -1.4107 -1.4934
  111OSM   H12G11530   1.565   6.580   9.641  3.3100  0.4174 -2.0857
  111OSM   C13F11531   1.692   6.720   9.537 -0.1553 -0.3808 -0.4369
  111OSM   H13F11532   1.788   6.705   9.591 -1.0885 -0.4474  1.2732
  111OSM   H13G11533   1.664   6.826   9.520 -2.0514 -0.7305  0.3310
  111OSM   C14F11534   1.716   6.641   9.411  0.0254  0.3615  0.5663
  111OSM   H14F11535   1.754   6.543   9.447  1.6344  0.7721  0.0901
  111OSM   H14G11536   1.799   6.688   9.354 -1.2641  0.5777 -1.1973
  111OSM   C15F11537   1.600   6.619   9.311 -0.3299 -0.0540 -0.6245
  111OSM   H15F11538   1.550   6.715   9.285  0.0411  0.5805  0.8883
  111OSM   H15G11539   1.521   6.557   9.357  1.6182 -0.9256  1.7899
  111OSM   C16F11540   1.650   6.554   9.181  0.6400 -0.0601 -0.1758
  111OSM   H16F11541   1.685   6.452   9.211 -1.9876 -0.3650  2.3240
  111OSM   H16G11542   1.734   6.613   9.138  0.7385  0.9230  1.2865
  111OSM   C17F11543   1.540   6.557   9.075  0.0314  0.2734 -0.0232
  111OSM   H17F11544   1.490   6.655   9.061 -0.8139 -0.2709 -1.0168
  111OSM   H17G11545   1.455   6.492   9.105  0.7985 -0.6280  0.2245
  111OSM   C18F11546   1.595   6.515   8.947  0.1061 -0.6677  0.3199
  111OSM   H18F11547   1.678   6.586   8.927  0.0806 -0.1366  1.9227
  111OSM   H18G11548   1.522   6.502   8.865  0.5404 -1.8322  0.0935
  111OSM   H18H11549   1.641   6.415   8.964  0.0394 -0.6334  0.7096
  112OSM      N11550   0.980   3.586  11.077 -0.7842 -1.0174 -0.5137
  112OSM    C1511551   1.098   3.629  11.170 -0.0579 -0.7332 -0.1948
  112OSM   H15A11552   1.179   3.562  11.148 -0.1365 -0.9095  0.0647
  112OSM   H15B11553   1.067   3.625  11.273  1.4723  2.9839  0.5966
  112OSM   H15C11554   1.128   3.732  11.150 -1.2616 -0.7166 -2.1881
  112OSM    C1411555   0.940   3.446  11.113  1.0135  0.2436  0.1850
  112OSM   H14A11556   1.011   3.370  11.084 -0.6759 -1.5258  0.5296
  112OSM   H14B11557   0.847   3.424  11.061 -0.4759 -1.4736  3.2905
  112OSM   H14C11558   0.911   3.432  11.216  1.8262 -4.1323 -0.0074
  112OSM    C1311559   0.862   3.678  11.105 -0.6900  0.3256 -0.3628
  112OSM   H13A11560   0.822   3.652  11.202 -1.8436 -1.4646 -1.2526
  112OSM   H13B11561   0.785   3.667  11.030 -0.3304  0.4475 -0.7533
  112OSM   H13C11562   0.892   3.781  11.114 -0.6205  0.3040 -0.3410
  112OSM    C1211563   1.022   3.603  10.936 -0.0861  0.1483 -0.1766
  112OSM   H12A11564   1.020   3.708  10.911  2.3881  0.4178  0.4228
  112OSM   H12B11565   0.956   3.552  10.867  0.3636 -0.8686  0.1155
  112OSM    C1111566   1.164   3.571  10.897  0.0256  0.8286 -0.5214
  112OSM   H11A11567   1.233   3.639  10.950  0.6340 -0.2417  0.0993
  112OSM   H11B11568   1.191   3.583  10.790  1.8748  1.6694 -0.0089
  112OSM      P11569   1.187   3.310  10.856  0.0941 -0.0026 -0.3065
  112OSM    O1311570   1.246   3.201  10.930  0.3274  0.2554  0.1802
  112OSM    O1411571   1.049   3.291  10.800  0.1447 -0.3218  0.7145
  112OSM    O1111572   1.282   3.342  10.746  0.1397 -0.2050  0.9176
  112OSM    O1211573   1.191   3.437  10.942 -0.6400  0.6888 -0.1363
  112OSM    C1S11574   1.363   3.248  10.685 -0.2264 -0.1449  0.4668
  112OSM    H1S11575   1.300   3.159  10.665  0.0110 -0.3964  0.8341
  112OSM    H1T11576   1.438   3.226  10.763 -0.0985  2.5908  1.2159
  112OSM     NF11577   1.464   3.188  10.459  0.6573 -0.0368 -0.2478
  112OSM    HNF11578   1.560   3.190  10.434  0.9967 -0.5575  0.9697
  112OSM    C2S11579   1.413   3.295  10.548 -0.0009 -0.1883 -0.0047
  112OSM    H2S11580   1.322   3.338  10.502 -0.7380 -0.7412  0.8784
  112OSM    C3S11581   1.516   3.411  10.566  0.7278  0.3493  0.5720
  112OSM    H3S11582   1.615   3.364  10.585  0.2128 -1.0899 -0.0932
  112OSM     O311583   1.472   3.503  10.663  0.9114 -0.5993  0.6023
  112OSM    HO311584   1.394   3.463  10.703  0.5991 -0.2769  0.3228
  112OSM    C4S11585   1.545   3.464  10.428 -0.4728 -0.3607  0.8162
  112OSM    H4S11586   1.633   3.414  10.385 -0.0674 -0.9102  2.2351
  112OSM    C5S11587   1.488   3.566  10.364  0.6655  0.3218 -1.0347
  112OSM    H5S11588   1.428   3.634  10.426  1.2032 -0.4726  0.4016
  112OSM    C6S11589   1.510   3.616  10.221  0.0764  0.2105  0.0607
  112OSM    H6S11590   1.581   3.701  10.214 -0.8185  1.0574  0.9156
  112OSM    H6T11591   1.415   3.643  10.170 -0.0866 -0.1026  0.1985
  112OSM    C7S11592   1.587   3.513  10.138 -1.1952 -0.0841 -0.1863
  112OSM    H7S11593   1.539   3.413  10.129 -1.7861 -0.0327  1.9201
  112OSM    H7T11594   1.685   3.492  10.185 -0.5338 -2.9166 -2.5106
  112OSM    C8S11595   1.609   3.558   9.993 -0.5735  0.1868 -0.1619
  112OSM    H8S11596   1.693   3.630  10.004 -1.6400  1.8481 -2.2698
  112OSM    H8T11597   1.515   3.607   9.961 -0.9585 -0.9907 -0.9054
  112OSM    C9S11598   1.651   3.457   9.886 -0.9458  0.5695  0.3191
  112OSM    H9S11599   1.572   3.379   9.881 -0.6286  0.1050  2.0072
  112OSM    H9T11600   1.744   3.407   9.921 -1.4620  0.2383  1.2616
  112OSM   C10S11601   1.652   3.535   9.754 -0.3622  0.1799 -0.0359
  112OSM   H10S11602   1.735   3.609   9.762 -0.5052  0.4575 -0.9833
  112OSM   H10T11603   1.558   3.591   9.741  0.5392  1.5607 -0.8675
  112OSM   C11S11604   1.677   3.448   9.628 -0.0672  0.3917  0.4731
  112OSM   H11S11605   1.605   3.365   9.612 -0.2170  0.6445 -0.2077
  112OSM   H11T11606   1.780   3.406   9.631 -0.2064  0.0552  0.5982
  112OSM   C12S11607   1.672   3.533   9.497  0.3885 -0.3651 -0.1056
  112OSM   H12S11608   1.755   3.607   9.490 -1.0198  1.4658  1.4741
  112OSM   H12T11609   1.578   3.591   9.484  1.3048  0.9016 -1.4493
  112OSM   C13S11610   1.675   3.440   9.378 -0.4166  0.2667  0.3221
  112OSM   H13S11611   1.576   3.390   9.379 -0.8122  0.9641  2.5444
  112OSM   H13T11612   1.754   3.364   9.397  1.1390  2.0755  1.5267
  112OSM   C14S11613   1.696   3.519   9.243  0.1423 -0.5733 -0.4529
  112OSM   H14S11614   1.798   3.563   9.238 -0.1444  0.3357  0.9099
  112OSM   H14T11615   1.619   3.598   9.253  1.8682  1.0382  0.8639
  112OSM   C15S11616   1.674   3.441   9.123 -0.1199  0.2869  0.0278
  112OSM   H15S11617   1.680   3.519   9.044  1.2063 -0.1990 -0.3756
  112OSM   H15T11618   1.577   3.386   9.124  0.2384 -0.3690 -0.6646
  112OSM   C16S11619   1.776   3.324   9.104 -0.6434 -0.2874 -0.5997
  112OSM   H16S11620   1.790   3.255   9.190  2.6087  0.4793 -0.3911
  112OSM   H16T11621   1.880   3.362   9.099  0.2737 -2.3582  0.9544
  112OSM   C17S11622   1.747   3.240   8.985  0.0405  0.2254  0.7221
  112OSM   H17S11623   1.656   3.190   9.024  1.7488 -2.1005  1.9919
  112OSM   H17T11624   1.809   3.149   8.972  0.1279  0.3609  0.1792
  112OSM   C18S11625   1.713   3.307   8.848  0.2516 -0.1136 -0.8516
  112OSM   H18S11626   1.787   3.388   8.829  0.1448  0.4778  1.0104
  112OSM   H18T11627   1.616   3.357   8.865  0.9481  1.3604 -1.1042
  112OSM   H18U11628   1.718   3.223   8.776 -1.1839  0.0463 -1.1656
  112OSM    C1F11629   1.377   3.095  10.416  0.0046  0.5766  0.8947
  112OSM     OF11630   1.255   3.106  10.438 -0.1713 -0.0193 -0.4930
  112OSM    C2F11631   1.432   2.983  10.337 -0.3588 -0.2515 -0.2360
  112OSM    H2F11632   1.418   2.893  10.400  0.3839 -1.6211 -1.9241
  112OSM    H2G11633   1.540   2.995  10.314 -0.8899 -0.9483 -3.6713
  112OSM    C3F11634   1.372   2.982  10.199  0.3540 -0.2430 -0.8345
  112OSM    H3F11635   1.261   2.981  10.197  0.2750  0.1321  1.0516
  112OSM    H3G11636   1.405   2.887  10.153  1.3583 -0.9931  1.2805
  112OSM    C4F11637   1.421   3.104  10.117 -0.2211 -0.2789 -0.0623
  112OSM    H4F11638   1.496   3.165  10.173  1.1154 -1.1888 -0.7877
  112OSM    H4G11639   1.329   3.161  10.094 -0.5043 -0.3482  0.8520
  112OSM    C5F11640   1.466   3.074   9.974  0.2105  0.6612  0.3279
  112OSM    H5F11641   1.554   3.007   9.983 -0.7193 -0.4520  1.3629
  112OSM    H5G11642   1.499   3.169   9.926  0.4364 -0.9568 -2.9865
  112OSM    C6F11643   1.359   3.001   9.906 -0.6002 -0.3409  0.9376
  112OSM    H6F11644   1.264   3.058   9.918  0.1901  1.5783 -1.2923
  112OSM    H6G11645   1.328   2.904   9.952 -0.9914 -1.1311 -0.9058
  112OSM    C7F11646   1.378   2.961   9.758  0.0953  0.0226 -0.5486
  112OSM    H7F11647   1.376   3.052   9.694  1.3149  0.3884 -0.0891
  112OSM    H7G11648   1.290   2.902   9.724 -1.2810  1.5583  0.1819
  112OSM    C8F11649   1.513   2.887   9.738  0.4999  0.0306  1.5116
  112OSM    H8F11650   1.530   2.823   9.828  0.6470 -0.0947  1.3957
  112OSM    H8G11651   1.591   2.966   9.730  0.2772  0.1204  0.0345
  112OSM    C9F11652   1.515   2.799   9.611 -0.1987  0.1733 -0.2526
  112OSM    H9F11653   1.466   2.701   9.622 -1.3424  0.6524 -0.9060
  112OSM   C10F11654   1.541   2.837   9.486 -0.4870 -0.1204 -0.1743
  112OSM   H10F11655   1.535   2.768   9.400  1.8501 -0.6938  0.0570
  112OSM   C11F11656   1.581   2.983   9.451  0.8303  0.1868  0.5300
  112OSM   H11F11657   1.689   3.003   9.468  1.1320 -0.2633 -0.7507
  112OSM   H11G11658   1.535   3.049   9.529  0.9561 -0.8232  1.4845
  112OSM   C12F11659   1.532   3.038   9.310 -0.3536  0.1178  0.0239
  112OSM   H12F11660   1.561   2.966   9.231  0.7375 -0.5965  1.0242
  112OSM   H12G11661   1.591   3.130   9.286  0.3811 -0.8714 -2.2457
  112OSM   C13F11662   1.383   3.065   9.294  0.2986  1.4524  1.4755
  112OSM   H13F11663   1.351   3.145   9.364  1.4374  1.4103  2.0581
  112OSM   H13G11664   1.324   2.972   9.302  2.5442  0.0366  2.4617
  112OSM   C14F11665   1.349   3.110   9.146 -0.3316 -0.3975  1.2015
  112OSM   H14F11666   1.398   3.208   9.126 -0.5745 -0.9548 -2.8626
  112OSM   H14G11667   1.240   3.132   9.137 -0.2036  0.0988  0.8083
  112OSM   C15F11668   1.399   3.010   9.043  0.3506  0.7229 -0.2101
  112OSM   H15F11669   1.383   2.906   9.079 -0.6231  1.2983  1.0863
  112OSM   H15G11670   1.509   3.024   9.031  0.6776 -1.4728 -0.1497
  112OSM   C16F11671   1.329   3.031   8.911 -1.2082  0.0259  0.1410
  112OSM   H16F11672   1.220   3.025   8.935 -1.0342 -0.4537  0.8672
  112OSM   H16G11673   1.363   2.953   8.840 -2.4942 -0.3619 -0.0763
  112OSM   C17F11674   1.370   3.169   8.853 -0.1966  0.1986  0.4036
  112OSM   H17F11675   1.479   3.188   8.868  0.4803 -2.0993 -1.1204
  112OSM   H17G11676   1.312   3.249   8.903  0.3103  0.5365  0.4580
  112OSM   C18F11677   1.340   3.170   8.705 -0.0842 -0.0541  0.1025
  112OSM   H18F11678   1.394   3.084   8.659  3.0200  0.5832  2.2530
  112OSM   H18G11679   1.364   3.267   8.657 -1.1391  0.3552  0.3709
  112OSM   H18H11680   1.230   3.159   8.691 -0.3273  2.0215  0.0370
  113OSM      N11681   1.663   2.057  11.363 -0.8010 -0.3109  0.1356
  113OSM    C1511682   1.708   1.915  11.356  0.2228  0.2920 -0.0140
  113OSM   H15A11683   1.622   1.852  11.341  1.6678 -1.8343  0.2484
  113OSM   H15B11684   1.750   1.879  11.449  0.6030  0.2829 -0.1849
  113OSM   H15C11685   1.785   1.902  11.281 -0.3193 -0.2519 -0.4777
  113OSM    C1411686   1.571   2.077  11.478  0.5823 -0.5902 -0.2479
  113OSM   H14A11687   1.484   2.013  11.479 -0.4723  0.7576  2.2674
  113OSM   H14B11688   1.551   2.182  11.484  0.7715 -0.6368  1.8753
  113OSM   H14C11689   1.615   2.047  11.572  1.0705 -0.0217 -0.2869
  113OSM    C1311690   1.777   2.145  11.404 -0.0872  0.2965 -0.0309
  113OSM   H13A11691   1.821   2.102  11.494  0.8250  0.4325 -0.4010
  113OSM   H13B11692   1.741   2.244  11.426 -1.7030 -0.4107  0.6785
  113OSM   H13C11693   1.847   2.144  11.322 -0.8832 -1.1998 -0.7389
  113OSM    C1211694   1.604   2.105  11.234 -0.3396 -0.9704 -0.3153
  113OSM   H12A11695   1.576   2.210  11.243  1.4441 -0.5764  1.2400
  113OSM   H12B11696   1.513   2.049  11.223 -1.5974 -0.3458  4.4419
  113OSM    C1111697   1.685   2.098  11.109 -0.4838  0.5119  0.1964
  113OSM   H11A11698   1.624   2.125  11.020  2.2920 -0.2254 -2.0605
  113OSM   H11B11699   1.714   1.993  11.088 -3.7746 -0.3111 -0.8812
  113OSM      P11700   1.819   2.334  11.063 -0.3695  0.0874  0.2363
  113OSM    O1311701   1.717   2.415  11.136 -0.4534 -0.0197  0.3020
  113OSM    O1411702   1.960   2.367  11.083 -0.5949 -0.4595  0.2044
  113OSM    O1111703   1.791   2.341  10.908  0.0655  0.0962 -0.3348
  113OSM    O1211704   1.805   2.178  11.111 -0.3067  0.8600  0.1708
  113OSM    C1S11705   1.840   2.250  10.820  0.5051  0.7194  0.2982
  113OSM    H1S11706   1.801   2.148  10.839  0.7498  0.1527 -1.9929
  113OSM    H1T11707   1.951   2.244  10.822  0.4363 -0.5551  1.2028
  113OSM     NF11708   1.838   2.199  10.574  0.2839 -0.3339 -0.5752
  113OSM    HNF11709   1.930   2.207  10.537  1.2479  0.9428  1.9013
  113OSM    C2S11710   1.788   2.296  10.675 -1.5250  0.1362 -0.2905
  113OSM    H2S11711   1.677   2.291  10.681 -1.4455 -1.6370  0.4738
  113OSM    C3S11712   1.840   2.446  10.641  0.0392  0.0716 -0.1240
  113OSM    H3S11713   1.951   2.446  10.639  0.1235 -1.6512  1.6729
  113OSM     O311714   1.807   2.544  10.739 -0.2796  0.6694  0.1880
  113OSM    HO311715   1.762   2.490  10.805 -2.6030  0.8823 -1.1201
  113OSM    C4S11716   1.788   2.491  10.507 -0.9008 -0.0873  1.0033
  113OSM    H4S11717   1.861   2.464  10.429  0.9244 -0.9433  2.8931
  113OSM    C5S11718   1.676   2.548  10.479 -0.1589 -0.6647 -0.1192
  113OSM    H5S11719   1.611   2.581  10.561 -2.0522 -1.6461 -1.1817
  113OSM    C6S11720   1.619   2.605  10.348  0.6862  0.4035 -1.1849
  113OSM    H6S11721   1.588   2.707  10.376  2.7268  0.8145 -0.1893
  113OSM    H6T11722   1.529   2.543  10.327  1.6582 -1.3865 -0.3332
  113OSM    C7S11723   1.710   2.609  10.231 -0.3975  0.5324  0.0083
  113OSM    H7S11724   1.749   2.507  10.213  1.2220  1.2394 -0.6691
  113OSM    H7T11725   1.804   2.665  10.249  1.2107 -2.1794  0.7456
  113OSM    C8S11726   1.652   2.672  10.101  0.4335 -0.2048 -0.6215
  113OSM    H8S11727   1.620   2.772  10.136  0.1089 -0.9973  1.5730
  113OSM    H8T11728   1.564   2.620  10.057 -1.5321  2.4468 -0.0556
  113OSM    C9S11729   1.761   2.681   9.985  0.3300 -0.5599  0.0076
  113OSM    H9S11730   1.849   2.713  10.046 -0.4495  1.3715  0.2129
  113OSM    H9T11731   1.721   2.775   9.940  1.4762  0.1710  0.4727
  113OSM   C10S11732   1.768   2.564   9.891  0.1405 -0.5206 -0.2536
  113OSM   H10S11733   1.667   2.536   9.855 -0.4109  1.3956 -0.3093
  113OSM   H10T11734   1.799   2.478   9.953 -2.1265  0.1423  1.9583
  113OSM   C11S11735   1.869   2.600   9.776 -0.1164 -0.4516 -0.0037
  113OSM   H11S11736   1.971   2.617   9.815 -0.4163  2.1765 -0.2101
  113OSM   H11T11737   1.840   2.699   9.736  1.4734  0.4672  1.0412
  113OSM   C12S11738   1.858   2.508   9.660 -0.2091  0.1570  0.4698
  113OSM   H12S11739   1.769   2.532   9.599 -0.5096  1.0508  1.2358
  113OSM   H12T11740   1.830   2.406   9.696 -4.3019  1.0117  0.1828
  113OSM   C13S11741   1.979   2.505   9.566  0.1992  0.1931 -0.1154
  113OSM   H13S11742   2.076   2.478   9.613  0.7872 -2.3611 -2.4977
  113OSM   H13T11743   1.991   2.603   9.516  1.7609 -0.9552 -2.1518
  113OSM   C14S11744   1.958   2.392   9.466 -0.4964  0.2079 -0.7505
  113OSM   H14S11745   1.863   2.404   9.409 -1.5455  0.0133  0.9001
  113OSM   H14T11746   1.953   2.306   9.535  1.3448 -0.1462 -1.0051
  113OSM   C15S11747   2.075   2.349   9.375  0.5196 -1.2407 -0.2479
  113OSM   H15S11748   2.044   2.251   9.334  2.4859 -1.7247 -0.6493
  113OSM   H15T11749   2.167   2.324   9.431 -0.1249 -4.5477 -0.4842
  113OSM   C16S11750   2.097   2.448   9.264 -0.1515 -0.0668 -0.0386
  113OSM   H16S11751   2.114   2.549   9.305  1.8325 -0.7508  0.9504
  113OSM   H16T11752   2.015   2.444   9.189  0.6227  0.6876 -0.9462
  113OSM   C17S11753   2.225   2.408   9.186  0.6308 -0.5105  0.1063
  113OSM   H17S11754   2.301   2.389   9.264 -0.4097  0.5242  1.4019
  113OSM   H17T11755   2.247   2.495   9.121 -1.1531  0.1482  0.3424
  113OSM   C18S11756   2.207   2.277   9.104  0.3477 -0.9800  0.3007
  113OSM   H18S11757   2.142   2.289   9.015  1.0192  0.3402 -0.0371
  113OSM   H18T11758   2.169   2.192   9.164 -0.4390 -0.3920  0.6659
  113OSM   H18U11759   2.309   2.249   9.071  1.0439  0.1481  1.3880
  113OSM    C1F11760   1.774   2.076  10.572 -0.3219  0.1420  0.0156
  113OSM     OF11761   1.656   2.062  10.608  0.5538  0.3350  0.0913
  113OSM    C2F11762   1.863   1.958  10.535  0.5954 -0.2117  0.0335
  113OSM    H2F11763   1.845   1.880  10.612  0.9982 -1.5605 -1.1846
  113OSM    H2G11764   1.967   1.995  10.547 -0.2577  2.5457 -0.4214
  113OSM    C3F11765   1.825   1.899  10.399 -0.0620  0.6978 -0.4599
  113OSM    H3F11766   1.715   1.881  10.403  0.1914 -0.7525  0.6934
  113OSM    H3G11767   1.868   1.797  10.387  0.9124  1.1896 -1.2527
  113OSM    C4F11768   1.869   1.980  10.274 -0.6855  0.1405  0.0380
  113OSM    H4F11769   1.980   1.979  10.274 -0.6789 -0.7445 -0.3436
  113OSM    H4G11770   1.837   2.086  10.284  1.5074  1.2098 -2.8777
  113OSM    C5F11771   1.811   1.927  10.137 -0.6340 -0.4197  0.1225
  113OSM    H5F11772   1.704   1.955  10.147 -0.1244  1.6658  0.1836
  113OSM    H5G11773   1.824   1.817  10.126  0.3795 -0.4338  1.3298
  113OSM    C6F11774   1.883   2.009  10.023  0.6769 -0.2742 -0.0917
  113OSM    H6F11775   1.994   2.012  10.018  0.6338  0.6462 -0.6040
  113OSM    H6G11776   1.856   2.114  10.044 -0.6376 -0.4009 -1.0493
  113OSM    C7F11777   1.825   1.972   9.890 -0.0633  1.0793 -0.4491
  113OSM    H7F11778   1.715   1.959   9.896  0.1781 -1.4277 -0.4005
  113OSM    H7G11779   1.851   1.867   9.861 -2.2816 -0.3276  2.1873
  113OSM    C8F11780   1.847   2.068   9.774  0.7844 -0.5095 -0.7414
  113OSM    H8F11781   1.950   2.085   9.736  0.1748  0.6965 -1.9178
  113OSM    H8G11782   1.811   2.168   9.807 -0.5873 -0.8653 -1.1145
  113OSM    C9F11783   1.775   1.998   9.653  0.2111  0.1001  0.1855
  113OSM    H9F11784   1.837   1.920   9.606  0.1861  0.0399  0.2521
  113OSM   C10F11785   1.653   2.027   9.608  0.4701 -0.5061  0.2624
  113OSM   H10F11786   1.618   1.961   9.527 -0.4044  1.9169 -1.4369
  113OSM   C11F11787   1.559   2.133   9.662 -0.0851 -0.0137  0.3860
  113OSM   H11F11788   1.586   2.160   9.766  1.0616  0.2431  0.0361
  113OSM   H11G11789   1.458   2.088   9.677  0.5297 -1.7541 -0.4741
  113OSM   C12F11790   1.567   2.250   9.565 -0.0773 -0.9234 -0.1416
  113OSM   H12F11791   1.665   2.302   9.572 -0.8329  0.7134 -0.9496
  113OSM   H12G11792   1.491   2.325   9.597  0.5381  0.1819 -1.1703
  113OSM   C13F11793   1.532   2.224   9.415  0.0257 -0.5807 -0.7906
  113OSM   H13F11794   1.451   2.149   9.411 -1.4274  0.9487 -1.2298
  113OSM   H13G11795   1.606   2.162   9.361  0.3817 -0.9461  0.0994
  113OSM   C14F11796   1.496   2.348   9.333  0.0376 -0.1540 -0.3886
  113OSM   H14F11797   1.582   2.416   9.319  0.3474  0.0502  2.0800
  113OSM   H14G11798   1.421   2.389   9.403  0.4197 -4.1291  2.7056
  113OSM   C15F11799   1.434   2.316   9.195  0.9182  0.2507  0.6001
  113OSM   H15F11800   1.416   2.414   9.146 -0.6661  0.2482  1.1137
  113OSM   H15G11801   1.334   2.271   9.213  0.3592  0.6008 -1.3327
  113OSM   C16F11802   1.514   2.223   9.100  0.0086  0.0834 -0.4658
  113OSM   H16F11803   1.530   2.125   9.150  1.0764  0.6536  0.3548
  113OSM   H16G11804   1.615   2.267   9.084 -0.0648  0.6836  0.6556
  113OSM   C17F11805   1.440   2.206   8.967 -0.0302 -0.6140 -0.3543
  113OSM   H17F11806   1.441   2.301   8.910 -1.4556 -1.3095 -1.5977
  113OSM   H17G11807   1.335   2.177   8.989  0.5032 -2.2049  0.2565
  113OSM   C18F11808   1.508   2.107   8.878 -0.5667  0.6654 -0.7732
  113OSM   H18F11809   1.432   2.085   8.800 -2.1091  1.3402  0.4987
  113OSM   H18G11810   1.524   2.019   8.943 -1.0857  0.4882 -0.8864
  113OSM   H18H11811   1.604   2.146   8.838 -0.9695  0.2868 -2.1621
  114OSM      N11812   3.563   3.791  11.705 -0.3199 -0.1322 -1.1675
  114OSM    C1511813   3.516   3.649  11.695 -0.1248  0.1885  0.3184
  114OSM   H15A11814   3.548   3.589  11.779 -0.2933 -1.5273 -0.7919
  114OSM   H15B11815   3.561   3.610  11.605 -1.7032 -0.5098 -0.2063
  114OSM   H15C11816   3.409   3.651  11.680 -0.0456  0.6275 -0.2179
  114OSM    C1411817   3.489   3.859  11.817 -0.5144  0.3568  0.2905
  114OSM   H14A11818   3.509   3.799  11.905 -2.2679 -2.9437 -1.3914
  114OSM   H14B11819   3.384   3.859  11.793 -0.2621 -1.2559 -0.9187
  114OSM   H14C11820   3.519   3.962  11.830  0.0177  0.1440  0.8066
  114OSM    C1311821   3.708   3.794  11.738 -0.3458  0.1369 -0.4754
  114OSM   H13A11822   3.753   3.893  11.742 -0.9012  0.3595  0.6445
  114OSM   H13B11823   3.760   3.727  11.671 -1.7583  0.0468 -1.5378
  114OSM   H13C11824   3.727   3.758  11.837 -1.0135 -1.8919 -1.0358
  114OSM    C1211825   3.536   3.874  11.574  0.3887  0.0906  0.4243
  114OSM   H12A11826   3.580   3.972  11.585  1.9615 -0.3916 -1.1453
  114OSM   H12B11827   3.430   3.891  11.569  0.3210 -0.0768  1.1402
  114OSM    C1111828   3.590   3.815  11.441 -0.7037 -0.2726  0.0324
  114OSM   H11A11829   3.548   3.873  11.356  0.7436 -0.2430 -0.6762
  114OSM   H11B11830   3.543   3.714  11.434 -0.4130 -0.3904 -0.2292
  114OSM      P11831   3.812   3.702  11.387 -0.3956 -0.3197 -0.0060
  114OSM    O1311832   3.946   3.738  11.334 -0.1559  0.0492  0.1757
  114OSM    O1411833   3.815   3.606  11.499 -0.2964  0.0572 -0.0470
  114OSM    O1111834   3.722   3.656  11.273 -0.5044 -0.5716 -0.2885
  114OSM    O1211835   3.735   3.826  11.444  0.2342 -0.2632  0.1264
  114OSM    C1S11836   3.725   3.727  11.141 -0.4806  0.2028 -0.8079
  114OSM    H1S11837   3.832   3.746  11.118  0.0560 -1.8964 -0.3313
  114OSM    H1T11838   3.679   3.827  11.156 -0.5239 -0.2139  2.6139
  114OSM     NF11839   3.690   3.717  10.903  0.0900 -0.8625 -0.4847
  114OSM    HNF11840   3.609   3.749  10.856  0.5988  1.9815  0.4323
  114OSM    C2S11841   3.669   3.641  11.023  0.1765  0.3085  0.1425
  114OSM    H2S11842   3.737   3.553  11.016  0.6218  0.7901 -2.6651
  114OSM    C3S11843   3.525   3.603  11.046  0.3188  0.3622  0.7871
  114OSM    H3S11844   3.466   3.697  11.052 -1.5342 -0.7844  1.3415
  114OSM     O311845   3.505   3.531  11.167  0.2584 -0.1418 -0.0274
  114OSM    HO311846   3.564   3.565  11.234 -0.5052  0.4395  0.3622
  114OSM    C4S11847   3.476   3.507  10.940 -0.9071 -0.1606 -0.3780
  114OSM    H4S11848   3.516   3.405  10.955 -1.7595 -0.4124  0.2526
  114OSM    C5S11849   3.380   3.531  10.850 -0.0205  0.1190  0.9317
  114OSM    H5S11850   3.340   3.633  10.835  1.1116  0.4113 -0.2528
  114OSM    C6S11851   3.310   3.431  10.755  0.0828 -0.4399  0.6245
  114OSM    H6S11852   3.208   3.407  10.794  0.7426 -6.0547 -0.1988
  114OSM    H6T11853   3.356   3.330  10.762 -0.0022 -0.5584 -0.3251
  114OSM    C7S11854   3.290   3.474  10.610  0.4288 -0.0029 -0.5055
  114OSM    H7S11855   3.387   3.519  10.581  0.4409  0.6330  0.5162
  114OSM    H7T11856   3.215   3.556  10.615  1.6697  1.2855 -1.9570
  114OSM    C8S11857   3.258   3.357  10.515 -0.1479  0.5014  0.5624
  114OSM    H8S11858   3.162   3.311  10.547  0.3227 -0.4537  0.6453
  114OSM    H8T11859   3.339   3.284  10.537  1.4060  1.7235 -0.8160
  114OSM    C9S11860   3.257   3.394  10.367  0.3604  0.1416 -0.3377
  114OSM    H9S11861   3.340   3.456  10.329 -0.7438  0.7403 -1.8853
  114OSM    H9T11862   3.167   3.453  10.340 -0.5751 -0.3525  1.5350
  114OSM   C10S11863   3.265   3.262  10.279  0.4408 -0.1203 -0.1202
  114OSM   H10S11864   3.177   3.204  10.317  2.3519 -3.0973  0.0808
  114OSM   H10T11865   3.360   3.206  10.290  0.3436 -0.8844 -2.5862
  114OSM   C11S11866   3.250   3.305  10.129  0.3524  0.2917 -0.0485
  114OSM   H11S11867   3.325   3.383  10.103  1.9154 -0.6098  1.5410
  114OSM   H11T11868   3.155   3.356  10.102 -1.0173 -1.1353  1.7975
  114OSM   C12S11869   3.285   3.184  10.047 -0.1443 -0.3419  0.0212
  114OSM   H12S11870   3.194   3.121  10.058 -1.2570  0.5625 -2.9713
  114OSM   H12T11871   3.365   3.123  10.095 -2.2796 -2.4433  1.1221
  114OSM   C13S11872   3.300   3.209   9.898 -0.2628 -0.4068  0.3940
  114OSM   H13S11873   3.388   3.277   9.885 -0.1425 -0.1995  2.0324
  114OSM   H13T11874   3.205   3.261   9.873 -1.0849 -1.5971  0.9794
  114OSM   C14S11875   3.315   3.080   9.823  1.0095 -0.1963 -0.1558
  114OSM   H14S11876   3.240   3.004   9.854  1.2536 -0.2473  0.3341
  114OSM   H14T11877   3.411   3.031   9.851  0.3924 -0.2340  2.0611
  114OSM   C15S11878   3.309   3.083   9.665 -0.6686 -0.0612 -0.2076
  114OSM   H15S11879   3.317   2.979   9.626 -0.1900  0.3934 -1.3608
  114OSM   H15T11880   3.404   3.130   9.634 -1.1926 -0.4403 -2.5899
  114OSM   C16S11881   3.192   3.170   9.626 -0.2190 -0.1668 -0.1070
  114OSM   H16S11882   3.191   3.273   9.669  0.1088 -0.1286 -0.1886
  114OSM   H16T11883   3.095   3.127   9.659 -1.8460  2.2878 -1.4104
  114OSM   C17S11884   3.178   3.174   9.473 -0.3279  0.1038  0.7691
  114OSM   H17S11885   3.157   3.069   9.446 -3.0475  1.1195 -1.5309
  114OSM   H17T11886   3.279   3.209   9.441 -0.3079  1.5733  2.2848
  114OSM   C18S11887   3.067   3.258   9.412  0.7380 -0.0554 -0.4457
  114OSM   H18S11888   3.091   3.274   9.305  1.6725 -3.2566 -0.8328
  114OSM   H18T11889   3.066   3.352   9.471  2.2017 -0.0599 -0.3583
  114OSM   H18U11890   2.966   3.212   9.417  1.3776 -1.5074 -0.3870
  114OSM    C1F11891   3.805   3.747  10.847  0.2025  0.6550 -0.2050
  114OSM     OF11892   3.912   3.696  10.885  0.5733 -0.3290 -0.0373
  114OSM    C2F11893   3.795   3.828  10.719 -0.3365 -0.1498  0.1898
  114OSM    H2F11894   3.817   3.934  10.743 -1.0981 -0.5096  2.7969
  114OSM    H2G11895   3.691   3.823  10.679 -0.4980  1.6532  0.3313
  114OSM    C3F11896   3.889   3.773  10.606 -0.5788  0.4579 -0.1278
  114OSM    H3F11897   3.850   3.675  10.571 -1.2682  0.2967  1.0184
  114OSM    H3G11898   3.990   3.761  10.650 -1.0397  0.1736  0.8917
  114OSM    C4F11899   3.918   3.856  10.479 -0.5430  0.0257 -0.0736
  114OSM    H4F11900   3.981   3.947  10.493 -1.0522  0.2723  0.6680
  114OSM    H4G11901   3.820   3.880  10.432  0.7735  0.3145 -2.8586
  114OSM    C5F11902   4.003   3.778  10.374 -0.2278  0.2826 -0.2512
  114OSM    H5F11903   3.963   3.676  10.359  0.6472 -0.3174  1.2397
  114OSM    H5G11904   4.103   3.765  10.422  0.8320 -0.1142 -2.4373
  114OSM    C6F11905   4.027   3.858  10.239  0.8410  0.1100 -0.0454
  114OSM    H6F11906   4.087   3.948  10.264  0.8744 -0.1050  0.6602
  114OSM    H6G11907   3.929   3.900  10.207  0.7427 -0.8621 -1.0751
  114OSM    C7F11908   4.093   3.763  10.132  0.2236 -0.7778  0.7492
  114OSM    H7F11909   4.070   3.662  10.171 -0.5905 -1.3451 -1.0926
  114OSM    H7G11910   4.204   3.770  10.130  0.2254 -0.9461 -1.1060
  114OSM    C8F11911   4.048   3.773   9.982 -0.3293 -0.0363 -0.0687
  114OSM    H8F11912   4.131   3.833   9.938  0.3596  0.5333  1.8607
  114OSM    H8G11913   3.957   3.837   9.977 -0.7746 -0.7480 -1.4284
  114OSM    C9F11914   4.008   3.641   9.919 -0.2079 -0.2144 -0.2450
  114OSM    H9F11915   3.971   3.566   9.990  2.8986  0.7084  2.6097
  114OSM   C10F11916   4.025   3.615   9.790 -0.0601 -0.4950  0.3658
  114OSM   H10F11917   4.003   3.518   9.743  0.9039 -1.6149  2.1095
  114OSM   C11F11918   4.083   3.710   9.692 -0.6169 -0.4373  0.2728
  114OSM   H11F11919   4.179   3.750   9.731 -1.5011 -0.1959  2.3327
  114OSM   H11G11920   4.013   3.796   9.684 -1.0311 -0.9127 -1.4589
  114OSM   C12F11921   4.130   3.647   9.561 -0.3509 -0.1380  0.4782
  114OSM   H12F11922   4.191   3.557   9.581 -1.7795 -1.2530  0.0330
  114OSM   H12G11923   4.201   3.718   9.514 -2.2022  2.0216  0.7488
  114OSM   C13F11924   4.011   3.610   9.471 -0.5398  0.1550 -0.5928
  114OSM   H13F11925   3.950   3.702   9.457 -1.8031 -0.2650  1.7301
  114OSM   H13G11926   3.944   3.543   9.528  1.1899 -2.4613 -1.4393
  114OSM   C14F11927   4.052   3.549   9.337  0.2232  0.0256 -0.2510
  114OSM   H14F11928   4.095   3.449   9.357  1.1386  0.4476 -0.0505
  114OSM   H14G11929   4.122   3.616   9.283  0.6168  1.2455  1.6531
  114OSM   C15F11930   3.933   3.527   9.237 -0.8385 -0.3233 -0.2983
  114OSM   H15F11931   3.894   3.629   9.218  0.1807  0.2472  0.5421
  114OSM   H15G11932   3.860   3.458   9.284  0.5389 -1.5605  0.0975
  114OSM   C16F11933   3.985   3.451   9.113  0.5099  0.0705  0.5585
  114OSM   H16F11934   4.054   3.369   9.143 -0.4501 -0.0933  2.4744
  114OSM   H16G11935   4.040   3.511   9.038  0.5017 -1.3001 -0.5906
  114OSM   C17F11936   3.861   3.392   9.034 -0.4769 -0.1219 -0.2913
  114OSM   H17F11937   3.797   3.481   9.014  0.7170  1.5133  2.4677
  114OSM   H17G11938   3.810   3.329   9.110 -1.7175 -1.4843 -2.1538
  114OSM   C18F11939   3.900   3.325   8.897  0.3749  0.1128 -0.6324
  114OSM   H18F11940   3.944   3.229   8.932  0.9429  1.0715  1.4525
  114OSM   H18G11941   3.985   3.373   8.845  2.3989 -0.6044  1.8076
  114OSM   H18H11942   3.811   3.303   8.834  0.4521 -2.8543  0.1344
  115OSM      N11943   4.032   1.434   5.910 -0.9285 -0.2050  0.4920
  115OSM    C1511944   3.982   1.294   5.888  0.4053 -0.4062 -0.6038
  115OSM   H15A11945   4.055   1.219   5.913  0.7003  0.1452  0.2210
  115OSM   H15B11946   3.954   1.282   5.784 -0.6961 -1.0614 -0.2552
  115OSM   H15C11947   3.901   1.286   5.959  1.6600 -0.0413  0.9256
  115OSM    C1411948   4.162   1.455   5.841 -0.0822 -0.3615 -0.5379
  115OSM   H14A11949   4.227   1.532   5.881 -0.2567 -0.3544 -0.2621
  115OSM   H14B11950   4.157   1.467   5.734 -0.7898 -1.1180 -0.5959
  115OSM   H14C11951   4.221   1.364   5.847 -3.2158 -3.1054 -5.1331
  115OSM    C1311952   3.934   1.541   5.858  0.5626  0.1794 -0.0403
  115OSM   H13A11953   3.953   1.635   5.907  3.2079  0.8142 -2.0953
  115OSM   H13B11954   3.829   1.520   5.876 -0.0247  1.5924 -1.6180
  115OSM   H13C11955   3.952   1.556   5.753  2.4435 -1.2091  0.0364
  115OSM    C1211956   4.062   1.466   6.058  0.2276  0.0758  0.4157
  115OSM   H12A11957   3.969   1.463   6.113  0.8578  1.3992  1.6268
  115OSM   H12B11958   4.111   1.562   6.058  2.5853 -1.0487 -0.3388
  115OSM    C1111959   4.160   1.371   6.125  0.3964 -0.3176 -0.2141
  115OSM   H11A11960   4.203   1.427   6.211  0.0136 -2.3523  1.3792
  115OSM   H11B11961   4.244   1.340   6.059  1.0562  0.0972  0.4175
  115OSM      P11962   3.969   1.250   6.252 -0.2529  0.0812  0.0204
  115OSM    O1311963   3.877   1.365   6.229  0.1577 -0.1314 -0.0670
  115OSM    O1411964   3.905   1.121   6.244 -0.0531 -0.4157  0.4429
  115OSM    O1111965   4.023   1.262   6.399 -0.1287 -0.3201  0.8093
  115OSM    O1211966   4.083   1.258   6.156 -0.4001  0.0620  0.4091
  115OSM    C1S11967   4.161   1.219   6.429 -1.0205 -0.1034 -0.8685
  115OSM    H1S11968   4.235   1.290   6.387  0.1265 -0.5603  0.2987
  115OSM    H1T11969   4.185   1.115   6.398  0.9278  0.5553 -1.7259
  115OSM     NF11970   4.306   1.223   6.622  0.7352 -0.3600  0.1976
  115OSM    HNF11971   4.339   1.136   6.656 -0.1202 -0.5984  0.4536
  115OSM    C2S11972   4.165   1.222   6.588  0.4582  0.4419  0.2156
  115OSM    H2S11973   4.118   1.317   6.620 -1.2020 -0.0382 -0.6464
  115OSM    C3S11974   4.080   1.107   6.648 -0.3782  0.2253 -0.1388
  115OSM    H3S11975   4.127   1.008   6.627 -0.7255  0.4568 -2.1915
  115OSM     O311976   3.944   1.099   6.609 -0.3059 -0.5878  0.0203
  115OSM    HO311977   3.950   1.144   6.525  0.5993 -0.5958  0.0767
  115OSM    C4S11978   4.090   1.127   6.796  0.1275  0.5146 -0.6514
  115OSM    H4S11979   4.072   1.223   6.847 -1.1594 -0.9085  1.7121
  115OSM    C5S11980   4.134   1.029   6.879  0.0845  0.1223 -0.5630
  115OSM    H5S11981   4.164   0.932   6.837  0.8612  0.6939 -1.3675
  115OSM    C6S11982   4.151   1.032   7.030 -0.1088  0.0439  0.0397
  115OSM    H6S11983   4.117   1.131   7.069 -0.2305  0.1323 -0.2873
  115OSM    H6T11984   4.260   1.046   7.045 -0.0205  0.3564 -0.8054
  115OSM    C7S11985   4.083   0.921   7.103 -0.2796 -0.1239 -0.8872
  115OSM    H7S11986   4.098   0.828   7.043  0.7106 -1.2384  0.9817
  115OSM    H7T11987   3.975   0.939   7.121 -0.5745 -0.7549 -1.9402
  115OSM    C8S11988   4.139   0.893   7.243 -0.6492 -0.8188 -0.2153
  115OSM    H8S11989   4.250   0.895   7.239 -0.6283  0.5989  0.5434
  115OSM    H8T11990   4.111   0.796   7.290 -1.6610  0.3213  1.6706
  115OSM    C9S11991   4.083   0.989   7.347 -0.3698  0.0879  0.0857
  115OSM    H9S11992   3.975   0.977   7.369 -0.4498 -0.9932 -0.7659
  115OSM    H9T11993   4.105   1.094   7.319  1.3180 -0.5761 -1.3073
  115OSM   C10S11994   4.158   0.970   7.477  0.1037 -0.0734 -0.3962
  115OSM   H10S11995   4.122   1.053   7.542 -0.5024 -0.1672 -0.6132
  115OSM   H10T11996   4.269   0.978   7.467  0.0573 -1.6311 -3.2023
  115OSM   C11S11997   4.111   0.851   7.568  0.0215  0.5273 -0.1089
  115OSM   H11S11998   4.141   0.764   7.506  0.4754  1.8810 -1.8719
  115OSM   H11T11999   4.000   0.860   7.573 -0.0540 -0.5434  0.6469
  115OSM   C12S12000   4.175   0.843   7.703 -0.0863 -0.1116 -0.1183
  115OSM   H12S12001   4.283   0.870   7.706 -0.5207  1.6493  0.9821
  115OSM   H12T12002   4.178   0.733   7.720  1.7200 -0.1090 -0.2123
  115OSM   C13S12003   4.112   0.924   7.822 -0.1617  0.3247  0.6804
  115OSM   H13S12004   4.003   0.904   7.822  0.1767 -1.8485  0.0374
  115OSM   H13T12005   4.137   1.031   7.805  1.5275 -0.3300 -1.5850
  115OSM   C14S12006   4.171   0.874   7.951 -0.3075  0.0953  0.0094
  115OSM   H14S12007   4.281   0.882   7.942 -0.3122 -1.4287 -2.5805
  115OSM   H14T12008   4.155   0.765   7.970 -1.0095  0.4976  1.8908
  115OSM   C15S12009   4.144   0.952   8.082 -0.0826 -0.3203 -0.3054
  115OSM   H15S12010   4.039   0.978   8.108 -0.1128 -0.5351 -0.2130
  115OSM   H15T12011   4.205   1.044   8.088 -1.0099  0.2218  4.4982
  115OSM   C16S12012   4.193   0.879   8.202 -0.4061  0.4008 -0.8094
  115OSM   H16S12013   4.303   0.863   8.195 -0.3399  0.1830  0.5483
  115OSM   H16T12014   4.164   0.772   8.189 -0.5916  0.5785 -1.9582
  115OSM   C17S12015   4.154   0.942   8.329  0.3167 -0.3275  0.8094
  115OSM   H17S12016   4.155   1.053   8.323  0.1702 -0.4021 -1.5601
  115OSM   H17T12017   4.209   0.906   8.419 -1.5605 -1.3495  1.6091
  115OSM   C18S12018   4.005   0.913   8.363  0.4941  0.1572 -0.2049
  115OSM   H18S12019   3.987   0.964   8.460  4.2799 -0.7493  1.1324
  115OSM   H18T12020   3.994   0.805   8.385  1.2992 -0.0595 -0.7922
  115OSM   H18U12021   3.937   0.941   8.279  0.7396  1.1628 -0.0852
  115OSM    C1F12022   4.390   1.319   6.588 -0.0332  0.2937  0.1398
  115OSM     OF12023   4.351   1.435   6.555  0.2384  0.6387  0.1386
  115OSM    C2F12024   4.524   1.282   6.591 -0.4995 -0.7298  0.4485
  115OSM    H2F12025   4.570   1.341   6.510  1.1342 -1.3482  0.8796
  115OSM    H2G12026   4.538   1.173   6.570  1.0207 -1.0225  2.6150
  115OSM    C3F12027   4.601   1.315   6.721 -0.4956  0.0920 -0.1272
  115OSM    H3F12028   4.594   1.425   6.728  2.1242  0.3941 -1.0481
  115OSM    H3G12029   4.704   1.277   6.702  0.7454  2.9453  0.4639
  115OSM    C4F12030   4.542   1.252   6.853 -0.0152  0.2054 -0.0968
  115OSM    H4F12031   4.573   1.147   6.834 -1.4935  0.1443 -2.4288
  115OSM    H4G12032   4.434   1.267   6.873  0.4192 -1.0998  4.3600
  115OSM    C5F12033   4.607   1.299   6.990  0.3370 -0.1937  0.0502
  115OSM    H5F12034   4.598   1.407   7.015  1.7201 -0.1214  0.2949
  115OSM    H5G12035   4.712   1.265   6.985  0.3068 -1.3986  4.2426
  115OSM    C6F12036   4.533   1.232   7.105  0.4024 -0.2653 -0.1140
  115OSM    H6F12037   4.531   1.124   7.081 -0.1025  0.1768 -2.2544
  115OSM    H6G12038   4.429   1.268   7.117  0.7342  1.0784 -1.1137
  115OSM    C7F12039   4.600   1.250   7.239  0.6744 -0.0077 -0.3403
  115OSM    H7F12040   4.629   1.357   7.250  1.1293 -0.2102  0.5569
  115OSM    H7G12041   4.695   1.193   7.236  0.1287 -0.9350 -0.2889
  115OSM    C8F12042   4.509   1.208   7.359 -0.0869  0.0492  0.0237
  115OSM    H8F12043   4.402   1.202   7.328 -1.2862  1.4955  3.4169
  115OSM    H8G12044   4.503   1.290   7.433 -2.0085 -0.3675  0.3874
  115OSM    C9F12045   4.554   1.082   7.420 -0.1359  0.2514 -0.3179
  115OSM    H9F12046   4.566   0.995   7.353 -0.5333 -0.0101 -0.0478
  115OSM   C10F12047   4.586   1.064   7.548 -0.2957 -1.0097 -0.4975
  115OSM   H10F12048   4.628   0.967   7.580  0.4020 -0.2764  0.8841
  115OSM   C11F12049   4.582   1.169   7.655  0.3029  0.5890 -0.4787
  115OSM   H11F12050   4.514   1.254   7.635 -0.3953 -0.0933 -1.0540
  115OSM   H11G12051   4.682   1.215   7.671  3.1323 -4.0470 -2.7359
  115OSM   C12F12052   4.537   1.106   7.795 -0.0245  0.0063  0.2934
  115OSM   H12F12053   4.592   1.012   7.816  0.0309 -0.4567 -1.7751
  115OSM   H12G12054   4.429   1.084   7.787 -0.3554  1.1840  1.2081
  115OSM   C13F12055   4.559   1.206   7.910 -0.2269  0.2733 -0.1789
  115OSM   H13F12056   4.493   1.294   7.899 -0.0336  0.6881  1.5687
  115OSM   H13G12057   4.666   1.235   7.907 -0.4792  1.5594  1.5935
  115OSM   C14F12058   4.526   1.148   8.046  0.2970 -0.3932  0.0183
  115OSM   H14F12059   4.590   1.063   8.077 -0.9320 -2.0844 -1.7636
  115OSM   H14G12060   4.430   1.092   8.052 -0.0294  0.1317 -0.2351
  115OSM   C15F12061   4.519   1.266   8.153  0.9326 -0.3485 -0.1803
  115OSM   H15F12062   4.454   1.348   8.116 -0.1617 -1.0244  0.1847
  115OSM   H15G12063   4.617   1.314   8.170  0.2684  0.5220  1.4473
  115OSM   C16F12064   4.473   1.222   8.296 -0.4053  0.7098 -0.2717
  115OSM   H16F12065   4.522   1.128   8.329  0.2670  0.6530 -1.3688
  115OSM   H16G12066   4.367   1.191   8.281  0.5528 -2.6569 -0.7629
  115OSM   C17F12067   4.472   1.335   8.403 -0.5386 -0.6602  0.0058
  115OSM   H17F12068   4.416   1.419   8.357 -0.4852 -1.0449 -0.7875
  115OSM   H17G12069   4.573   1.377   8.424  0.1894 -1.1949 -2.1693
  115OSM   C18F12070   4.411   1.302   8.542  0.1846 -0.0592  0.7458
  115OSM   H18F12071   4.309   1.267   8.517  0.6050  0.2417 -1.5949
  115OSM   H18G12072   4.397   1.393   8.604  0.5732  0.5658 -0.0578
  115OSM   H18H12073   4.460   1.221   8.601 -0.3271  0.5763  2.0868
  116OSM      N12074   3.258   5.469   6.222  0.1249  0.1138 -0.2779
  116OSM    C1512075   3.399   5.510   6.227  0.0266  0.2057 -0.3676
  116OSM   H15A12076   3.440   5.511   6.127 -0.5683  0.8189 -0.6081
  116OSM   H15B12077   3.461   5.448   6.291 -0.2317  0.1373 -0.1815
  116OSM   H15C12078   3.415   5.609   6.265  1.6904 -1.1628  2.9353
  116OSM    C1412079   3.172   5.585   6.171 -1.0210  0.3831  0.3353
  116OSM   H14A12080   3.067   5.559   6.162 -0.9846 -0.5721  2.2218
  116OSM   H14B12081   3.211   5.602   6.072  1.7861  0.1358  1.3144
  116OSM   H14C12082   3.176   5.673   6.233  0.0214  0.7389 -0.2154
  116OSM    C1312083   3.255   5.364   6.116  0.0528  0.4122 -0.0898
  116OSM   H13A12084   3.158   5.343   6.072  0.0181  1.4391 -0.5266
  116OSM   H13B12085   3.292   5.274   6.164  1.2581  0.2020 -1.3382
  116OSM   H13C12086   3.323   5.382   6.034  1.0739 -1.2365  0.3256
  116OSM    C1212087   3.198   5.423   6.354  0.0135  0.3533 -0.2731
  116OSM   H12A12088   3.093   5.401   6.342 -0.2964  1.8315 -0.4093
  116OSM   H12B12089   3.213   5.508   6.420 -0.9874  0.3081  0.0218
  116OSM    C1112090   3.255   5.296   6.428  0.8185  0.2645  0.4551
  116OSM   H11A12091   3.211   5.203   6.387 -1.4606  1.5260 -0.1491
  116OSM   H11B12092   3.222   5.316   6.532 -2.1552 -0.1774 -0.3162
  116OSM      P12093   3.480   5.164   6.365 -0.4273  0.1829 -0.4752
  116OSM    O1312094   3.404   5.083   6.270  0.2268  0.0821  0.3589
  116OSM    O1412095   3.615   5.218   6.326  0.5688 -0.3576  0.0720
  116OSM    O1112096   3.498   5.069   6.492  0.2842 -0.0341 -0.5050
  116OSM    O1212097   3.395   5.289   6.426  0.7392  0.0497 -0.2118
  116OSM    C1S12098   3.571   5.104   6.611 -0.3362  0.1211  0.0804
  116OSM    H1S12099   3.592   5.212   6.606 -1.4196  0.3685 -4.7986
  116OSM    H1T12100   3.672   5.066   6.584  1.6610  4.1549  1.2651
  116OSM     NF12101   3.616   5.060   6.852 -0.1868  0.4513 -0.1967
  116OSM    HNF12102   3.669   4.979   6.873  0.3383  0.6009 -0.9378
  116OSM    C2S12103   3.516   5.048   6.752  0.5408 -0.4370  0.4927
  116OSM    H2S12104   3.436   5.118   6.783  0.5447 -0.5900  0.8502
  116OSM    C3S12105   3.442   4.915   6.738 -0.4512 -0.3589  0.1458
  116OSM    H3S12106   3.516   4.835   6.723  1.0696  1.0054  0.0959
  116OSM     O312107   3.352   4.907   6.628  0.0057 -0.0468  0.0866
  116OSM    HO312108   3.383   4.981   6.575 -0.9103  1.9842  2.2308
  116OSM    C4S12109   3.381   4.894   6.871  0.5901 -0.9031  0.5307
  116OSM    H4S12110   3.312   4.971   6.908  1.9104  1.3581 -1.4366
  116OSM    C5S12111   3.381   4.783   6.939 -0.1002 -0.0252  0.3607
  116OSM    H5S12112   3.435   4.696   6.900  1.1667 -0.3500  2.6687
  116OSM    C6S12113   3.312   4.764   7.070 -0.0453 -0.1644 -0.7091
  116OSM    H6S12114   3.257   4.668   7.077 -0.9185  0.1034 -2.9029
  116OSM    H6T12115   3.252   4.851   7.102  1.9196  0.6197  1.0978
  116OSM    C7S12116   3.424   4.764   7.187  0.7661  0.2956  0.2338
  116OSM    H7S12117   3.516   4.825   7.173  1.2474 -0.9961 -3.1547
  116OSM    H7T12118   3.463   4.660   7.185 -2.1352 -1.0140  2.8972
  116OSM    C8S12119   3.374   4.806   7.323  0.2206 -0.1134  0.1308
  116OSM    H8S12120   3.267   4.788   7.347  0.4614 -0.5257  0.9418
  116OSM    H8T12121   3.387   4.916   7.335  2.0569 -0.2441 -0.3192
  116OSM    C9S12122   3.452   4.741   7.437 -0.1777 -0.4674  0.3321
  116OSM    H9S12123   3.551   4.788   7.424 -0.8972  0.9593 -0.1716
  116OSM    H9T12124   3.443   4.631   7.419 -2.6034 -0.3577  0.4626
  116OSM   C10S12125   3.389   4.763   7.575 -0.2680 -0.2714  0.2215
  116OSM   H10S12126   3.289   4.714   7.567 -0.2967 -0.3500  1.0198
  116OSM   H10T12127   3.381   4.869   7.609 -2.8175 -0.9130  1.9871
  116OSM   C11S12128   3.486   4.700   7.687 -0.2868 -0.1063  0.8726
  116OSM   H11S12129   3.585   4.734   7.651 -1.4302  2.4989 -0.1245
  116OSM   H11T12130   3.495   4.590   7.696  0.0604  0.0334  2.5051
  116OSM   C12S12131   3.444   4.730   7.832 -0.2367 -0.2723 -0.2804
  116OSM   H12S12132   3.342   4.690   7.850  0.0879 -0.3792  1.4848
  116OSM   H12T12133   3.450   4.841   7.831  3.0771 -0.0811 -6.0576
  116OSM   C13S12134   3.538   4.681   7.934 -0.8521 -0.0550 -0.6083
  116OSM   H13S12135   3.641   4.715   7.913 -0.8201  0.5194  0.4066
  116OSM   H13T12136   3.560   4.572   7.926 -1.7680 -0.1802 -1.6755
  116OSM   C14S12137   3.506   4.721   8.081 -0.3257  0.1879 -0.3136
  116OSM   H14S12138   3.409   4.671   8.104 -1.9549  2.3072 -2.0516
  116OSM   H14T12139   3.507   4.832   8.094 -3.5348  0.1514  1.3148
  116OSM   C15S12140   3.621   4.668   8.175 -0.0885 -0.4140  0.6974
  116OSM   H15S12141   3.713   4.705   8.126 -1.4054 -0.8569 -2.2789
  116OSM   H15T12142   3.621   4.557   8.174  1.2551 -0.4642  2.1322
  116OSM   C16S12143   3.607   4.727   8.316 -0.7231  0.5788 -0.7462
  116OSM   H16S12144   3.498   4.723   8.336 -1.3420  3.7109 -2.7776
  116OSM   H16T12145   3.630   4.836   8.315  1.3392  0.2250 -3.0746
  116OSM   C17S12146   3.699   4.656   8.416 -0.4216 -0.2701  0.0499
  116OSM   H17S12147   3.802   4.678   8.380 -0.9487 -0.0761 -1.4422
  116OSM   H17T12148   3.685   4.546   8.402  0.4298 -0.9281  3.4054
  116OSM   C18S12149   3.680   4.713   8.555  0.0263  0.0958  1.3272
  116OSM   H18S12150   3.574   4.698   8.584 -0.2137  0.6226  0.7396
  116OSM   H18T12151   3.702   4.821   8.549  0.0505  0.0636  0.8141
  116OSM   H18U12152   3.749   4.664   8.628 -0.2964 -1.1842  0.7948
  116OSM    C1F12153   3.648   5.180   6.894  0.2321  0.0487 -0.3894
  116OSM     OF12154   3.596   5.281   6.856  0.1272  0.1559  0.0854
  116OSM    C2F12155   3.755   5.182   6.998  0.0286  0.0129  0.2033
  116OSM    H2F12156   3.838   5.242   6.953 -1.0432  1.4392  0.0592
  116OSM    H2G12157   3.794   5.081   7.023 -0.0636  0.3764  1.9288
  116OSM    C3F12158   3.726   5.253   7.127  0.2174 -0.4559  0.0252
  116OSM    H3F12159   3.692   5.359   7.118  1.1563 -0.0016  1.3961
  116OSM    H3G12160   3.814   5.262   7.195 -0.4431 -3.3263  1.4146
  116OSM    C4F12161   3.620   5.182   7.203 -0.0975  0.0987 -0.3216
  116OSM    H4F12162   3.537   5.142   7.141  1.0095 -1.5159 -0.8343
  116OSM    H4G12163   3.573   5.246   7.281 -0.8015 -0.8080  0.0233
  116OSM    C5F12164   3.680   5.057   7.282 -0.3619  0.7225 -0.3947
  116OSM    H5F12165   3.746   4.994   7.218  2.1791  1.6763  1.1636
  116OSM    H5G12166   3.597   4.996   7.324 -0.1907 -0.0791 -1.1897
  116OSM    C6F12167   3.754   5.106   7.413 -1.1184 -0.6555 -0.0488
  116OSM    H6F12168   3.695   5.187   7.461 -0.5752  0.1031 -0.6298
  116OSM    H6G12169   3.857   5.139   7.391 -0.5904 -0.5038  2.4327
  116OSM    C7F12170   3.779   4.993   7.519  0.6222  0.6071 -0.2829
  116OSM    H7F12171   3.835   4.907   7.477 -1.0796 -0.5239 -0.3265
  116OSM    H7G12172   3.679   4.951   7.545  0.4486 -0.5939 -2.6983
  116OSM    C8F12173   3.854   5.057   7.636 -0.0083  0.4933  0.0941
  116OSM    H8F12174   3.787   5.134   7.680 -1.9154  0.4497 -2.4601
  116OSM    H8G12175   3.935   5.117   7.590 -1.1868  0.7729 -1.7494
  116OSM    C9F12176   3.894   4.972   7.759 -0.8125 -0.1112 -0.2646
  116OSM    H9F12177   3.813   4.904   7.787  0.1568 -0.5605  1.6049
  116OSM   C10F12178   4.003   4.981   7.839 -1.4311 -0.3318  0.4403
  116OSM   H10F12179   4.008   4.924   7.932 -0.5638  0.0184  0.6200
  116OSM   C11F12180   4.099   5.095   7.813  0.8809  0.4543  0.3983
  116OSM   H11F12181   4.038   5.189   7.812  0.0079 -0.0963 -0.5793
  116OSM   H11G12182   4.142   5.083   7.712 -0.8177 -1.6191 -0.1445
  116OSM   C12F12183   4.196   5.122   7.929 -0.2315  0.3891 -0.2855
  116OSM   H12F12184   4.244   5.026   7.957 -0.1290 -0.0160 -1.7659
  116OSM   H12G12185   4.150   5.155   8.025  0.6485  0.9946 -0.0489
  116OSM   C13F12186   4.311   5.228   7.914  0.1695  0.6833  0.2072
  116OSM   H13F12187   4.258   5.324   7.898 -1.1302 -0.2912 -1.8037
  116OSM   H13G12188   4.374   5.206   7.825  1.9018 -1.1341  1.8015
  116OSM   C14F12189   4.403   5.217   8.033  0.1180  0.1190 -0.1607
  116OSM   H14F12190   4.465   5.125   8.032 -0.5082 -0.3904  2.3845
  116OSM   H14G12191   4.348   5.227   8.128  0.2082 -2.8562  0.2766
  116OSM   C15F12192   4.511   5.322   8.031  0.4030 -0.2519  0.0381
  116OSM   H15F12193   4.456   5.416   8.008 -0.3133 -0.8552 -0.8077
  116OSM   H15G12194   4.567   5.306   7.937 -1.6285 -1.8004 -0.9813
  116OSM   C16F12195   4.589   5.330   8.165  0.2596 -0.5163 -0.0919
  116OSM   H16F12196   4.522   5.342   8.252  1.5702 -0.0016  0.8713
  116OSM   H16G12197   4.650   5.422   8.151 -2.2021  1.2236  0.0283
  116OSM   C17F12198   4.683   5.208   8.177  0.0926 -0.4168 -0.0036
  116OSM   H17F12199   4.748   5.191   8.089 -0.0531  0.7894 -0.3518
  116OSM   H17G12200   4.618   5.120   8.193  1.0998 -0.8259  2.3919
  116OSM   C18F12201   4.798   5.222   8.282 -0.7416  0.0844 -0.3146
  116OSM   H18F12202   4.852   5.125   8.281 -1.5540 -0.4013  0.5753
  116OSM   H18G12203   4.749   5.238   8.381  1.0469 -2.7089  1.1404
  116OSM   H18H12204   4.860   5.309   8.254  2.4042 -0.7348  3.2891
  117OSM      N12205   2.129   0.607   6.289  0.0028 -0.1447  0.2818
  117OSM    C1512206   2.268   0.660   6.300  0.2150  1.1299  0.4065
  117OSM   H15A12207   2.329   0.634   6.215 -0.3237  1.1903 -0.0003
  117OSM   H15B12208   2.315   0.618   6.388  0.6653  0.6846 -0.0358
  117OSM   H15C12209   2.267   0.767   6.313  0.7586  1.1326  0.4715
  117OSM    C1412210   2.058   0.699   6.198  0.0895  0.7419 -0.0985
  117OSM   H14A12211   2.090   0.677   6.097 -1.8538 -4.0632  0.0338
  117OSM   H14B12212   2.065   0.805   6.214 -2.2112  0.9950 -0.4163
  117OSM   H14C12213   1.957   0.661   6.185  1.0920 -1.8770 -1.0676
  117OSM    C1312214   2.128   0.470   6.229  0.2441  0.2259  0.5609
  117OSM   H13A12215   2.193   0.406   6.287  0.2087  0.3289  0.7176
  117OSM   H13B12216   2.166   0.487   6.130 -1.1784  0.6665  0.0710
  117OSM   H13C12217   2.033   0.421   6.223  0.9021 -0.8793 -3.0806
  117OSM    C1212218   2.063   0.614   6.422  0.1422 -0.2250 -0.3056
  117OSM   H12A12219   1.958   0.590   6.412 -0.3100  0.8527  1.4620
  117OSM   H12B12220   2.071   0.714   6.462  2.8438 -1.0678  1.5234
  117OSM    C1112221   2.119   0.524   6.540 -0.2991  0.0924  0.3807
  117OSM   H11A12222   2.070   0.533   6.639 -0.0521 -0.6291  0.5698
  117OSM   H11B12223   2.224   0.558   6.550  1.1801 -1.9916 -4.7881
  117OSM      P12224   1.972   0.312   6.491  0.4536 -0.1050  0.2589
  117OSM    O1312225   1.871   0.399   6.546  0.0975  0.0426  0.6011
  117OSM    O1412226   1.942   0.258   6.355  0.2902 -0.6285  0.1162
  117OSM    O1112227   1.996   0.191   6.592 -0.4182  0.2533 -0.2158
  117OSM    O1212228   2.114   0.386   6.492 -0.1554 -0.3302  0.1545
  117OSM    C1S12229   2.096   0.199   6.697  0.3722 -0.1577  0.0185
  117OSM    H1S12230   2.194   0.234   6.659 -0.0038  1.6080  0.5859
  117OSM    H1T12231   2.099   0.091   6.727 -1.2585 -0.8396 -2.0659
  117OSM     NF12232   2.159   0.276   6.915 -0.3373 -0.2557 -0.4612
  117OSM    HNF12233   2.159   0.210   6.990 -0.2226  1.4812  1.1605
  117OSM    C2S12234   2.049   0.282   6.820  0.1693  0.2433  0.1178
  117OSM    H2S12235   2.024   0.387   6.794 -0.7614  0.3597  1.4066
  117OSM    C3S12236   1.914   0.219   6.871  0.3117 -0.6005  1.1709
  117OSM    H3S12237   1.936   0.120   6.916  0.7888 -0.8651  0.3762
  117OSM     O312238   1.808   0.193   6.770 -0.0066 -0.0239  0.2404
  117OSM    HO312239   1.839   0.203   6.680 -3.1946 -0.5076 -1.0341
  117OSM    C4S12240   1.863   0.312   6.983 -0.7991 -0.9434  0.5097
  117OSM    H4S12241   1.909   0.307   7.082 -0.6383  0.7969  0.5569
  117OSM    C5S12242   1.776   0.417   6.957  0.0482  0.2131 -0.1324
  117OSM    H5S12243   1.734   0.440   6.859  0.2685  1.9846  0.1671
  117OSM    C6S12244   1.736   0.519   7.059  0.0515  0.1266  0.1584
  117OSM    H6S12245   1.628   0.543   7.043  0.1443  0.4593  0.0164
  117OSM    H6T12246   1.791   0.612   7.031  0.3597 -0.5628 -1.6844
  117OSM    C7S12247   1.743   0.483   7.215  0.1210  0.6205 -0.1765
  117OSM    H7S12248   1.846   0.524   7.229 -0.3599  1.7908 -0.0147
  117OSM    H7T12249   1.727   0.377   7.244 -1.4082  0.5388 -1.2150
  117OSM    C8S12250   1.642   0.576   7.287 -0.4170 -0.2785 -0.7309
  117OSM    H8S12251   1.536   0.549   7.267 -0.6036  0.3679 -0.6457
  117OSM    H8T12252   1.665   0.678   7.251 -0.9047 -0.3456 -1.2510
  117OSM    C9S12253   1.658   0.566   7.439 -0.4046 -0.2839 -0.4257
  117OSM    H9S12254   1.761   0.552   7.478 -0.5040  0.5431  0.1539
  117OSM    H9T12255   1.599   0.475   7.466 -1.2740  0.5902  0.7067
  117OSM   C10S12256   1.602   0.688   7.519  0.4005  0.3221  0.7549
  117OSM   H10S12257   1.508   0.714   7.466  0.4631  0.8327  0.8846
  117OSM   H10T12258   1.670   0.776   7.516 -0.4454  1.0858  2.5540
  117OSM   C11S12259   1.575   0.662   7.664 -0.0336 -0.2275 -0.3279
  117OSM   H11S12260   1.515   0.568   7.664 -1.5765  0.6583 -2.7478
  117OSM   H11T12261   1.513   0.751   7.689 -0.8540 -0.6917 -0.6695
  117OSM   C12S12262   1.704   0.650   7.758  0.7052 -0.2281  0.6839
  117OSM   H12S12263   1.779   0.726   7.729 -1.2761  1.8632  0.7861
  117OSM   H12T12264   1.753   0.553   7.731 -0.0440 -0.2489 -0.6667
  117OSM   C13S12265   1.669   0.673   7.905  0.1228  0.7827  0.5296
  117OSM   H13S12266   1.582   0.605   7.921  0.5375 -0.1838 -1.1592
  117OSM   H13T12267   1.639   0.779   7.918 -1.8266  0.8440 -3.2709
  117OSM   C14S12268   1.780   0.652   8.005  0.2372  0.4510  0.0910
  117OSM   H14S12269   1.862   0.725   7.998  0.7784 -0.2512 -1.0864
  117OSM   H14T12270   1.831   0.556   7.984 -0.1237  0.5139 -1.1213
  117OSM   C15S12271   1.736   0.664   8.153  0.4954 -0.1709 -0.0570
  117OSM   H15S12272   1.676   0.574   8.178 -0.6831  0.3897 -0.7868
  117OSM   H15T12273   1.660   0.745   8.158  2.4674  1.6734  3.6997
  117OSM   C16S12274   1.844   0.713   8.234  0.1309  0.6414  0.1804
  117OSM   H16S12275   1.873   0.813   8.196 -0.6048  1.8175  2.5269
  117OSM   H16T12276   1.937   0.652   8.238  0.6472  1.4448  0.7040
  117OSM   C17S12277   1.788   0.740   8.376 -0.3526 -0.7780  0.3406
  117OSM   H17S12278   1.776   0.643   8.429  0.4938 -2.2481 -2.0299
  117OSM   H17T12279   1.687   0.788   8.370  0.4304  0.8750 -0.1951
  117OSM   C18S12280   1.872   0.851   8.451 -0.3366  0.0866  0.2783
  117OSM   H18S12281   1.898   0.947   8.402 -1.8179  0.6151  0.4757
  117OSM   H18T12282   1.971   0.812   8.484 -0.8882 -0.3847  1.4148
  117OSM   H18U12283   1.818   0.875   8.545  0.8232 -1.0283  1.2718
  117OSM    C1F12284   2.274   0.346   6.892  0.5822  0.3086  0.5332
  117OSM     OF12285   2.274   0.423   6.796  0.1991 -0.1649 -0.3542
  117OSM    C2F12286   2.388   0.323   6.991  0.5963  0.1952  0.1935
  117OSM    H2F12287   2.337   0.266   7.072 -3.0929  0.8332 -1.4600
  117OSM    H2G12288   2.419   0.423   7.028 -0.5192  0.9519 -0.8112
  117OSM    C3F12289   2.511   0.241   6.934  0.0466 -0.1608  0.0484
  117OSM    H3F12290   2.571   0.292   6.856  0.1785  0.5796  0.6234
  117OSM    H3G12291   2.478   0.141   6.897 -0.8082 -0.0984  0.6376
  117OSM    C4F12292   2.620   0.214   7.043 -0.5042  0.0437  0.4409
  117OSM    H4F12293   2.685   0.303   7.061 -0.3809  0.1901 -0.6714
  117OSM    H4G12294   2.683   0.130   7.008  1.2105  0.3226  2.6369
  117OSM    C5F12295   2.570   0.164   7.177 -0.3640 -0.1930 -0.3380
  117OSM    H5F12296   2.479   0.102   7.160 -1.5082  1.3295 -0.0110
  117OSM    H5G12297   2.550   0.256   7.235  0.6572 -1.1281  1.5875
  117OSM    C6F12298   2.666   0.087   7.277  0.6696 -0.2324  0.0710
  117OSM    H6F12299   2.767   0.133   7.284  1.5229 -1.7330 -1.6842
  117OSM    H6G12300   2.685  -0.015   7.238 -0.5313 -0.9736  1.3261
  117OSM    C7F12301   2.617   0.073   7.418  0.0385  0.1964  0.2538
  117OSM    H7F12302   2.681   0.008   7.481 -1.7648 -1.1453  0.7782
  117OSM    H7G12303   2.524   0.012   7.418 -1.4334  2.1675  3.5590
  117OSM    C8F12304   2.569   0.199   7.498  0.0618 -0.2767 -0.1390
  117OSM    H8F12305   2.533   0.164   7.597  2.1468 -0.0364  0.7554
  117OSM    H8G12306   2.485   0.239   7.437 -0.3255 -1.6398 -0.5314
  117OSM    C9F12307   2.671   0.309   7.512  0.3097  0.9411 -0.7731
  117OSM    H9F12308   2.745   0.317   7.431 -1.4905 -0.6317 -2.6964
  117OSM   C10F12309   2.669   0.399   7.611  0.4277 -0.2928 -0.2754
  117OSM   H10F12310   2.750   0.473   7.615  0.3241 -0.2051  0.3006
  117OSM   C11F12311   2.572   0.401   7.730  0.3180 -0.0817  0.0140
  117OSM   H11F12312   2.492   0.324   7.721 -0.1310  0.4222 -0.4569
  117OSM   H11G12313   2.526   0.502   7.726  0.5759 -0.0015 -2.0415
  117OSM   C12F12314   2.643   0.376   7.859  0.2622  0.1139  0.2899
  117OSM   H12F12315   2.732   0.439   7.881  0.3301  0.1700 -0.1425
  117OSM   H12G12316   2.673   0.269   7.851 -0.2710  0.1087 -3.7165
  117OSM   C13F12317   2.542   0.377   7.973  0.1560 -0.1342  0.0083
  117OSM   H13F12318   2.446   0.329   7.943  1.5685 -3.5891  0.5899
  117OSM   H13G12319   2.519   0.481   8.004  1.2911 -0.5101  2.2699
  117OSM   C14F12320   2.583   0.322   8.108 -0.0960  0.3019  0.2715
  117OSM   H14F12321   2.668   0.368   8.162 -0.8095  1.0197  0.8039
  117OSM   H14G12322   2.599   0.216   8.080 -1.9502 -0.5577  2.1539
  117OSM   C15F12323   2.470   0.324   8.208  0.9241  0.0529  0.3465
  117OSM   H15F12324   2.379   0.289   8.155 -0.3167  1.3050  1.5707
  117OSM   H15G12325   2.449   0.426   8.245 -1.5372  0.0519 -0.8845
  117OSM   C16F12326   2.492   0.246   8.332  0.4268 -0.2182  0.0357
  117OSM   H16F12327   2.588   0.268   8.383  0.9061 -1.4016 -0.3223
  117OSM   H16G12328   2.490   0.141   8.294  1.8167  0.4520 -2.0395
  117OSM   C17F12329   2.383   0.271   8.438 -0.0730 -0.8976  0.3230
  117OSM   H17F12330   2.373   0.379   8.461  0.4316 -0.8484  0.3194
  117OSM   H17G12331   2.285   0.233   8.404  0.4345 -2.1710  0.2419
  117OSM   C18F12332   2.402   0.203   8.570 -0.0414 -0.8547 -0.7560
  117OSM   H18F12333   2.304   0.216   8.621 -0.1592  0.3009 -1.2521
  117OSM   H18G12334   2.492   0.246   8.618  0.3213  0.2463 -2.3328
  117OSM   H18H12335   2.419   0.093   8.571  2.2339 -0.5721 -1.5756
  118OSM      N12336   5.740   0.993   5.939 -0.0713  0.5907 -0.0612
  118OSM    C1512337   5.642   0.900   6.004 -0.2790  0.5576 -0.1211
  118OSM   H15A12338   5.547   0.951   6.007  0.1113  1.4930 -2.1204
  118OSM   H15B12339   5.673   0.869   6.103 -0.9436  1.4291  0.3766
  118OSM   H15C12340   5.625   0.810   5.947 -1.2163  1.1039 -0.7315
  118OSM    C1412341   5.875   0.918   5.935  0.5792  1.2415 -0.4080
  118OSM   H14A12342   5.908   0.893   6.034 -0.6321  0.7054 -0.1197
  118OSM   H14B12343   5.951   0.983   5.895  1.7510  1.0181  1.3580
  118OSM   H14C12344   5.860   0.828   5.877  1.2000  0.3313  0.8107
  118OSM    C1312345   5.701   1.025   5.805  0.7087 -0.2295 -0.5439
  118OSM   H13A12346   5.609   1.080   5.802  0.4432 -0.6952 -1.4383
  118OSM   H13B12347   5.691   0.934   5.747  0.5724  0.1622 -1.1481
  118OSM   H13C12348   5.772   1.093   5.761 -1.8883  1.4866 -2.3316
  118OSM    C1212349   5.749   1.132   6.010  0.7346  0.8154  0.5780
  118OSM   H12A12350   5.655   1.184   6.014  0.0464 -0.0758 -2.1216
  118OSM   H12B12351   5.814   1.194   5.951  1.5337  0.6364  1.2447
  118OSM    C1112352   5.802   1.127   6.153 -0.4773  0.1448  0.0410
  118OSM   H11A12353   5.847   1.224   6.181 -1.8406  0.6349  0.6122
  118OSM   H11B12354   5.894   1.066   6.159 -1.1782 -0.9119  0.4352
  118OSM      P12355   5.588   1.182   6.289  0.1446 -0.0350 -0.1228
  118OSM    O1312356   5.653   1.298   6.349  0.3475  0.4001  0.1404
  118OSM    O1412357   5.503   1.203   6.172  0.6748 -0.3334  0.3809
  118OSM    O1112358   5.496   1.104   6.392  0.4908  0.0120 -0.8812
  118OSM    O1212359   5.701   1.076   6.250  0.1474  0.2569 -0.0133
  118OSM    C1S12360   5.545   1.043   6.518  0.4367 -0.4353 -1.0102
  118OSM    H1S12361   5.612   1.104   6.582 -0.9565  0.9570 -0.8241
  118OSM    H1T12362   5.608   0.953   6.499  1.0108 -0.2836  0.0716
  118OSM     NF12363   5.484   0.942   6.730  0.8081  0.7190  0.3915
  118OSM    HNF12364   5.482   0.843   6.729 -1.6000  0.7145 -1.1588
  118OSM    C2S12365   5.422   1.006   6.609  0.1915 -0.3087 -0.4363
  118OSM    H2S12366   5.376   1.103   6.638 -1.2043 -1.3455  1.0034
  118OSM    C3S12367   5.311   0.919   6.533  0.5218 -0.6577 -0.3680
  118OSM    H3S12368   5.368   0.831   6.496  2.1766 -0.5041  1.6149
  118OSM     O312369   5.264   0.985   6.415 -0.0078 -0.2089 -0.1422
  118OSM    HO312370   5.329   1.055   6.405 -0.1710 -0.1397 -0.7531
  118OSM    C4S12371   5.201   0.889   6.632 -0.2895 -0.5550  0.2576
  118OSM    H4S12372   5.230   0.829   6.719 -1.3714 -0.7781  0.4732
  118OSM    C5S12373   5.072   0.928   6.623 -0.3752 -0.4839  0.8883
  118OSM    H5S12374   5.043   1.002   6.546 -1.9943 -1.5807  0.3745
  118OSM    C6S12375   4.963   0.896   6.720 -0.3917  0.6818 -0.6333
  118OSM    H6S12376   4.897   0.813   6.686 -0.8566  1.1911 -0.9770
  118OSM    H6T12377   4.905   0.988   6.740 -1.0413  0.0335  0.6144
  118OSM    C7S12378   4.999   0.848   6.867 -0.0429  0.5330 -0.2940
  118OSM    H7S12379   5.041   0.940   6.913  1.2619 -0.0461 -0.2774
  118OSM    H7T12380   5.072   0.764   6.870  0.0524  0.5538 -1.6033
  118OSM    C8S12381   4.876   0.815   6.946  0.5546  1.2873  0.0988
  118OSM    H8S12382   4.845   0.721   6.895  1.1240  1.9479 -1.5269
  118OSM    H8T12383   4.793   0.888   6.931 -1.2957 -0.8141 -0.4710
  118OSM    C9S12384   4.899   0.775   7.092  0.2408 -0.2040 -0.2337
  118OSM    H9S12385   4.971   0.691   7.106 -2.1399 -2.4152 -0.4507
  118OSM    H9T12386   4.800   0.731   7.115  0.7630 -0.8613  0.8306
  118OSM   C10S12387   4.916   0.894   7.187 -1.5121 -0.3371 -0.3991
  118OSM   H10S12388   4.844   0.974   7.157 -2.0482  0.3428  2.3909
  118OSM   H10T12389   5.018   0.927   7.158 -1.1111  0.3527  1.6287
  118OSM   C11S12390   4.921   0.850   7.330  0.2334  0.3169 -0.9053
  118OSM   H11S12391   4.996   0.770   7.344  0.8094  1.1712  1.2201
  118OSM   H11T12392   4.824   0.804   7.359 -0.3597  0.4322 -2.5693
  118OSM   C12S12393   4.968   0.948   7.435  0.1690 -0.3992  0.9211
  118OSM   H12S12394   4.895   1.032   7.431  1.9838  1.3103 -3.6517
  118OSM   H12T12395   5.066   0.991   7.407 -0.9039 -0.3205 -3.4032
  118OSM   C13S12396   4.994   0.883   7.577  0.0305 -0.3983  0.1614
  118OSM   H13S12397   5.104   0.864   7.573 -0.0949 -0.8994 -1.9389
  118OSM   H13T12398   4.929   0.793   7.585 -1.4145  0.7050  1.3392
  118OSM   C14S12399   4.953   0.961   7.697 -0.2962  0.1491  0.4099
  118OSM   H14S12400   4.848   0.993   7.682 -0.5899  0.4545  2.6626
  118OSM   H14T12401   5.014   1.053   7.700  1.9847 -1.2809  1.3320
  118OSM   C15S12402   4.985   0.890   7.827 -0.4367 -0.2921 -0.0694
  118OSM   H15S12403   5.095   0.875   7.830 -0.6638 -2.5132 -1.2246
  118OSM   H15T12404   4.928   0.797   7.812 -1.7645  0.4703  0.0901
  118OSM   C16S12405   4.921   0.963   7.949  0.0307  0.0191 -0.6253
  118OSM   H16S12406   4.916   0.892   8.034 -0.2715  2.2951  1.3598
  118OSM   H16T12407   4.815   0.990   7.928 -0.4558 -1.5690 -0.3760
  118OSM   C17S12408   4.995   1.081   7.998 -0.0649  0.4279 -0.4850
  118OSM   H17S12409   4.928   1.168   8.019  0.1035  0.3967  0.2033
  118OSM   H17T12410   5.055   1.119   7.912 -1.1731 -0.9578 -1.9299
  118OSM   C18S12411   5.080   1.054   8.125 -0.2185 -0.2352  0.1219
  118OSM   H18S12412   5.156   0.975   8.107  0.4734  0.5423 -0.4158
  118OSM   H18T12413   5.010   1.020   8.205  0.4607  0.5438  1.0673
  118OSM   H18U12414   5.131   1.143   8.167 -1.0057 -0.2040  1.0702
  118OSM    C1F12415   5.554   1.010   6.816 -0.3585 -1.1707  0.5841
  118OSM     OF12416   5.537   1.131   6.825 -0.3841 -0.2636 -0.4640
  118OSM    C2F12417   5.667   0.933   6.885 -0.2801 -0.3380  0.2175
  118OSM    H2F12418   5.761   0.947   6.829  0.8854 -2.6087  1.4923
  118OSM    H2G12419   5.649   0.824   6.889 -0.8241 -0.2207  2.3703
  118OSM    C3F12420   5.699   0.980   7.027  0.6676  0.7186 -1.0148
  118OSM    H3F12421   5.606   0.963   7.086  1.0716 -1.8109 -1.0026
  118OSM    H3G12422   5.714   1.090   7.030  0.1227  0.8530 -2.5007
  118OSM    C4F12423   5.829   0.923   7.092 -0.2447 -0.5251 -0.7702
  118OSM    H4F12424   5.841   0.961   7.196  3.5360  0.0446 -1.2767
  118OSM    H4G12425   5.914   0.963   7.034 -0.1721  0.1443 -0.2094
  118OSM    C5F12426   5.851   0.769   7.085  0.8682  0.6378 -0.5137
  118OSM    H5F12427   5.946   0.735   7.130  0.5467 -0.2651 -0.4974
  118OSM    H5G12428   5.848   0.739   6.978 -1.0854  1.0204 -0.6024
  118OSM    C6F12429   5.748   0.690   7.158  0.3414  0.4263 -0.1485
  118OSM    H6F12430   5.747   0.584   7.126 -1.5541 -0.7021  3.1871
  118OSM    H6G12431   5.648   0.732   7.135 -0.0349  0.2167  1.0438
  118OSM    C7F12432   5.760   0.695   7.309  0.0470 -0.2318  0.0989
  118OSM    H7F12433   5.697   0.779   7.344  0.6119  1.2583 -2.2184
  118OSM    H7G12434   5.862   0.718   7.347 -0.7507 -0.1210  2.3515
  118OSM    C8F12435   5.705   0.570   7.370  0.0604 -0.1364  1.4372
  118OSM    H8F12436   5.756   0.481   7.327  1.5678  1.1278  0.4870
  118OSM    H8G12437   5.600   0.555   7.337  0.3609 -0.3618  0.5514
  118OSM    C9F12438   5.729   0.571   7.511  0.4678  0.7964 -0.0233
  118OSM    H9F12439   5.834   0.551   7.537  0.6781  0.1901 -1.2645
  118OSM   C10F12440   5.639   0.609   7.605 -0.4853 -0.7511 -0.6578
  118OSM   H10F12441   5.671   0.606   7.711 -2.4008 -0.0842 -0.0163
  118OSM   C11F12442   5.495   0.653   7.588 -0.2195  0.6188 -0.0185
  118OSM   H11F12443   5.451   0.628   7.489  0.0186 -2.7549  0.6217
  118OSM   H11G12444   5.468   0.757   7.617 -0.1892  0.6551 -0.1183
  118OSM   C12F12445   5.408   0.565   7.687  0.6814 -0.6956 -0.2896
  118OSM   H12F12446   5.299   0.586   7.683  0.4313 -2.1176 -2.0758
  118OSM   H12G12447   5.443   0.576   7.792 -1.5342 -1.5148  0.6002
  118OSM   C13F12448   5.414   0.411   7.653 -0.0850 -0.7029  0.0350
  118OSM   H13F12449   5.480   0.405   7.564  0.4176  1.6906  0.1991
  118OSM   H13G12450   5.316   0.369   7.622 -0.6064  1.1434 -0.9599
  118OSM   C14F12451   5.470   0.325   7.766  0.0190  0.2168 -0.2502
  118OSM   H14F12452   5.571   0.359   7.794  0.3755 -0.5133 -0.6095
  118OSM   H14G12453   5.490   0.220   7.736 -0.9211 -0.8053  2.4245
  118OSM   C15F12454   5.382   0.340   7.899  0.8277 -0.2189 -0.3130
  118OSM   H15F12455   5.281   0.296   7.890  1.1168 -1.0582  0.3597
  118OSM   H15G12456   5.362   0.448   7.917  1.5630 -0.0048 -0.7323
  118OSM   C16F12457   5.452   0.277   8.014  0.4842 -0.4628 -0.5393
  118OSM   H16F12458   5.409   0.323   8.106  0.3073  0.2247 -0.9565
  118OSM   H16G12459   5.559   0.304   8.002  0.6884  0.6959  2.8754
  118OSM   C17F12460   5.441   0.128   8.011 -0.6666  0.5683 -0.0119
  118OSM   H17F12461   5.517   0.087   7.941 -2.2498  0.4638 -1.7162
  118OSM   H17G12462   5.336   0.107   7.982  0.2026 -0.3933 -2.8186
  118OSM   C18F12463   5.467   0.061   8.153 -0.3212  0.5436 -0.0066
  118OSM   H18F12464   5.570   0.078   8.190 -0.6022 -1.1342  1.7182
  118OSM   H18G12465   5.450  -0.048   8.148 -0.4720  0.5709 -0.1244
  118OSM   H18H12466   5.394   0.103   8.226 -1.0964 -1.2494  0.2938
  119OSM      N12467   0.450   1.411   5.506 -0.2156  0.4710  0.5267
  119OSM    C1512468   0.528   1.353   5.387  0.4109  0.1307 -0.1592
  119OSM   H15A12469   0.619   1.409   5.375 -0.9874  2.8910  1.3616
  119OSM   H15B12470   0.470   1.360   5.296 -1.8373  1.3669  1.2769
  119OSM   H15C12471   0.552   1.250   5.408 -2.6679 -0.6417  0.0281
  119OSM    C1412472   0.431   1.558   5.478  0.5111 -0.8899 -0.8497
  119OSM   H14A12473   0.344   1.594   5.530  2.0587 -0.3413  1.5365
  119OSM   H14B12474   0.404   1.575   5.375 -0.6121 -1.1083 -0.5992
  119OSM   H14C12475   0.516   1.616   5.510 -1.4348  1.2066  0.7951
  119OSM    C1312476   0.304   1.347   5.513  0.2790 -0.0131  0.1939
  119OSM   H13A12477   0.260   1.362   5.610  0.2176 -0.0165  0.1664
  119OSM   H13B12478   0.310   1.241   5.491  1.7337  0.2066 -0.5875
  119OSM   H13C12479   0.235   1.391   5.442  0.8564  1.3312  0.4298
  119OSM    C1212480   0.528   1.384   5.638 -0.5405  0.7050  0.2522
  119OSM   H12A12481   0.627   1.424   5.626  0.5009 -1.8957 -0.4845
  119OSM   H12B12482   0.537   1.276   5.649 -1.0617  0.5401 -0.8087
  119OSM    C1112483   0.469   1.431   5.768 -0.4723 -0.3541 -0.5894
  119OSM   H11A12484   0.421   1.530   5.761 -0.0941 -0.0918  0.2936
  119OSM   H11B12485   0.546   1.429   5.848 -1.4430  3.8453  0.6876
  119OSM      P12486   0.389   1.203   5.878 -0.2216  0.1974 -0.2155
  119OSM    O1312487   0.290   1.109   5.827  0.3237  0.3120  0.3053
  119OSM    O1412488   0.525   1.165   5.855 -0.4950  0.1978 -0.0797
  119OSM    O1112489   0.349   1.239   6.031  0.0968  0.3043  0.6106
  119OSM    O1212490   0.358   1.342   5.801  0.4929 -0.2782 -0.3555
  119OSM    C1S12491   0.453   1.269   6.131 -0.3896  0.1864 -0.0737
  119OSM    H1S12492   0.499   1.369   6.114  0.9482 -0.2252  0.9459
  119OSM    H1T12493   0.535   1.196   6.116 -0.5296 -0.5240  2.2507
  119OSM     NF12494   0.497   1.338   6.366  0.3127 -0.8281  0.0183
  119OSM    HNF12495   0.558   1.282   6.422 -0.3040 -0.8263  0.7096
  119OSM    C2S12496   0.403   1.272   6.278 -0.0590  0.6582 -0.3444
  119OSM    H2S12497   0.306   1.325   6.281  0.3711  1.4202  1.0311
  119OSM    C3S12498   0.374   1.125   6.319 -0.0126  0.2357  0.3162
  119OSM    H3S12499   0.472   1.073   6.305 -0.0787  0.5382 -1.6335
  119OSM     O312500   0.285   1.060   6.227  0.4708  0.4917 -0.6485
  119OSM    HO312501   0.282   1.123   6.155  2.2549  1.2264 -0.1348
  119OSM    C4S12502   0.333   1.118   6.470  0.1554 -0.0952 -0.0532
  119OSM    H4S12503   0.422   1.104   6.534  0.1484 -0.0754 -0.0395
  119OSM    C5S12504   0.213   1.109   6.525 -0.6704 -0.7438 -0.1942
  119OSM    H5S12505   0.123   1.120   6.463 -0.3479 -5.2821 -1.8498
  119OSM    C6S12506   0.190   1.085   6.672 -0.1189  0.1327  0.0951
  119OSM    H6S12507   0.165   0.978   6.687  2.4026 -0.5613 -0.0508
  119OSM    H6T12508   0.101   1.142   6.704 -2.8766 -3.4995 -0.4965
  119OSM    C7S12509   0.306   1.127   6.760  0.5787 -0.3696 -0.1876
  119OSM    H7S12510   0.331   1.233   6.739 -0.8789  0.1706  0.6910
  119OSM    H7T12511   0.392   1.064   6.729  1.0903  1.1000 -1.9415
  119OSM    C8S12512   0.275   1.101   6.909  0.4377 -0.3560 -0.1764
  119OSM    H8S12513   0.262   0.994   6.938  1.5171 -0.7871 -1.2198
  119OSM    H8T12514   0.181   1.155   6.930 -0.1407 -2.2210  2.6908
  119OSM    C9S12515   0.373   1.166   7.001  0.2550 -0.2448 -0.3837
  119OSM    H9S12516   0.377   1.272   6.970  1.4380 -0.3514 -0.6634
  119OSM    H9T12517   0.474   1.121   6.986  0.0789 -2.1792  3.1508
  119OSM   C10S12518   0.327   1.157   7.142  0.0311 -0.2489  0.8439
  119OSM   H10S12519   0.318   1.052   7.178  0.1318  0.4222  2.9906
  119OSM   H10T12520   0.227   1.204   7.141  0.8392  1.8427 -3.2070
  119OSM   C11S12521   0.426   1.223   7.235 -0.5161 -0.4726 -0.7084
  119OSM   H11S12522   0.421   1.333   7.230  1.5719 -0.2550  0.7957
  119OSM   H11T12523   0.529   1.184   7.220  0.5433  1.3701  1.3091
  119OSM   C12S12524   0.396   1.187   7.385 -0.2235  0.2351 -0.1206
  119OSM   H12S12525   0.457   1.261   7.442  1.0394 -1.4538  0.8147
  119OSM   H12T12526   0.434   1.087   7.414 -0.3277  0.4132  0.6606
  119OSM   C13S12527   0.257   1.204   7.442  0.4092  0.3018  0.1687
  119OSM   H13S12528   0.198   1.117   7.407 -0.5253  0.6336  0.8882
  119OSM   H13T12529   0.217   1.300   7.403  1.6569  0.0272 -1.9379
  119OSM   C14S12530   0.252   1.209   7.595  0.2492  0.2510 -0.1320
  119OSM   H14S12531   0.330   1.278   7.635 -1.5352  0.4469  3.3570
  119OSM   H14T12532   0.269   1.105   7.629 -1.1593  0.0524  0.0248
  119OSM   C15S12533   0.115   1.257   7.647 -0.4495  0.3489 -0.8057
  119OSM   H15S12534   0.024   1.202   7.614 -0.7298 -0.0911  0.6323
  119OSM   H15T12535   0.103   1.361   7.610  0.4052  0.0379 -2.0184
  119OSM   C16S12536   0.106   1.236   7.796 -0.4465 -0.0064 -0.1098
  119OSM   H16S12537   0.087   1.127   7.810  2.0200 -0.3555  1.0147
  119OSM   H16T12538   0.014   1.284   7.834  0.0101  1.1461 -0.4088
  119OSM   C17S12539   0.221   1.280   7.879 -0.5342 -1.3147  0.4729
  119OSM   H17S12540   0.255   1.381   7.848  0.9495 -1.2911  1.9865
  119OSM   H17T12541   0.317   1.224   7.876  1.1897  1.2752  2.3143
  119OSM   C18S12542   0.171   1.269   8.024 -0.2332 -1.2557  0.3673
  119OSM   H18S12543   0.234   1.327   8.094  1.4358 -0.3655 -1.7363
  119OSM   H18T12544   0.150   1.164   8.050  1.0557 -1.8059 -0.6549
  119OSM   H18U12545   0.074   1.324   8.030 -0.0357 -0.9984  1.3787
  119OSM    C1F12546   0.543   1.462   6.349  0.2835  0.1329 -0.0951
  119OSM     OF12547   0.505   1.541   6.258  0.1635 -0.2206 -0.1944
  119OSM    C2F12548   0.647   1.501   6.454 -0.6008  0.1270  0.2841
  119OSM    H2F12549   0.689   1.410   6.501  2.0581  1.8701  1.5877
  119OSM    H2G12550   0.599   1.553   6.540 -0.0090  0.7485  0.2506
  119OSM    C3F12551   0.746   1.604   6.392 -0.0967  0.1735  0.0310
  119OSM    H3F12552   0.698   1.688   6.338  2.6942  0.9455 -1.4510
  119OSM    H3G12553   0.809   1.538   6.329 -0.1795  0.0548  0.0733
  119OSM    C4F12554   0.837   1.654   6.511 -0.2889  0.5888  0.0190
  119OSM    H4F12555   0.914   1.711   6.455  1.2881 -1.3889  0.0441
  119OSM    H4G12556   0.881   1.558   6.548  0.6083  0.1790 -1.9594
  119OSM    C5F12557   0.770   1.749   6.616 -0.6301  1.0902  0.2538
  119OSM    H5F12558   0.683   1.699   6.664 -0.0229 -1.0857 -0.7674
  119OSM    H5G12559   0.745   1.848   6.571  1.6892  2.0657  0.9360
  119OSM    C6F12560   0.867   1.775   6.734  0.2871 -0.8951  0.4686
  119OSM    H6F12561   0.857   1.691   6.807  0.0765 -0.7133  0.6505
  119OSM    H6G12562   0.838   1.866   6.790 -2.8837  0.0421 -2.3831
  119OSM    C7F12563   1.016   1.774   6.696  0.2259 -0.3583 -0.3620
  119OSM    H7F12564   1.027   1.852   6.618  0.6813  2.5140  2.3589
  119OSM    H7G12565   1.047   1.677   6.651  2.0570  0.3354 -0.6970
  119OSM    C8F12566   1.112   1.806   6.805 -0.3576 -0.2062  0.3006
  119OSM    H8F12567   1.095   1.910   6.839  4.6072  1.2153 -0.6777
  119OSM    H8G12568   1.213   1.811   6.758  0.2680 -0.7753  1.5243
  119OSM    C9F12569   1.124   1.706   6.923  0.3317  0.0772  0.0675
  119OSM    H9F12570   1.186   1.615   6.916  0.8673  0.4229  0.2238
  119OSM   C10F12571   1.071   1.731   7.038  0.1360  0.2172 -0.6888
  119OSM   H10F12572   1.093   1.662   7.121  0.5778  0.7660 -0.3413
  119OSM   C11F12573   0.999   1.857   7.077 -0.4108  0.6295  0.1787
  119OSM   H11F12574   0.891   1.842   7.100  0.2437 -0.0884  3.2353
  119OSM   H11G12575   1.007   1.943   7.006 -0.7478 -0.3287 -1.0496
  119OSM   C12F12576   1.054   1.910   7.204 -0.1021 -0.7689  0.0490
  119OSM   H12F12577   1.027   2.013   7.236  1.0215 -0.4636  0.0501
  119OSM   H12G12578   1.164   1.897   7.199  0.0652  0.0159  1.2969
  119OSM   C13F12579   1.009   1.831   7.328  0.4705 -0.0603 -1.2692
  119OSM   H13F12580   1.056   1.730   7.320  0.5734 -0.0522 -0.7619
  119OSM   H13G12581   0.899   1.813   7.319  0.3630 -0.5802  0.7010
  119OSM   C14F12582   1.054   1.896   7.465 -0.0203  0.0333 -0.5363
  119OSM   H14F12583   1.012   1.998   7.452 -0.5542 -0.4194 -2.6676
  119OSM   H14G12584   1.164   1.913   7.456 -0.0266  1.1185  1.0384
  119OSM   C15F12585   1.021   1.821   7.590 -0.5534 -0.0874 -0.1791
  119OSM   H15F12586   1.056   1.716   7.588 -2.5762 -0.8016 -1.5213
  119OSM   H15G12587   0.912   1.808   7.576 -0.5946 -0.2728  0.3039
  119OSM   C16F12588   1.037   1.893   7.720 -0.9969 -0.6059  0.6287
  119OSM   H16F12589   0.986   1.991   7.707 -3.1629 -1.5884  1.3297
  119OSM   H16G12590   1.140   1.935   7.725 -1.7079  1.5620 -1.2439
  119OSM   C17F12591   0.982   1.818   7.839 -0.2345 -0.9260  0.0396
  119OSM   H17F12592   0.967   1.710   7.818  1.3681 -1.0136 -0.8063
  119OSM   H17G12593   0.888   1.877   7.845 -1.5722 -2.8357 -1.2242
  119OSM   C18F12594   1.073   1.837   7.959 -0.1403  0.9309  0.3115
  119OSM   H18F12595   1.021   1.790   8.045 -1.8470  0.4684 -0.8958
  119OSM   H18G12596   1.103   1.942   7.979 -0.3922  0.8868  0.9493
  119OSM   H18H12597   1.167   1.780   7.942 -0.2181  0.9038 -0.0376
  120OSM      N12598   3.489   6.059   6.347  0.5615  0.5243  0.5169
  120OSM    C1512599   3.554   5.971   6.450 -0.7039 -0.3620  0.3274
  120OSM   H15A12600   3.647   6.023   6.468 -0.5959 -0.1854 -0.6809
  120OSM   H15B12601   3.564   5.870   6.414  0.2095  0.1656 -0.9794
  120OSM   H15C12602   3.499   5.961   6.542  1.4008  1.3644  1.8855
  120OSM    C1412603   3.505   6.207   6.382  0.0436 -0.1557  0.3924
  120OSM   H14A12604   3.476   6.229   6.484  1.2157  0.6697  0.5650
  120OSM   H14B12605   3.443   6.257   6.311 -0.9060 -1.7222  0.0656
  120OSM   H14C12606   3.607   6.244   6.376 -0.5145  1.4748  0.6021
  120OSM    C1312607   3.562   6.022   6.222 -0.5596  1.2540  0.6889
  120OSM   H13A12608   3.497   6.045   6.139 -0.8425  1.0867  0.8609
  120OSM   H13B12609   3.575   5.916   6.207  2.6487  1.7847 -1.3284
  120OSM   H13C12610   3.657   6.072   6.208 -0.2383  0.7271  0.9192
  120OSM    C1212611   3.342   6.028   6.336  0.6112 -0.7270 -0.0424
  120OSM   H12A12612   3.298   6.096   6.265  2.1889  1.8397  1.2932
  120OSM   H12B12613   3.299   6.063   6.428  0.6149  1.5593 -0.8513
  120OSM    C1112614   3.306   5.887   6.293 -0.3988  0.2280 -0.6046
  120OSM   H11A12615   3.365   5.851   6.207  2.4334 -0.1853  1.3794
  120OSM   H11B12616   3.201   5.894   6.256 -1.0786 -1.6005  0.8258
  120OSM      P12617   3.229   5.798   6.523 -0.1597  0.1120  0.6481
  120OSM    O1312618   3.280   5.912   6.600  0.3419 -0.3266  0.6127
  120OSM    O1412619   3.086   5.791   6.487 -0.4667 -0.2922  0.2349
  120OSM    O1112620   3.254   5.673   6.611 -0.4523  0.6457 -0.2386
  120OSM    O1212621   3.328   5.787   6.397  0.2952  0.3282  0.1581
  120OSM    C1S12622   3.386   5.613   6.631  0.3958  0.3556  0.4914
  120OSM    H1S12623   3.466   5.668   6.577  0.3956 -1.1530 -1.0891
  120OSM    H1T12624   3.384   5.509   6.593  2.7660  0.2600  0.4662
  120OSM     NF12625   3.568   5.559   6.795 -0.5652  1.1290 -0.2059
  120OSM    HNF12626   3.582   5.461   6.811  1.1648  1.1405 -1.3226
  120OSM    C2S12627   3.425   5.595   6.784 -0.7598  0.1722  0.1897
  120OSM    H2S12628   3.412   5.695   6.831  1.3014  2.2734 -3.3118
  120OSM    C3S12629   3.326   5.500   6.857 -0.1197  0.8541 -0.5930
  120OSM    H3S12630   3.350   5.392   6.845 -1.8565  0.3611  0.1059
  120OSM     O312631   3.190   5.507   6.808  0.3198 -0.2360 -0.1027
  120OSM    HO312632   3.189   5.574   6.739 -1.4556  0.2868  0.3876
  120OSM    C4S12633   3.338   5.516   7.009  0.5313  0.5427 -0.9231
  120OSM    H4S12634   3.415   5.446   7.043  0.8504  0.6154 -1.4904
  120OSM    C5S12635   3.278   5.607   7.093  0.1402  0.0014  1.1533
  120OSM    H5S12636   3.197   5.670   7.055  1.5476  0.1226 -2.0309
  120OSM    C6S12637   3.304   5.612   7.242  0.5472 -0.2513  0.3818
  120OSM    H6S12638   3.226   5.553   7.294 -0.1782  0.4776  0.1383
  120OSM    H6T12639   3.299   5.717   7.278  2.3889 -0.3643  1.1023
  120OSM    C7S12640   3.439   5.553   7.283 -0.6316  0.4213  0.1694
  120OSM    H7S12641   3.523   5.595   7.224  0.8072 -1.4224  0.7964
  120OSM    H7T12642   3.431   5.447   7.251  0.0987  0.4896 -0.2650
  120OSM    C8S12643   3.464   5.574   7.432  0.3967 -0.1865 -0.5904
  120OSM    H8S12644   3.375   5.544   7.491 -0.0828 -2.5345 -2.3574
  120OSM    H8T12645   3.481   5.680   7.458  0.4243 -0.1796 -0.6356
  120OSM    C9S12646   3.578   5.490   7.492  0.3518 -0.8200  0.1785
  120OSM    H9S12647   3.668   5.508   7.429  0.0134  1.7292  0.3209
  120OSM    H9T12648   3.552   5.382   7.491  1.2224 -1.0945  1.9946
  120OSM   C10S12649   3.609   5.547   7.626 -0.2128  0.3668  0.0671
  120OSM   H10S12650   3.523   5.526   7.693 -1.4659  0.3029 -1.5093
  120OSM   H10T12651   3.628   5.657   7.622  0.7004  0.1771 -1.5520
  120OSM   C11S12652   3.732   5.478   7.698  1.0105  0.9217  0.2156
  120OSM   H11S12653   3.814   5.511   7.631  0.4051  2.5099  0.2144
  120OSM   H11T12654   3.719   5.368   7.688  2.3340  0.5406  2.1246
  120OSM   C12S12655   3.756   5.533   7.837 -0.1360  0.5137  0.3595
  120OSM   H12S12656   3.663   5.507   7.893 -1.3749  0.1351 -1.7866
  120OSM   H12T12657   3.766   5.643   7.823  3.7112 -0.0125 -2.8162
  120OSM   C13S12658   3.878   5.480   7.914  0.3161  0.5711  0.4860
  120OSM   H13S12659   3.970   5.480   7.853  0.2811 -0.8086  0.4000
  120OSM   H13T12660   3.863   5.371   7.932 -1.6964  0.4933 -1.2720
  120OSM   C14S12661   3.900   5.548   8.051  0.6063 -0.4864  0.6816
  120OSM   H14S12662   3.810   5.538   8.115 -0.0732 -2.0267 -0.4589
  120OSM   H14T12663   3.916   5.657   8.032 -0.5966 -0.5172 -0.6166
  120OSM   C15S12664   4.017   5.499   8.132  0.1032  0.7752  0.9540
  120OSM   H15S12665   4.110   5.531   8.079 -0.2835  1.4727  0.6831
  120OSM   H15T12666   4.012   5.388   8.132 -0.4120  0.7764 -0.5642
  120OSM   C16S12667   4.008   5.548   8.276  0.1675  0.0184 -0.0020
  120OSM   H16S12668   3.907   5.510   8.304 -0.7671 -0.6101 -3.6431
  120OSM   H16T12669   4.007   5.659   8.269 -3.3455  0.1597  0.6636
  120OSM   C17S12670   4.125   5.507   8.358  0.7638 -0.1057  0.2969
  120OSM   H17S12671   4.131   5.560   8.455 -0.8804  1.1438 -0.2519
  120OSM   H17T12672   4.209   5.550   8.299  0.2313 -0.3561 -0.6717
  120OSM   C18S12673   4.133   5.359   8.384 -0.2408 -0.5452  0.1571
  120OSM   H18S12674   4.220   5.353   8.452 -0.0619  2.2875  0.3198
  120OSM   H18T12675   4.152   5.301   8.292  0.9606 -0.2502  0.2025
  120OSM   H18U12676   4.046   5.312   8.434  1.2662 -2.7871  0.7959
  120OSM    C1F12677   3.673   5.628   6.756  0.8171 -0.0939 -0.2866
  120OSM     OF12678   3.660   5.738   6.704  0.7092 -0.2148 -0.5111
  120OSM    C2F12679   3.812   5.555   6.752 -0.1002  0.1691 -0.1812
  120OSM    H2F12680   3.857   5.579   6.653  0.4058  0.1313  0.0373
  120OSM    H2G12681   3.800   5.445   6.764  1.2583  0.1290  1.0726
  120OSM    C3F12682   3.905   5.595   6.864 -0.3252  0.6169  0.5585
  120OSM    H3F12683   3.877   5.560   6.966 -2.3631 -0.1675 -0.2218
  120OSM    H3G12684   3.917   5.705   6.867 -0.5848  0.8815 -3.4858
  120OSM    C4F12685   4.050   5.536   6.847  0.1783  1.2157  0.4711
  120OSM    H4F12686   4.091   5.590   6.760 -0.4877 -1.2188 -1.4853
  120OSM    H4G12687   4.044   5.436   6.799  0.6648  2.2844 -1.9366
  120OSM    C5F12688   4.133   5.543   6.969  0.4408  0.0393 -0.5776
  120OSM    H5F12689   4.226   5.482   6.968  0.7153  0.4309 -2.5757
  120OSM    H5G12690   4.072   5.484   7.041  0.6097  0.2444 -0.2607
  120OSM    C6F12691   4.151   5.682   7.031 -0.4348 -0.4194 -0.0994
  120OSM    H6F12692   4.047   5.719   7.048 -1.0836 -1.9803 -0.4788
  120OSM    H6G12693   4.208   5.756   6.971 -1.4141  1.1211  0.7976
  120OSM    C7F12694   4.212   5.677   7.180  0.8290  0.2905 -0.4162
  120OSM    H7F12695   4.304   5.616   7.174  1.5625  1.2418  0.8043
  120OSM    H7G12696   4.139   5.619   7.241  0.5097  0.7108 -0.3961
  120OSM    C8F12697   4.241   5.816   7.248  0.0316 -0.1911 -0.0680
  120OSM    H8F12698   4.237   5.799   7.358 -1.0590  0.6500  0.0315
  120OSM    H8G12699   4.161   5.882   7.210 -0.9291  0.6503  3.1072
  120OSM    C9F12700   4.377   5.872   7.197 -0.1413  0.2496  0.3678
  120OSM    H9F12701   4.397   5.831   7.097  0.8301 -0.0517  0.6726
  120OSM   C10F12702   4.472   5.941   7.268  0.3183  0.4866  0.8592
  120OSM   H10F12703   4.560   5.981   7.216  0.4552 -1.2515 -0.3254
  120OSM   C11F12704   4.456   5.990   7.412  0.3105 -0.1720 -0.1746
  120OSM   H11F12705   4.365   5.968   7.472  0.9979  1.5448  1.6176
  120OSM   H11G12706   4.466   6.101   7.416 -1.0242 -0.0042 -0.9117
  120OSM   C12F12707   4.573   5.921   7.491 -0.0642 -0.6232 -0.5821
  120OSM   H12F12708   4.657   5.949   7.424 -0.3913 -0.0067 -0.7509
  120OSM   H12G12709   4.562   5.811   7.490 -0.9957 -0.5765 -3.0147
  120OSM   C13F12710   4.586   5.981   7.633  0.4922  0.2556  0.8673
  120OSM   H13F12711   4.502   5.936   7.691 -1.0763  1.5556 -0.2926
  120OSM   H13G12712   4.556   6.088   7.634 -1.3544 -0.1828 -0.8230
  120OSM   C14F12713   4.725   5.966   7.698  0.5449  0.5113 -0.2898
  120OSM   H14F12714   4.802   6.008   7.630 -0.0084  0.1445 -1.1608
  120OSM   H14G12715   4.749   5.858   7.710 -0.9723  0.4610  3.6304
  120OSM   C15F12716   4.738   6.043   7.826  0.3638  0.0670 -0.2537
  120OSM   H15F12717   4.644   6.017   7.880  0.1373  0.9416 -0.2065
  120OSM   H15G12718   4.731   6.152   7.805  1.6579  0.4313  1.0249
  120OSM   C16F12719   4.873   6.018   7.898  0.4842  0.0711  0.2387
  120OSM   H16F12720   4.951   6.064   7.835 -0.5765  0.3663 -0.8988
  120OSM   H16G12721   4.882   5.908   7.907  0.3498 -0.0608 -1.0914
  120OSM   C17F12722   4.892   6.068   8.040 -0.0632 -0.5596  0.1002
  120OSM   H17F12723   4.819   6.024   8.111 -0.4360 -1.3809 -0.7660
  120OSM   H17G12724   4.868   6.176   8.038 -1.8821 -0.9377  0.0469
  120OSM   C18F12725   5.034   6.042   8.097  0.4751  0.2100  0.3665
  120OSM   H18F12726   5.037   6.087   8.198 -0.1097 -1.4576  1.1610
  120OSM   H18G12727   5.109   6.083   8.026 -2.2857  2.2659 -1.5585
  120OSM   H18H12728   5.052   5.934   8.119 -0.5130  0.2058  1.2054
  121OSM      N12729   5.134   0.710   6.016  0.5878  0.3994  0.1036
  121OSM    C1512730   5.088   0.571   5.994 -0.0722  0.9769 -0.0218
  121OSM   H15A12731   4.988   0.553   6.030  0.1074 -1.4908 -0.6349
  121OSM   H15B12732   5.148   0.499   6.046  0.3831  0.5487 -1.1225
  121OSM   H15C12733   5.094   0.539   5.891 -2.5693 -0.8490  0.3167
  121OSM    C1412734   5.279   0.720   5.995 -0.2379  1.1920  0.1985
  121OSM   H14A12735   5.325   0.811   6.029  1.0651  0.0220  1.7110
  121OSM   H14B12736   5.306   0.699   5.892 -1.4130 -1.4276  0.3318
  121OSM   H14C12737   5.330   0.646   6.054  0.3848  0.6266 -0.9950
  121OSM    C1312738   5.071   0.795   5.912 -0.7816  0.3484 -0.2384
  121OSM   H13A12739   4.966   0.771   5.905 -0.5672 -0.4616 -0.9070
  121OSM   H13B12740   5.137   0.784   5.827 -0.4763 -0.9023  0.1386
  121OSM   H13C12741   5.090   0.894   5.949  1.1662 -0.2243  0.4261
  121OSM    C1212742   5.087   0.768   6.153  0.3160  0.1145 -0.0125
  121OSM   H12A12743   4.980   0.781   6.155  0.3713  1.4578 -2.0098
  121OSM   H12B12744   5.137   0.862   6.173  2.7241 -1.0703 -0.1799
  121OSM    C1112745   5.145   0.699   6.279 -0.1405 -0.0241  0.0712
  121OSM   H11A12746   5.104   0.757   6.365  0.5124  0.5661 -0.0062
  121OSM   H11B12747   5.254   0.713   6.295  0.0162 -1.0896 -0.0279
  121OSM      P12748   4.965   0.515   6.335 -0.1923  0.1284 -0.4115
  121OSM    O1312749   4.863   0.605   6.277  0.4102  0.6497 -0.0806
  121OSM    O1412750   4.950   0.368   6.308 -0.0615  0.6877 -0.0056
  121OSM    O1112751   4.970   0.534   6.491  0.2269  0.8898  0.3509
  121OSM    O1212752   5.110   0.560   6.280 -0.5329  0.3854 -0.1591
  121OSM    C1S12753   5.075   0.467   6.557  0.6560  0.7248 -0.9208
  121OSM    H1S12754   5.171   0.522   6.556 -0.4598  2.7974  0.2508
  121OSM    H1T12755   5.089   0.362   6.521  0.1690  0.3327 -0.0101
  121OSM     NF12756   5.173   0.363   6.747  0.2769  0.4126 -1.0428
  121OSM    HNF12757   5.160   0.264   6.753  1.2346  0.3676  1.6674
  121OSM    C2S12758   5.052   0.438   6.713  0.5040  1.0754  0.3331
  121OSM    H2S12759   5.049   0.533   6.769 -1.1234  0.2619  1.7320
  121OSM    C3S12760   4.914   0.381   6.751  0.0319  0.4374  0.5104
  121OSM    H3S12761   4.904   0.282   6.702 -1.4601  0.4958  0.6401
  121OSM     O312762   4.795   0.455   6.724 -0.9344  0.2435  0.7901
  121OSM    HO312763   4.839   0.531   6.685  0.2749 -0.9989 -0.3738
  121OSM    C4S12764   4.907   0.354   6.898 -0.0624  0.2920 -0.0973
  121OSM    H4S12765   4.972   0.413   6.963 -2.3219  1.7127  1.0167
  121OSM    C5S12766   4.838   0.254   6.959 -0.7195 -0.4003  0.9061
  121OSM    H5S12767   4.782   0.186   6.894 -0.3317 -0.6161  0.7901
  121OSM    C6S12768   4.831   0.225   7.099  0.0043 -0.0925 -0.0958
  121OSM    H6S12769   4.829   0.116   7.120  0.1380 -0.6060 -2.4191
  121OSM    H6T12770   4.729   0.252   7.135 -0.5733 -0.8403 -1.1059
  121OSM    C7S12771   4.936   0.303   7.187  0.0914 -0.1546 -0.3609
  121OSM    H7S12772   4.924   0.413   7.182  1.9319  0.2323  2.0773
  121OSM    H7T12773   5.043   0.278   7.170  0.1737  0.7674 -1.2579
  121OSM    C8S12774   4.904   0.280   7.347 -0.8609  0.1397  0.3806
  121OSM    H8S12775   4.930   0.175   7.371 -1.6510 -0.2044 -0.2017
  121OSM    H8T12776   4.795   0.295   7.364 -1.3100 -1.6652 -0.6703
  121OSM    C9S12777   4.988   0.370   7.437 -0.1961  0.2427  0.2414
  121OSM    H9S12778   4.977   0.474   7.399 -0.4004 -0.6005 -2.1792
  121OSM    H9T12779   5.093   0.337   7.429 -0.5775 -0.7237 -1.0854
  121OSM   C10S12780   4.946   0.339   7.583 -0.2071 -0.1540 -0.4263
  121OSM   H10S12781   4.989   0.240   7.606 -1.4464 -0.5578  0.2399
  121OSM   H10T12782   4.835   0.336   7.587 -0.1699 -0.4558  2.1704
  121OSM   C11S12783   4.985   0.451   7.681 -0.8151 -0.3954 -0.3012
  121OSM   H11S12784   4.920   0.540   7.664 -1.4805 -0.1396  2.9310
  121OSM   H11T12785   5.088   0.484   7.653 -0.7921 -1.0774 -1.0425
  121OSM   C12S12786   4.979   0.413   7.831  0.3245 -0.3256  0.0866
  121OSM   H12S12787   5.030   0.315   7.840 -0.1829 -0.7406 -1.2431
  121OSM   H12T12788   4.873   0.397   7.859  0.0844  1.7995  0.6151
  121OSM   C13S12789   5.049   0.518   7.923  0.2155  0.1980 -0.1511
  121OSM   H13S12790   4.986   0.608   7.909 -1.4562 -0.9757 -0.5419
  121OSM   H13T12791   5.146   0.544   7.876  0.6203 -2.3389 -0.8903
  121OSM   C14S12792   5.060   0.484   8.071  0.3911  0.0718 -0.5190
  121OSM   H14S12793   5.144   0.421   8.109 -0.9898 -0.3614  1.9974
  121OSM   H14T12794   4.967   0.428   8.094  0.3448  0.4826  0.3535
  121OSM   C15S12795   5.062   0.620   8.147 -0.8118 -0.1842  0.4193
  121OSM   H15S12796   4.984   0.689   8.107  0.6349  0.6428 -1.0851
  121OSM   H15T12797   5.169   0.648   8.135 -0.3451 -1.7155  0.7725
  121OSM   C16S12798   5.029   0.596   8.295  0.8165  0.4085 -0.6067
  121OSM   H16S12799   5.074   0.506   8.340 -1.4401 -0.5306 -0.1083
  121OSM   H16T12800   4.921   0.570   8.309  1.2056 -0.8186  0.2706
  121OSM   C17S12801   5.045   0.723   8.383  0.6116 -0.0588  0.4345
  121OSM   H17S12802   4.976   0.696   8.466 -0.2818  0.7657 -0.0357
  121OSM   H17T12803   5.013   0.814   8.330 -0.4027  1.0154  2.7311
  121OSM   C18S12804   5.183   0.743   8.434  0.7095 -0.3362 -0.2787
  121OSM   H18S12805   5.195   0.844   8.478 -0.4566  0.4448 -1.6637
  121OSM   H18T12806   5.270   0.737   8.365  2.3733  2.3600  1.3678
  121OSM   H18U12807   5.209   0.675   8.518 -1.7603  0.6465  1.3921
  121OSM    C1F12808   5.295   0.407   6.763  0.0955 -0.4945 -0.2621
  121OSM     OF12809   5.308   0.529   6.758  0.0270  0.1941 -0.4197
  121OSM    C2F12810   5.411   0.315   6.784 -0.2224  0.0020  0.2077
  121OSM    H2F12811   5.497   0.359   6.728 -0.9361  2.3066  0.8269
  121OSM    H2G12812   5.399   0.209   6.755  2.2809 -1.1412  2.8170
  121OSM    C3F12813   5.467   0.315   6.933 -0.1832 -0.5212 -0.5148
  121OSM    H3F12814   5.566   0.268   6.918 -0.2687 -0.2200 -2.1970
  121OSM    H3G12815   5.407   0.250   7.000 -0.9831  2.4091  1.8312
  121OSM    C4F12816   5.493   0.453   6.993 -0.3566  0.1214  0.0667
  121OSM    H4F12817   5.507   0.531   6.915 -1.4819  0.5434  0.2623
  121OSM    H4G12818   5.588   0.434   7.045 -1.6050 -2.2844  1.6370
  121OSM    C5F12819   5.379   0.505   7.087 -0.0956  0.3502  0.1352
  121OSM    H5F12820   5.371   0.441   7.177  1.8794 -1.1814 -0.7125
  121OSM    H5G12821   5.277   0.500   7.041  0.6213 -0.4942 -1.4637
  121OSM    C6F12822   5.387   0.654   7.121  0.2171  0.6590  1.1348
  121OSM    H6F12823   5.407   0.725   7.039 -0.2036 -1.0055 -0.4765
  121OSM    H6G12824   5.471   0.658   7.194 -0.3885 -3.9405  2.4177
  121OSM    C7F12825   5.273   0.694   7.216  0.1687 -0.8785  0.6677
  121OSM    H7F12826   5.256   0.608   7.285  1.6409 -1.6238  0.1328
  121OSM    H7G12827   5.183   0.686   7.152 -0.3520  0.2299  1.2318
  121OSM    C8F12828   5.298   0.824   7.294  0.7088 -1.1414  0.3529
  121OSM    H8F12829   5.392   0.808   7.350 -0.8844 -1.6226  3.0831
  121OSM    H8G12830   5.215   0.844   7.365 -0.6556  1.9834 -1.8387
  121OSM    C9F12831   5.304   0.940   7.191 -0.2354 -0.3684 -0.2361
  121OSM    H9F12832   5.246   0.935   7.097  0.1217  0.7525 -0.5289
  121OSM   C10F12833   5.371   1.061   7.206 -0.5065 -0.7570  0.3341
  121OSM   H10F12834   5.357   1.137   7.127 -0.2120  0.7356  1.6649
  121OSM   C11F12835   5.458   1.097   7.323 -0.4107  0.1084 -1.0636
  121OSM   H11F12836   5.490   1.203   7.313 -0.2929  0.4817  2.2540
  121OSM   H11G12837   5.550   1.036   7.314 -0.5930 -0.2633 -0.5093
  121OSM   C12F12838   5.405   1.077   7.471  0.0652  0.2051 -0.5365
  121OSM   H12F12839   5.412   0.969   7.499 -0.9364 -0.0700 -1.2959
  121OSM   H12G12840   5.299   1.108   7.465 -0.0396 -0.0414 -0.0090
  121OSM   C13F12841   5.454   1.190   7.572 -0.4196  0.3328 -0.1627
  121OSM   H13F12842   5.420   1.292   7.542 -0.7204  0.3907  0.3652
  121OSM   H13G12843   5.565   1.184   7.568 -0.4854 -1.0920 -0.4583
  121OSM   C14F12844   5.414   1.166   7.715 -0.1861 -0.1160  0.4247
  121OSM   H14F12845   5.469   1.072   7.738 -2.1032 -1.5298 -0.4924
  121OSM   H14G12846   5.307   1.140   7.703 -0.0371  0.1686 -1.9142
  121OSM   C15F12847   5.451   1.281   7.803  0.1291 -0.4160  0.6006
  121OSM   H15F12848   5.376   1.363   7.794  0.3073 -0.3724 -0.6238
  121OSM   H15G12849   5.549   1.327   7.778 -0.6331  0.7565 -0.3459
  121OSM   C16F12850   5.445   1.247   7.951  0.2507 -0.9839 -0.0719
  121OSM   H16F12851   5.532   1.180   7.972 -0.6991 -2.2904 -0.2027
  121OSM   H16G12852   5.346   1.210   7.984  0.1259  0.0085  0.7070
  121OSM   C17F12853   5.466   1.373   8.045  0.3912  0.0521 -0.1198
  121OSM   H17F12854   5.412   1.459   8.000  1.4779 -0.8164 -3.2754
  121OSM   H17G12855   5.574   1.399   8.045  0.3222  0.3736 -1.0500
  121OSM   C18F12856   5.405   1.342   8.186 -0.0746  1.1141  0.0261
  121OSM   H18F12857   5.456   1.252   8.226  1.4423  1.6371 -0.6612
  121OSM   H18G12858   5.296   1.322   8.183  0.0120  0.6605 -0.0579
  121OSM   H18H12859   5.447   1.420   8.254  3.3673  0.0442 -0.6532
  122OSM      N12860   5.002   2.131   6.162 -0.3905 -0.4096  0.1843
  122OSM    C1512861   5.036   2.067   6.294  0.5162 -0.2885 -0.0449
  122OSM   H15A12862   5.127   2.009   6.282  1.2073  0.5938  0.8079
  122OSM   H15B12863   4.962   1.997   6.329 -1.0119  0.5204 -1.4913
  122OSM   H15C12864   5.052   2.142   6.369  0.5833 -0.1669 -0.1802
  122OSM    C1412865   5.130   2.171   6.091  0.5866 -0.4259 -0.3229
  122OSM   H14A12866   5.185   2.247   6.143 -0.7569 -0.0252  0.5702
  122OSM   H14B12867   5.099   2.203   5.992  0.9699 -3.8834 -1.7345
  122OSM   H14C12868   5.195   2.087   6.071 -0.2481 -0.9440 -0.9160
  122OSM    C1312869   4.934   2.038   6.082  0.2541  0.0041  0.1300
  122OSM   H13A12870   4.995   1.957   6.046  1.4985  0.2036  1.7014
  122OSM   H13B12871   4.873   2.089   6.008 -0.0525  0.6731  0.8253
  122OSM   H13C12872   4.865   1.981   6.142 -0.6570  0.2684 -0.6423
  122OSM    C1212873   4.909   2.247   6.193  0.7124 -0.3700  0.0659
  122OSM   H12A12874   4.966   2.313   6.256 -0.1809  0.5374 -0.0453
  122OSM   H12B12875   4.825   2.208   6.249  0.2803  0.0874 -0.2534
  122OSM    C1112876   4.853   2.340   6.077 -0.0715 -0.3088 -0.1452
  122OSM   H11A12877   4.929   2.401   6.024  1.2516 -0.7758  1.1175
  122OSM   H11B12878   4.796   2.423   6.124 -4.0726 -1.0668 -3.1922
  122OSM      P12879   4.606   2.272   6.014  0.1001  0.0444 -0.3067
  122OSM    O1312880   4.547   2.409   5.995  0.1260  0.4748 -0.4101
  122OSM    O1412881   4.554   2.162   5.936 -0.4329 -0.0955  0.4988
  122OSM    O1112882   4.594   2.240   6.168  0.3107 -0.0322 -0.2275
  122OSM    O1212883   4.765   2.271   5.987 -0.3725  0.5128  0.3002
  122OSM    C1S12884   4.569   2.099   6.206  0.3923 -0.2093 -0.0355
  122OSM    H1S12885   4.649   2.038   6.159 -0.1633 -0.2016 -0.9962
  122OSM    H1T12886   4.472   2.066   6.164  0.5123 -0.4401 -0.1326
  122OSM     NF12887   4.576   1.931   6.392 -0.1164  0.2910 -0.0346
  122OSM    HNF12888   4.485   1.902   6.419 -2.2973  3.4443 -3.2590
  122OSM    C2S12889   4.579   2.073   6.366  0.1337  0.2187 -0.3457
  122OSM    H2S12890   4.678   2.112   6.397 -0.3148  0.6971  0.5176
  122OSM    C3S12891   4.471   2.156   6.454 -0.2080  0.4941 -0.0778
  122OSM    H3S12892   4.373   2.113   6.427 -1.0630  0.3810  2.8519
  122OSM     O312893   4.443   2.288   6.418  0.1888 -0.9455  0.2883
  122OSM    HO312894   4.492   2.298   6.336  0.6618 -0.4864  0.6132
  122OSM    C4S12895   4.498   2.145   6.596 -0.0910  0.1128 -0.3817
  122OSM    H4S12896   4.590   2.190   6.637 -0.9794  0.2528  1.5625
  122OSM    C5S12897   4.409   2.087   6.686 -0.7345  0.7116 -0.0837
  122OSM    H5S12898   4.317   2.041   6.647 -1.6747  1.5961  1.0210
  122OSM    C6S12899   4.436   2.091   6.834 -1.0448  0.1595 -0.3314
  122OSM    H6S12900   4.406   1.993   6.877  2.7235 -0.7154  0.7358
  122OSM    H6T12901   4.378   2.173   6.880  1.1716  2.5068 -1.4597
  122OSM    C7S12902   4.587   2.107   6.873  0.1787 -0.0136 -0.4998
  122OSM    H7S12903   4.631   2.209   6.870 -1.0307  0.4904 -2.7803
  122OSM    H7T12904   4.645   2.038   6.808 -1.1403 -3.3551  1.6128
  122OSM    C8S12905   4.613   2.047   7.009 -0.1493 -0.2343  0.8926
  122OSM    H8S12906   4.719   2.052   7.042 -0.0646 -0.7743  0.7102
  122OSM    H8T12907   4.577   1.942   7.006 -0.5897 -0.1640  2.5223
  122OSM    C9S12908   4.540   2.124   7.126 -0.7854 -0.2813 -0.0311
  122OSM    H9S12909   4.430   2.118   7.115 -0.5983 -2.9354 -1.5117
  122OSM    H9T12910   4.573   2.230   7.126 -3.5832  0.6711  0.6337
  122OSM   C10S12911   4.555   2.062   7.258  0.0340  0.2579 -0.8919
  122OSM   H10S12912   4.664   2.069   7.276 -0.3176  1.9064  0.9546
  122OSM   H10T12913   4.517   1.957   7.252  1.4678 -0.3577  0.1775
  122OSM   C11S12914   4.476   2.134   7.371 -0.9717 -0.5450  0.6953
  122OSM   H11S12915   4.369   2.111   7.354 -0.6244 -0.3455 -2.3739
  122OSM   H11T12916   4.485   2.245   7.372  0.9626 -0.6235  3.2878
  122OSM   C12S12917   4.530   2.100   7.508 -0.0709 -0.1841  0.0440
  122OSM   H12S12918   4.638   2.125   7.511 -0.2824  0.6950  1.8286
  122OSM   H12T12919   4.536   1.991   7.528 -2.3439 -0.7312 -1.7335
  122OSM   C13S12920   4.460   2.183   7.618 -0.6257 -0.1874 -0.6363
  122OSM   H13S12921   4.509   2.141   7.709 -1.2205 -2.1132 -1.1568
  122OSM   H13T12922   4.356   2.143   7.618 -0.7223 -0.0470  1.3741
  122OSM   C14S12923   4.478   2.334   7.609  0.4483 -0.5127  0.0710
  122OSM   H14S12924   4.426   2.383   7.523  1.8370  0.9261  0.0020
  122OSM   H14T12925   4.587   2.345   7.593  0.1652 -0.9805 -2.8564
  122OSM   C15S12926   4.436   2.409   7.735 -0.2966 -0.3149  0.1138
  122OSM   H15S12927   4.334   2.378   7.768 -1.5628  1.9470 -1.3739
  122OSM   H15T12928   4.439   2.518   7.715  1.5463 -0.1012  1.3253
  122OSM   C16S12929   4.533   2.375   7.846 -0.1415  0.0587 -0.4595
  122OSM   H16S12930   4.636   2.394   7.810  0.1284  1.1383  0.8050
  122OSM   H16T12931   4.518   2.270   7.878  0.4872  0.1511  0.1532
  122OSM   C17S12932   4.527   2.458   7.982 -0.0431 -0.2429  0.4271
  122OSM   H17S12933   4.547   2.563   7.953  1.5082 -0.2907  1.2048
  122OSM   H17T12934   4.611   2.420   8.045 -0.0238 -0.4852  0.2596
  122OSM   C18S12935   4.392   2.449   8.064  0.7213  0.3878  0.3515
  122OSM   H18S12936   4.392   2.507   8.158  1.5387 -0.7615  1.0828
  122OSM   H18T12937   4.350   2.348   8.079 -2.1794  1.6851  1.6919
  122OSM   H18U12938   4.325   2.492   7.986  0.7970  0.6460  0.4304
  122OSM    C1F12939   4.677   1.847   6.364  0.1622 -0.0344 -0.2754
  122OSM     OF12940   4.789   1.894   6.329 -0.6070  0.3714  0.0594
  122OSM    C2F12941   4.659   1.695   6.382 -0.0888  0.2458  0.0264
  122OSM    H2F12942   4.727   1.652   6.306  0.7976  0.2672  0.7859
  122OSM    H2G12943   4.557   1.663   6.353  0.3597 -0.8583 -0.3946
  122OSM    C3F12944   4.680   1.647   6.520  0.1879  0.3055  0.4593
  122OSM    H3F12945   4.680   1.536   6.527  2.4818  0.1538 -0.9847
  122OSM    H3G12946   4.595   1.682   6.583  0.4500  0.4257  0.7503
  122OSM    C4F12947   4.816   1.698   6.578  0.0728  0.5328  0.2596
  122OSM    H4F12948   4.810   1.802   6.615 -1.0639  1.2164 -1.7336
  122OSM    H4G12949   4.888   1.679   6.496 -0.4977 -0.0971 -0.1038
  122OSM    C5F12950   4.858   1.628   6.708 -0.9357 -0.3212  0.0448
  122OSM    H5F12951   4.965   1.648   6.728 -1.1210 -1.7147  2.8541
  122OSM    H5G12952   4.850   1.520   6.684 -0.0231 -0.4751  0.3754
  122OSM    C6F12953   4.776   1.652   6.837 -0.4446 -0.0697 -0.7264
  122OSM    H6F12954   4.667   1.630   6.827 -0.4491  0.7798 -3.3467
  122OSM    H6G12955   4.790   1.761   6.848 -0.3872 -0.0611 -0.8824
  122OSM    C7F12956   4.834   1.577   6.960  0.1485  0.0487  0.9708
  122OSM    H7F12957   4.944   1.570   6.950  0.2428  0.6688  1.4985
  122OSM    H7G12958   4.795   1.473   6.958 -0.6869  0.3481 -0.7149
  122OSM    C8F12959   4.803   1.650   7.091 -0.2778  0.0501  0.1035
  122OSM    H8F12960   4.832   1.756   7.102  0.8181 -0.4975  4.9421
  122OSM    H8G12961   4.861   1.595   7.168 -0.3339  0.2438  0.2841
  122OSM    C9F12962   4.654   1.644   7.099 -0.1443  0.2214 -0.5501
  122OSM    H9F12963   4.591   1.616   7.013 -1.8824  2.4236 -0.1038
  122OSM   C10F12964   4.587   1.663   7.216 -0.8215  0.2127 -0.2783
  122OSM   H10F12965   4.479   1.645   7.215 -0.5735 -1.9247  2.0236
  122OSM   C11F12966   4.654   1.689   7.351  0.3900 -1.1051  0.6641
  122OSM   H11F12967   4.601   1.776   7.394 -0.8987 -0.8456 -1.3366
  122OSM   H11G12968   4.762   1.711   7.343 -0.0081  0.5797 -0.5381
  122OSM   C12F12969   4.643   1.569   7.440  0.1172 -0.1795  0.4711
  122OSM   H12F12970   4.698   1.485   7.392 -2.4085 -1.4709 -0.2939
  122OSM   H12G12971   4.537   1.536   7.435  0.5157 -1.4067 -0.2635
  122OSM   C13F12972   4.691   1.577   7.587  0.0805 -0.2068 -0.1956
  122OSM   H13F12973   4.800   1.596   7.596 -0.4850  3.9381  0.1132
  122OSM   H13G12974   4.668   1.475   7.624 -1.3649  0.5317  1.1001
  122OSM   C14F12975   4.614   1.667   7.680 -0.4092  0.0539  0.0512
  122OSM   H14F12976   4.507   1.637   7.672 -0.4332 -0.2750  1.3641
  122OSM   H14G12977   4.632   1.774   7.658 -0.8416 -0.0204 -0.6797
  122OSM   C15F12978   4.660   1.656   7.832  0.7016  0.2083  0.5309
  122OSM   H15F12979   4.770   1.665   7.844  0.7560  2.4792 -0.9952
  122OSM   H15G12980   4.626   1.556   7.866  0.5571  0.5006  1.2705
  122OSM   C16F12981   4.581   1.737   7.931 -0.4936 -0.8603 -0.0412
  122OSM   H16F12982   4.476   1.701   7.937 -0.6332 -0.5019 -0.2975
  122OSM   H16G12983   4.574   1.843   7.899 -1.7982 -0.4975  1.3552
  122OSM   C17F12984   4.651   1.752   8.069  0.4138  0.3899 -0.4052
  122OSM   H17F12985   4.746   1.804   8.046  2.3532 -1.6480  2.3244
  122OSM   H17G12986   4.690   1.656   8.109 -0.5666  1.1905  2.7873
  122OSM   C18F12987   4.570   1.825   8.172 -0.7198  0.0040 -0.1366
  122OSM   H18F12988   4.627   1.818   8.267 -1.8617 -0.5828  0.5218
  122OSM   H18G12989   4.466   1.787   8.178 -0.6335 -0.2870 -0.4399
  122OSM   H18H12990   4.570   1.933   8.148 -3.6966  0.4992  1.6515
  123OSM      N12991   2.638   4.246   6.683 -0.2068  0.2850 -0.2495
  123OSM    C1512992   2.521   4.154   6.735  0.1453 -0.5534 -0.0541
  123OSM   H15A12993   2.556   4.066   6.788  0.4868 -0.7035 -0.5178
  123OSM   H15B12994   2.461   4.116   6.653 -0.8313 -2.2593  1.3902
  123OSM   H15C12995   2.450   4.209   6.794 -1.0118 -1.0515 -0.9479
  123OSM    C1412996   2.561   4.346   6.605 -1.1075 -1.2359 -0.0164
  123OSM   H14A12997   2.513   4.311   6.515 -0.8621 -1.4017 -0.0817
  123OSM   H14B12998   2.628   4.421   6.567  0.4174 -2.6441 -0.2000
  123OSM   H14C12999   2.481   4.401   6.654 -1.0751 -0.0019 -1.2974
  123OSM    C1313000   2.700   4.315   6.799 -0.8552 -0.0482 -0.2375
  123OSM   H13A13001   2.774   4.254   6.849 -3.0871 -1.6110  1.3847
  123OSM   H13B13002   2.625   4.354   6.866 -1.9528  0.1306 -1.5199
  123OSM   H13C13003   2.759   4.396   6.760 -1.9942  2.6188  3.1472
  123OSM    C1213004   2.729   4.167   6.597  0.2570  0.0254 -0.0432
  123OSM   H12A13005   2.676   4.106   6.525 -1.5390  0.7609  0.5874
  123OSM   H12B13006   2.765   4.081   6.652 -0.6993 -0.1436  0.3311
  123OSM    C1113007   2.833   4.243   6.513  0.3168  0.2694 -0.6419
  123OSM   H11A13008   2.792   4.330   6.458  1.1172  1.9863  1.3361
  123OSM   H11B13009   2.869   4.178   6.431 -0.2365 -0.5294 -0.2595
  123OSM      P13010   3.044   4.391   6.559  0.3773  0.0050 -0.4575
  123OSM    O1313011   3.158   4.325   6.493  0.1203  0.5833 -0.4328
  123OSM    O1413012   2.983   4.502   6.488  0.0989 -0.3679  0.4319
  123OSM    O1113013   3.076   4.452   6.701 -0.2398  0.0729  0.7989
  123OSM    O1213014   2.939   4.282   6.601  0.0971  0.0461 -0.3826
  123OSM    C1S13015   3.106   4.365   6.811  0.4510  0.6639 -0.1189
  123OSM    H1S13016   3.204   4.316   6.793  1.7970  3.5260 -1.1531
  123OSM    H1T13017   3.027   4.289   6.832  1.4587 -0.4737 -0.3080
  123OSM     NF13018   3.207   4.399   7.034 -0.3616 -0.2950  0.1558
  123OSM    HNF13019   3.162   4.350   7.107  0.7776  1.3007  2.0268
  123OSM    C2S13020   3.115   4.452   6.938  0.1582 -0.6436  0.4198
  123OSM    H2S13021   3.157   4.552   6.913 -1.7098  0.3705  1.0841
  123OSM    C3S13022   2.974   4.489   6.999 -0.7420  0.3016  0.3081
  123OSM    H3S13023   2.917   4.398   7.028 -1.1429  0.0765 -1.1241
  123OSM     O313024   2.891   4.547   6.898 -0.7042 -0.3477  0.2749
  123OSM    HO313025   2.943   4.538   6.818  2.1499  1.8356  1.6797
  123OSM    C4S13026   2.976   4.592   7.112  0.7786  0.0922  0.4304
  123OSM    H4S13027   2.993   4.531   7.202 -1.5034 -1.8729 -0.3678
  123OSM    C5S13028   2.959   4.728   7.123  0.2969 -0.2185  0.4201
  123OSM    H5S13029   2.935   4.781   7.030  0.0078 -0.3350  0.4271
  123OSM    C6S13030   2.973   4.813   7.247 -0.3858  0.1351  0.3540
  123OSM    H6S13031   2.899   4.895   7.232  0.1353  0.5420 -0.0200
  123OSM    H6T13032   3.072   4.862   7.239 -0.2665 -0.3522 -2.1933
  123OSM    C7S13033   2.968   4.757   7.383 -0.1393 -0.1311  0.6365
  123OSM    H7S13034   3.040   4.675   7.407 -1.0956 -0.6489  1.8051
  123OSM    H7T13035   2.869   4.709   7.398 -0.1683 -0.5635 -0.7939
  123OSM    C8S13036   2.970   4.870   7.488 -0.8767  0.4905 -0.3065
  123OSM    H8S13037   2.884   4.939   7.476 -1.5720 -0.2150  0.4928
  123OSM    H8T13038   3.056   4.935   7.463 -0.4969 -0.3633 -1.3070
  123OSM    C9S13039   2.976   4.808   7.629  0.8426  0.5034 -0.2714
  123OSM    H9S13040   3.019   4.706   7.622  2.6209  1.2546 -0.9319
  123OSM    H9T13041   2.873   4.809   7.671  1.7313  0.7213  2.0853
  123OSM   C10S13042   3.058   4.894   7.726 -0.1618 -0.5592 -0.0275
  123OSM   H10S13043   3.013   4.996   7.721  0.2805 -0.3678 -0.2362
  123OSM   H10T13044   3.166   4.902   7.700 -0.8170 -0.0457 -3.0489
  123OSM   C11S13045   3.052   4.836   7.867  0.0058  0.0458 -0.3479
  123OSM   H11S13046   3.128   4.755   7.873 -0.2904 -0.1726  0.8138
  123OSM   H11T13047   2.955   4.793   7.901  0.4318  0.0872  0.9785
  123OSM   C12S13048   3.067   4.945   7.973  0.1914  1.0824 -0.0788
  123OSM   H12S13049   2.972   5.002   7.968 -0.2311  0.2839 -2.5450
  123OSM   H12T13050   3.147   5.014   7.938 -1.0199  2.2040 -0.6996
  123OSM   C13S13051   3.107   4.884   8.106  0.0796  0.2320  0.1169
  123OSM   H13S13052   3.198   4.824   8.085  0.1604  0.9510 -1.7347
  123OSM   H13T13053   3.039   4.813   8.158  2.5115 -2.4400 -0.0863
  123OSM   C14S13054   3.153   4.989   8.208 -0.1840  0.2148 -0.4527
  123OSM   H14S13055   3.074   5.064   8.230 -2.1329 -1.7802 -0.2273
  123OSM   H14T13056   3.236   5.050   8.167  0.8173 -0.3943  0.5955
  123OSM   C15S13057   3.185   4.925   8.342 -0.5101  0.5019  0.6531
  123OSM   H15S13058   3.246   4.833   8.337 -0.0567  0.8044  0.4903
  123OSM   H15T13059   3.088   4.886   8.379  0.2554 -1.2599  0.9187
  123OSM   C16S13060   3.251   5.014   8.443  0.3177 -0.2071  0.5087
  123OSM   H16S13061   3.170   5.084   8.472  0.0795  0.1212 -0.8420
  123OSM   H16T13062   3.329   5.078   8.396  1.3600 -0.5933  1.6700
  123OSM   C17S13063   3.317   4.952   8.562 -0.0313  0.4082  0.3538
  123OSM   H17S13064   3.423   4.939   8.530 -0.0174  1.2452  0.0216
  123OSM   H17T13065   3.274   4.854   8.588 -0.3423  1.2259  3.3248
  123OSM   C18S13066   3.327   5.036   8.686 -0.0070  0.0244 -0.5588
  123OSM   H18S13067   3.359   5.140   8.663 -2.6267  1.3450  1.2785
  123OSM   H18T13068   3.396   4.996   8.763 -0.8529  0.1408  0.2777
  123OSM   H18U13069   3.226   5.045   8.733 -0.1257 -0.5142 -0.7008
  123OSM    C1F13070   3.339   4.387   7.013 -0.1032  0.4750  0.1094
  123OSM     OF13071   3.398   4.439   6.923 -0.2963 -0.7725  0.1251
  123OSM    C2F13072   3.415   4.290   7.103  0.2488  0.4707  0.4131
  123OSM    H2F13073   3.447   4.200   7.046  0.2371 -0.4568  1.8115
  123OSM    H2G13074   3.345   4.248   7.178  1.0630  0.6569  1.2982
  123OSM    C3F13075   3.537   4.345   7.187 -0.5068 -0.2572  0.0257
  123OSM    H3F13076   3.498   4.416   7.264  0.8213  1.4158 -0.7799
  123OSM    H3G13077   3.608   4.408   7.128  1.1110 -0.4863  1.6599
  123OSM    C4F13078   3.630   4.238   7.255 -0.3655  0.6747  0.0932
  123OSM    H4F13079   3.690   4.296   7.328  3.9356 -0.2133 -2.3849
  123OSM    H4G13080   3.703   4.199   7.181  0.4577  1.8389  0.2744
  123OSM    C5F13081   3.555   4.119   7.317  0.4100 -0.2866  0.1645
  123OSM    H5F13082   3.504   4.055   7.242  1.7095  0.6052 -1.5374
  123OSM    H5G13083   3.487   4.163   7.393  0.0140  1.1060 -0.9382
  123OSM    C6F13084   3.636   4.018   7.404 -0.1193 -0.6826 -0.0201
  123OSM    H6F13085   3.697   4.084   7.470  0.4986 -1.8341  0.5987
  123OSM    H6G13086   3.701   3.962   7.334  2.2214  0.7431  0.8841
  123OSM    C7F13087   3.548   3.922   7.485 -0.0261  0.0447 -0.2315
  123OSM    H7F13088   3.481   3.875   7.410  1.7545 -0.3106 -1.6767
  123OSM    H7G13089   3.488   3.983   7.556  0.1740  2.8791 -2.2994
  123OSM    C8F13090   3.628   3.820   7.574  0.9769 -0.4748  0.2885
  123OSM    H8F13091   3.646   3.732   7.509 -2.4361 -2.3078  1.5927
  123OSM    H8G13092   3.555   3.767   7.639 -0.5026 -0.3172 -1.1862
  123OSM    C9F13093   3.745   3.870   7.661  0.6392 -0.0785  0.4287
  123OSM    H9F13094   3.810   3.941   7.609  0.7573 -1.3732 -1.2711
  123OSM   C10F13095   3.759   3.842   7.789 -0.2473  1.1784  0.2069
  123OSM   H10F13096   3.837   3.898   7.843 -1.0070  1.6972  0.7792
  123OSM   C11F13097   3.670   3.752   7.877  0.2850  0.2616  0.4076
  123OSM   H11F13098   3.732   3.674   7.925  1.1879  0.3302 -0.6270
  123OSM   H11G13099   3.586   3.696   7.830 -0.7439  1.2459  1.0232
  123OSM   C12F13100   3.596   3.825   7.994 -0.5005 -0.0057 -0.1022
  123OSM   H12F13101   3.510   3.885   7.958 -0.3293  0.8449  0.8911
  123OSM   H12G13102   3.656   3.891   8.059  0.1940  0.2897 -1.0293
  123OSM   C13F13103   3.536   3.725   8.095  0.1088 -0.0048  0.6771
  123OSM   H13F13104   3.595   3.631   8.086 -2.4814 -1.6478 -0.7752
  123OSM   H13G13105   3.430   3.705   8.066  0.2503  0.9778 -0.6021
  123OSM   C14F13106   3.553   3.768   8.242  0.1171  0.2089 -0.7954
  123OSM   H14F13107   3.505   3.867   8.260  0.4680 -0.2064  3.2647
  123OSM   H14G13108   3.661   3.781   8.263  0.1800  1.6313 -1.8849
  123OSM   C15F13109   3.484   3.668   8.338 -0.5339  0.0686  1.0007
  123OSM   H15F13110   3.534   3.569   8.328  0.1236  0.3655  1.3402
  123OSM   H15G13111   3.383   3.662   8.290  0.2172 -0.1818 -0.6351
  123OSM   C16F13112   3.473   3.704   8.484 -0.2335 -0.5500 -0.6631
  123OSM   H16F13113   3.439   3.611   8.534 -1.4196  0.9043  1.4026
  123OSM   H16G13114   3.392   3.780   8.483 -0.1880 -0.5014 -0.8245
  123OSM   C17F13115   3.601   3.756   8.554  0.7473 -0.3055  0.1908
  123OSM   H17F13116   3.582   3.763   8.663 -1.5398 -1.0114 -0.1169
  123OSM   H17G13117   3.623   3.853   8.506 -1.3123  0.3999  0.5981
  123OSM   C18F13118   3.713   3.657   8.535 -0.0045 -0.1525 -0.0360
  123OSM   H18F13119   3.770   3.672   8.441 -0.7911 -0.9341 -0.6613
  123OSM   H18G13120   3.689   3.552   8.561  1.9926 -0.2985  1.3583
  123OSM   H18H13121   3.794   3.685   8.606  0.4469 -1.2296 -0.1128
  124OSM      N13122   2.952   0.985   6.308  0.1791 -0.2064  0.4760
  124OSM    C1513123   2.825   1.038   6.365  0.5266 -0.1308  0.4825
  124OSM   H15A13124   2.796   0.975   6.448 -0.2928 -3.1026 -1.8842
  124OSM   H15B13125   2.737   1.019   6.305  0.4610 -0.3301  0.6395
  124OSM   H15C13126   2.835   1.141   6.398  1.6473  0.1505 -0.6800
  124OSM    C1413127   2.930   0.846   6.257 -0.3021  0.0471 -0.6124
  124OSM   H14A13128   2.902   0.774   6.333  1.7926 -0.0988  0.0818
  124OSM   H14B13129   3.024   0.811   6.216  1.2604 -0.0526  2.7048
  124OSM   H14C13130   2.850   0.839   6.185 -1.5396  1.2493  0.5992
  124OSM    C1313131   2.984   1.076   6.190 -0.1035 -0.0178 -0.2810
  124OSM   H13A13132   2.894   1.069   6.131  0.4853  0.0815 -1.2099
  124OSM   H13B13133   3.064   1.031   6.132 -0.8483 -1.3904 -0.2881
  124OSM   H13C13134   3.012   1.174   6.226 -1.8703 -0.0656  1.4079
  124OSM    C1213135   3.063   0.995   6.415 -0.5557  0.5818  0.8397
  124OSM   H12A13136   3.036   0.934   6.500 -1.1828  2.0889  1.7531
  124OSM   H12B13137   3.061   1.100   6.441 -0.9814  1.3394 -1.9674
  124OSM    C1113138   3.210   0.961   6.378 -0.6073  0.5155  0.0000
  124OSM   H11A13139   3.213   0.857   6.337  0.1880  0.8700 -0.8753
  124OSM   H11B13140   3.269   0.975   6.472 -1.0217  0.1200  0.3274
  124OSM      P13141   3.379   1.020   6.205 -0.0374  0.0454 -0.2750
  124OSM    O1313142   3.364   0.894   6.129  0.2652  0.0161 -0.0328
  124OSM    O1413143   3.416   1.140   6.132  0.2735 -0.7871  0.6517
  124OSM    O1113144   3.474   1.002   6.329 -0.3359 -0.0029 -0.5826
  124OSM    O1213145   3.246   1.048   6.275  0.4718 -0.1316 -0.8812
  124OSM    C1S13146   3.587   1.086   6.354 -0.5968  0.1656  0.4002
  124OSM    H1S13147   3.599   1.182   6.300  3.4110  0.7976  2.0713
  124OSM    H1T13148   3.669   1.016   6.328  0.2238  1.0379  0.6307
  124OSM     NF13149   3.685   1.213   6.550  0.5789  0.3105 -0.1690
  124OSM    HNF13150   3.767   1.170   6.587 -0.4495 -0.3763  1.4250
  124OSM    C2S13151   3.589   1.113   6.511  0.2782  0.4111 -0.5353
  124OSM    H2S13152   3.486   1.142   6.538 -0.6500 -1.3820 -1.9580
  124OSM    C3S13153   3.616   0.978   6.582 -0.3858  0.5185  0.3712
  124OSM    H3S13154   3.725   0.953   6.576 -0.5717  0.0771 -1.8328
  124OSM     O313155   3.557   0.859   6.529  0.9217  0.4416 -0.4809
  124OSM    HO313156   3.508   0.890   6.453 -1.5066 -1.4769  0.1584
  124OSM    C4S13157   3.591   0.991   6.731 -0.2419  0.1768 -0.9959
  124OSM    H4S13158   3.493   1.027   6.765  0.5944  1.1424  0.4757
  124OSM    C5S13159   3.687   0.966   6.828  0.0774 -0.0358  1.2091
  124OSM    H5S13160   3.784   0.926   6.795 -1.1614  0.7983 -4.4047
  124OSM    C6S13161   3.668   0.969   6.978 -0.0781 -0.4063  0.1392
  124OSM    H6S13162   3.574   1.026   6.994 -1.4233 -2.0605 -1.4192
  124OSM    H6T13163   3.750   1.028   7.023 -0.1930  2.3511 -2.9266
  124OSM    C7S13164   3.675   0.832   7.036  0.1506  0.3890 -0.1854
  124OSM    H7S13165   3.772   0.782   7.014 -0.1498 -1.0944  1.5898
  124OSM    H7T13166   3.589   0.772   6.999 -0.4613  0.7834  0.5678
  124OSM    C8S13167   3.659   0.829   7.185  0.5360  0.4949  0.0310
  124OSM    H8S13168   3.558   0.862   7.217  2.1624  3.0639  3.0234
  124OSM    H8T13169   3.730   0.885   7.250 -0.0250  0.0911  1.0248
  124OSM    C9S13170   3.682   0.679   7.237  0.0508  0.1687 -0.6328
  124OSM    H9S13171   3.762   0.627   7.182 -0.1206 -0.1690 -0.5644
  124OSM    H9T13172   3.587   0.625   7.219  0.5087 -0.3526 -1.5169
  124OSM   C10S13173   3.720   0.672   7.392 -0.1639 -0.2151 -0.0336
  124OSM   H10S13174   3.803   0.740   7.420  0.0191 -0.2872 -0.4050
  124OSM   H10T13175   3.744   0.567   7.418  0.4163 -0.0280  0.1990
  124OSM   C11S13176   3.609   0.713   7.488 -0.2034  0.2600 -0.6116
  124OSM   H11S13177   3.526   0.648   7.453 -0.9653 -0.2796  2.0189
  124OSM   H11T13178   3.588   0.822   7.477  1.9637  0.6928 -1.0526
  124OSM   C12S13179   3.633   0.681   7.638 -0.3839 -0.3624  0.0554
  124OSM   H12S13180   3.732   0.726   7.662 -1.1001  1.3877 -0.0795
  124OSM   H12T13181   3.651   0.575   7.665  0.1050 -0.3310 -0.1267
  124OSM   C13S13182   3.526   0.734   7.736 -0.0375  0.7135 -0.0488
  124OSM   H13S13183   3.423   0.702   7.712 -0.7664  2.4815  0.5639
  124OSM   H13T13184   3.534   0.845   7.729  0.6273  0.6152 -0.9531
  124OSM   C14S13185   3.544   0.691   7.883 -0.2615 -0.1452  0.3058
  124OSM   H14S13186   3.542   0.580   7.894 -1.4439 -0.2512 -0.7696
  124OSM   H14T13187   3.452   0.733   7.930 -0.9058 -1.0887 -0.0739
  124OSM   C15S13188   3.664   0.766   7.946  0.8732 -0.5777  0.9774
  124OSM   H15S13189   3.651   0.874   7.969  1.0142 -0.4106  0.2871
  124OSM   H15T13190   3.753   0.753   7.881 -1.5100 -0.2441 -2.6968
  124OSM   C16S13191   3.694   0.708   8.085 -0.0294  0.0407 -0.2505
  124OSM   H16S13192   3.802   0.710   8.113  0.3480 -0.9751 -1.5332
  124OSM   H16T13193   3.670   0.601   8.071  0.0494  0.1244 -1.0998
  124OSM   C17S13194   3.603   0.767   8.191 -0.8171  0.3336  0.5219
  124OSM   H17S13195   3.496   0.750   8.166 -0.7484  0.2400  0.2879
  124OSM   H17T13196   3.613   0.878   8.193 -0.5031  0.2937  1.4224
  124OSM   C18S13197   3.647   0.730   8.334 -0.1908  0.6100  0.1434
  124OSM   H18S13198   3.661   0.621   8.347 -0.1679  0.7921  1.7784
  124OSM   H18T13199   3.566   0.749   8.407 -1.2762  0.8266 -1.0737
  124OSM   H18U13200   3.744   0.776   8.365  1.0233 -1.8593  0.2656
  124OSM    C1F13201   3.660   1.338   6.534 -0.0918 -0.1360 -0.3346
  124OSM     OF13202   3.566   1.380   6.470 -0.1374  0.7981  0.1304
  124OSM    C2F13203   3.771   1.427   6.589 -0.0658 -0.3681 -0.3304
  124OSM    H2F13204   3.801   1.505   6.514 -1.1076  0.6004  0.2354
  124OSM    H2G13205   3.870   1.375   6.594 -0.4524 -1.5880 -3.2747
  124OSM    C3F13206   3.722   1.498   6.715 -0.4217  0.9115 -0.6640
  124OSM    H3F13207   3.628   1.551   6.691 -0.6406  0.6137 -0.4768
  124OSM    H3G13208   3.796   1.576   6.742  0.0049  0.3793 -0.2589
  124OSM    C4F13209   3.735   1.402   6.842  0.2427  0.1972 -0.1032
  124OSM    H4F13210   3.844   1.389   6.863  0.3195 -0.3969 -0.8282
  124OSM    H4G13211   3.694   1.301   6.823  1.3074 -0.8440  2.5347
  124OSM    C5F13212   3.671   1.465   6.961  0.5955  0.1694 -0.7030
  124OSM    H5F13213   3.561   1.450   6.951  0.3840 -0.3493  1.7473
  124OSM    H5G13214   3.679   1.576   6.963 -2.5097  0.5251  2.5758
  124OSM    C6F13215   3.720   1.421   7.100  0.3457 -0.3309  0.3137
  124OSM    H6F13216   3.650   1.471   7.171 -0.0780  1.8176 -1.5242
  124OSM    H6G13217   3.824   1.459   7.103  0.3349 -0.2946  0.2188
  124OSM    C7F13218   3.717   1.275   7.128  0.1958  0.4430  0.8754
  124OSM    H7F13219   3.774   1.235   7.041 -2.9003  0.9435 -1.5989
  124OSM    H7G13220   3.614   1.241   7.102  0.0942  0.8378  0.7524
  124OSM    C8F13221   3.762   1.227   7.267 -0.1998 -0.2694  0.5580
  124OSM    H8F13222   3.850   1.286   7.300  0.4988 -1.3217  0.6209
  124OSM    H8G13223   3.785   1.118   7.266 -1.0406 -0.4830  1.9605
  124OSM    C9F13224   3.650   1.240   7.365 -0.4698  0.2160 -0.3184
  124OSM    H9F13225   3.552   1.242   7.315 -0.6591  0.5625  0.0602
  124OSM   C10F13226   3.672   1.248   7.497 -0.1227  0.0910 -0.0814
  124OSM   H10F13227   3.587   1.260   7.565 -1.3391 -2.7052 -0.9551
  124OSM   C11F13228   3.804   1.231   7.566  0.0336 -0.6274  0.3130
  124OSM   H11F13229   3.836   1.333   7.593 -0.2432 -0.1744 -0.9814
  124OSM   H11G13230   3.882   1.186   7.501  2.3941  1.3891  1.5697
  124OSM   C12F13231   3.791   1.130   7.684 -1.4329 -0.4365  0.2806
  124OSM   H12F13232   3.894   1.123   7.725 -0.5969  3.2457 -0.7967
  124OSM   H12G13233   3.749   1.036   7.643  1.1146 -1.1281 -0.9612
  124OSM   C13F13234   3.700   1.163   7.799 -0.4349 -0.0652 -0.5060
  124OSM   H13F13235   3.701   1.085   7.878  0.4877  1.7647  1.3808
  124OSM   H13G13236   3.593   1.162   7.767 -0.8924 -3.6791  0.6716
  124OSM   C14F13237   3.733   1.290   7.879 -0.1863  0.7020 -0.4842
  124OSM   H14F13238   3.692   1.373   7.817 -0.4388 -0.8309 -2.5123
  124OSM   H14G13239   3.843   1.288   7.891 -0.2074  0.8441 -0.2719
  124OSM   C15F13240   3.660   1.294   8.014 -0.1004  0.2750 -0.0328
  124OSM   H15F13241   3.698   1.207   8.072  1.6627  1.7035  1.0628
  124OSM   H15G13242   3.553   1.280   7.985  0.1790 -1.8028 -0.2218
  124OSM   C16F13243   3.697   1.411   8.106  0.0617 -0.7028  0.1057
  124OSM   H16F13244   3.678   1.515   8.071 -0.3274  0.2927  2.9801
  124OSM   H16G13245   3.803   1.406   8.136  0.1380  0.3981  0.0832
  124OSM   C17F13246   3.624   1.413   8.238  0.1627  0.8325  0.0802
  124OSM   H17F13247   3.625   1.317   8.294  1.2240  0.8930  0.1870
  124OSM   H17G13248   3.514   1.424   8.228 -0.2576 -2.6316 -0.0167
  124OSM   C18F13249   3.679   1.519   8.322 -0.7401 -0.6782 -0.0807
  124OSM   H18F13250   3.675   1.612   8.261 -1.7317 -1.2310 -0.8817
  124OSM   H18G13251   3.785   1.498   8.347 -1.2410 -2.2322  0.8936
  124OSM   H18H13252   3.640   1.548   8.422 -0.7019 -0.2144 -0.1945
  125OSM      N13253   6.562   5.344   6.401 -0.2705  0.0279  0.6701
  125OSM    C1513254   6.683   5.280   6.340  0.2331 -0.1413 -0.2079
  125OSM   H15A13255   6.732   5.351   6.275  0.2724 -0.2036 -0.2478
  125OSM   H15B13256   6.660   5.195   6.277  2.0431 -1.5394  0.8973
  125OSM   H15C13257   6.743   5.237   6.419 -0.9173 -0.5007  0.4981
  125OSM    C1413258   6.481   5.361   6.277  0.7598 -0.3750  0.0012
  125OSM   H14A13259   6.474   5.270   6.221 -0.9252 -1.4577  1.8448
  125OSM   H14B13260   6.529   5.432   6.212  1.7127 -1.4338 -0.4836
  125OSM   H14C13261   6.382   5.394   6.304 -0.3973 -2.4115 -1.5169
  125OSM    C1313262   6.495   5.248   6.486  0.1264 -0.0456 -0.3197
  125OSM   H13A13263   6.422   5.299   6.547 -0.3278  2.4431 -2.7543
  125OSM   H13B13264   6.564   5.198   6.552 -0.3525 -2.1876 -1.3693
  125OSM   H13C13265   6.451   5.164   6.434 -1.3503 -1.8120  3.4092
  125OSM    C1213266   6.596   5.474   6.465 -0.6562  0.1196 -0.5420
  125OSM   H12A13267   6.663   5.536   6.407 -0.1871  0.2819  0.1700
  125OSM   H12B13268   6.654   5.445   6.551 -1.1786 -1.2469 -0.6217
  125OSM    C1113269   6.478   5.568   6.511 -0.3705  0.0717 -1.0975
  125OSM   H11A13270   6.526   5.653   6.565 -0.4012 -1.0912  0.8777
  125OSM   H11B13271   6.406   5.517   6.578 -0.1895  0.3206 -0.7064
  125OSM      P13272   6.437   5.756   6.337  0.2245  0.3698  0.3781
  125OSM    O1313273   6.570   5.764   6.284  0.2616 -0.4295 -0.5260
  125OSM    O1413274   6.326   5.793   6.246 -0.8357 -0.1898 -0.0018
  125OSM    O1113275   6.441   5.842   6.461 -0.5201  0.2099 -0.6483
  125OSM    O1213276   6.407   5.609   6.390 -0.6163 -0.0546 -0.3029
  125OSM    C1S13277   6.343   5.877   6.553  0.1630 -0.1402 -0.2185
  125OSM    H1S13278   6.296   5.789   6.601 -2.7879  1.5812  0.3229
  125OSM    H1T13279   6.262   5.923   6.493  0.5109  0.2698 -0.3878
  125OSM     NF13280   6.300   5.985   6.774 -0.3588  0.0615 -0.7900
  125OSM    HNF13281   6.242   6.066   6.776  0.7051  1.0411 -3.8685
  125OSM    C2S13282   6.395   5.978   6.665 -0.4162 -0.0761  0.0731
  125OSM    H2S13283   6.487   5.931   6.706 -2.0154 -1.7590  1.9805
  125OSM    C3S13284   6.443   6.123   6.599  0.2180  0.4179 -0.3169
  125OSM    H3S13285   6.365   6.163   6.530 -0.0892  0.1084 -0.1562
  125OSM     O313286   6.547   6.103   6.512  0.1335  0.2517  0.6538
  125OSM    HO313287   6.554   6.008   6.500  0.9516  0.4179 -0.2986
  125OSM    C4S13288   6.487   6.210   6.708  0.0080  0.2018  0.6035
  125OSM    H4S13289   6.562   6.166   6.776  1.2368  0.2155 -0.6842
  125OSM    C5S13290   6.453   6.334   6.751  0.7247  0.2718 -0.2918
  125OSM    H5S13291   6.395   6.398   6.683  1.8707  0.6756 -0.9216
  125OSM    C6S13292   6.521   6.395   6.866  0.3886 -0.2706  0.9460
  125OSM    H6S13293   6.497   6.503   6.878  1.0962 -0.0770  0.6613
  125OSM    H6T13294   6.629   6.389   6.839 -0.3104  0.8816 -2.6746
  125OSM    C7S13295   6.491   6.317   6.995 -0.0849 -0.2948 -0.0601
  125OSM    H7S13296   6.516   6.209   6.987  0.8027 -0.0247 -1.3924
  125OSM    H7T13297   6.383   6.322   7.018 -0.9622 -2.3844 -3.0646
  125OSM    C8S13298   6.563   6.371   7.113  0.1308  0.7817 -0.0166
  125OSM    H8S13299   6.542   6.479   7.124  3.0061  1.5047 -0.7100
  125OSM    H8T13300   6.673   6.381   7.094  0.1761  0.7380  0.2232
  125OSM    C9S13301   6.511   6.299   7.241 -0.6065  0.9156  0.4621
  125OSM    H9S13302   6.535   6.193   7.217  0.5126  0.7937  1.9460
  125OSM    H9T13303   6.405   6.317   7.270 -0.8287 -0.8961  0.9242
  125OSM   C10S13304   6.593   6.332   7.365  0.2200 -0.3441 -0.4135
  125OSM   H10S13305   6.591   6.440   7.392 -1.3128 -0.3652 -0.3665
  125OSM   H10T13306   6.701   6.309   7.352  0.7750  1.8394 -0.1375
  125OSM   C11S13307   6.529   6.250   7.479  0.1468  0.2472 -0.8088
  125OSM   H11S13308   6.502   6.150   7.438  1.5160 -0.6047  0.3033
  125OSM   H11T13309   6.430   6.296   7.501  0.1320 -0.9409  1.9357
  125OSM   C12S13310   6.612   6.231   7.605 -0.2413  0.3592 -0.7976
  125OSM   H12S13311   6.716   6.199   7.583  0.7282  1.7798  1.3401
  125OSM   H12T13312   6.568   6.151   7.668 -2.4650  2.7207  0.8658
  125OSM   C13S13313   6.611   6.350   7.701  0.1414 -0.2345 -0.1378
  125OSM   H13S13314   6.506   6.362   7.736  0.5878 -0.5494  1.3602
  125OSM   H13T13315   6.635   6.444   7.646  2.2310 -0.7178 -0.1381
  125OSM   C14S13316   6.689   6.347   7.828  0.0447  0.5252 -0.1479
  125OSM   H14S13317   6.672   6.441   7.885  0.2908  1.1929 -1.1566
  125OSM   H14T13318   6.799   6.348   7.812  0.4324  0.4117  2.1085
  125OSM   C15S13319   6.659   6.229   7.927  0.1650 -0.4177  0.2703
  125OSM   H15S13320   6.684   6.129   7.886 -0.2691  0.7387 -3.2054
  125OSM   H15T13321   6.547   6.232   7.927  0.0475 -2.8117 -0.1467
  125OSM   C16S13322   6.716   6.247   8.064 -0.1340  0.1504  0.4032
  125OSM   H16S13323   6.706   6.349   8.107  0.1779 -0.1822  1.2964
  125OSM   H16T13324   6.826   6.228   8.063 -0.1537 -0.0403  1.2447
  125OSM   C17S13325   6.659   6.138   8.154  0.4602  0.0821  0.0028
  125OSM   H17S13326   6.705   6.041   8.123  0.1690  0.0309 -0.2586
  125OSM   H17T13327   6.550   6.123   8.148  0.3697  0.1469  1.2083
  125OSM   C18S13328   6.705   6.165   8.302  0.1144  0.0317  0.6150
  125OSM   H18S13329   6.813   6.148   8.322  0.5105  1.9617  0.3157
  125OSM   H18T13330   6.647   6.095   8.368  0.6797 -0.3709  0.6900
  125OSM   H18U13331   6.689   6.270   8.334  0.3661  0.1789  0.2550
  125OSM    C1F13332   6.292   5.887   6.858  0.4485  0.0438 -0.1546
  125OSM     OF13333   6.375   5.801   6.867  0.1695 -0.2643  0.3799
  125OSM    C2F13334   6.165   5.873   6.943 -1.1196  0.1796  0.6649
  125OSM    H2F13335   6.130   5.768   6.930  0.7855 -0.3270 -0.8791
  125OSM    H2G13336   6.087   5.942   6.904  0.4107  0.4313 -2.2207
  125OSM    C3F13337   6.204   5.920   7.091 -0.4982 -0.5750 -0.3232
  125OSM    H3F13338   6.238   6.026   7.090  1.7064 -1.1831  2.1843
  125OSM    H3G13339   6.285   5.855   7.128 -1.0576 -1.3386 -0.4106
  125OSM    C4F13340   6.082   5.910   7.182  0.3081 -0.0031  0.2330
  125OSM    H4F13341   6.076   5.802   7.208  0.4726 -0.7157 -2.4385
  125OSM    H4G13342   5.994   5.941   7.122 -0.6023  0.3387  1.6846
  125OSM    C5F13343   6.085   6.000   7.302  0.0523  0.8054 -0.3858
  125OSM    H5F13344   5.989   6.021   7.355 -0.2524  1.8901 -1.3354
  125OSM    H5G13345   6.126   6.100   7.276  2.2857  0.5845  1.8570
  125OSM    C6F13346   6.190   5.952   7.405 -0.1531  0.0436 -0.1348
  125OSM    H6F13347   6.288   5.985   7.365  0.2125 -0.4188  0.3660
  125OSM    H6G13348   6.187   5.843   7.426 -1.7737  0.1186  0.1397
  125OSM    C7F13349   6.190   6.027   7.544  0.1877 -0.1406  0.4980
  125OSM    H7F13350   6.094   6.002   7.595 -0.7343  2.6818  0.3538
  125OSM    H7G13351   6.202   6.135   7.519 -0.5056 -0.3588 -0.9339
  125OSM    C8F13352   6.301   5.987   7.641  0.5421  0.2412  0.3361
  125OSM    H8F13353   6.403   6.003   7.600  0.4293  1.6650  0.5752
  125OSM    H8G13354   6.300   5.877   7.654  0.3390  0.5280  3.2810
  125OSM    C9F13355   6.297   6.063   7.772 -0.1174 -0.1218 -0.5079
  125OSM    H9F13356   6.297   6.173   7.764 -0.7316 -0.0969 -0.2223
  125OSM   C10F13357   6.288   6.003   7.894  0.1321 -0.1599 -0.0741
  125OSM   H10F13358   6.285   6.075   7.976  0.0660  1.8624 -1.7697
  125OSM   C11F13359   6.298   5.859   7.938 -0.0744 -0.5608 -0.1828
  125OSM   H11F13360   6.340   5.796   7.856  0.5742  0.6769 -0.8343
  125OSM   H11G13361   6.202   5.809   7.962 -0.5557  1.2668  1.9308
  125OSM   C12F13362   6.388   5.835   8.055  0.7746  0.8129 -0.7469
  125OSM   H12F13363   6.484   5.892   8.060  0.3185  1.4988  2.3222
  125OSM   H12G13364   6.406   5.727   8.074 -2.7753  0.3883  0.8615
  125OSM   C13F13365   6.310   5.872   8.189 -0.2902  0.6194 -0.2185
  125OSM   H13F13366   6.208   5.830   8.174 -0.6776  1.3760  0.2254
  125OSM   H13G13367   6.304   5.983   8.190 -3.8742  0.5446  1.0222
  125OSM   C14F13368   6.372   5.794   8.304 -0.0357  0.0993  0.7598
  125OSM   H14F13369   6.351   5.688   8.279 -2.0482  0.8405 -0.9704
  125OSM   H14G13370   6.313   5.814   8.396  0.7713  0.9596  1.1127
  125OSM   C15F13371   6.524   5.818   8.325 -0.3390 -0.0082  0.3578
  125OSM   H15F13372   6.542   5.924   8.352  1.1773 -0.1308 -0.0959
  125OSM   H15G13373   6.567   5.795   8.225 -0.4369  1.1090  0.0458
  125OSM   C16F13374   6.587   5.728   8.428  0.4617  0.5293 -0.1859
  125OSM   H16F13375   6.698   5.736   8.436  1.2762 -3.8508 -3.4161
  125OSM   H16G13376   6.580   5.626   8.385  1.3111  0.4011 -0.0377
  125OSM   C17F13377   6.530   5.731   8.571  0.3549 -0.0261  0.3002
  125OSM   H17F13378   6.582   5.647   8.622 -2.2992 -1.1081  1.3983
  125OSM   H17G13379   6.424   5.702   8.588  0.4609  0.2289  1.5480
  125OSM   C18F13380   6.547   5.863   8.647  0.2834 -0.5859  0.0862
  125OSM   H18F13381   6.455   5.904   8.696  0.6718  0.2425  0.1378
  125OSM   H18G13382   6.562   5.933   8.562  1.6481 -0.4275  0.4400
  125OSM   H18H13383   6.634   5.852   8.714 -1.0372  0.6099  2.1245
  126OSM      N13384   3.517   4.476   6.605  0.2697 -0.0965 -0.3484
  126OSM    C1513385   3.597   4.475   6.473 -0.7702  0.0157 -0.6741
  126OSM   H15A13386   3.680   4.544   6.482  0.4735 -1.6706  1.9391
  126OSM   H15B13387   3.543   4.505   6.384 -2.3737  2.0864  0.8845
  126OSM   H15C13388   3.644   4.381   6.448  1.8291  0.9807  0.2276
  126OSM    C1413389   3.426   4.598   6.611 -0.0180  0.3244  0.4139
  126OSM   H14A13390   3.368   4.602   6.520 -1.4843  1.1156  1.3441
  126OSM   H14B13391   3.485   4.689   6.610  2.2017 -1.0309 -0.2634
  126OSM   H14C13392   3.350   4.597   6.688 -0.8453  1.9291 -0.3303
  126OSM    C1313393   3.443   4.350   6.603  1.0757 -0.4734  0.7133
  126OSM   H13A13394   3.511   4.271   6.572 -0.3666 -1.6519  0.4718
  126OSM   H13B13395   3.362   4.347   6.533  1.4877 -0.3543  0.2239
  126OSM   H13C13396   3.404   4.337   6.703 -1.5735  0.8840 -0.0695
  126OSM    C1213397   3.604   4.475   6.728  0.0966  0.1811 -0.0418
  126OSM   H12A13398   3.645   4.376   6.736 -1.5413 -0.6078 -0.9380
  126OSM   H12B13399   3.546   4.477   6.819  1.4543 -1.0841  0.8943
  126OSM    C1113400   3.715   4.583   6.739 -0.1139  0.1731 -0.2266
  126OSM   H11A13401   3.755   4.571   6.842  1.6714 -1.3594 -1.0514
  126OSM   H11B13402   3.663   4.680   6.724 -0.9269 -0.0099  1.1942
  126OSM      P13403   3.918   4.452   6.641 -0.0428  0.3893  0.1289
  126OSM    O1313404   3.843   4.328   6.657  0.1019  0.2509  0.0366
  126OSM    O1413405   4.008   4.471   6.523 -0.4571 -0.5859 -0.4246
  126OSM    O1113406   3.999   4.479   6.774  0.3392 -0.5470  0.4635
  126OSM    O1213407   3.817   4.570   6.642 -0.4932  0.0287 -0.1305
  126OSM    C1S13408   4.065   4.609   6.779 -0.0891  0.7050  0.4766
  126OSM    H1S13409   3.985   4.685   6.788 -1.7879 -1.0938  1.0110
  126OSM    H1T13410   4.128   4.634   6.691 -1.1311  2.0744  0.0751
  126OSM     NF13411   4.203   4.745   6.944  0.3992 -0.2642 -0.3973
  126OSM    HNF13412   4.302   4.747   6.933  0.7334  2.4202  1.8881
  126OSM    C2S13413   4.146   4.613   6.911  0.2769 -0.5299 -0.1926
  126OSM    H2S13414   4.073   4.587   6.991  0.9623 -4.1694 -0.5427
  126OSM    C3S13415   4.257   4.507   6.897  0.6006 -0.2229 -0.2625
  126OSM    H3S13416   4.330   4.543   6.822  2.0367 -0.0569  1.1626
  126OSM     O313417   4.232   4.374   6.857  1.0516 -0.1692  0.0103
  126OSM    HO313418   4.139   4.370   6.835  1.0995 -3.2584  0.0147
  126OSM    C4S13419   4.315   4.494   7.034 -0.2500  0.7945  0.9576
  126OSM    H4S13420   4.413   4.544   7.035 -0.3290  0.9466  1.1500
  126OSM    C5S13421   4.267   4.433   7.144 -0.2423  0.4200 -0.0824
  126OSM    H5S13422   4.166   4.389   7.137 -0.8122  1.3837  1.4386
  126OSM    C6S13423   4.329   4.419   7.280  0.4025 -0.1899 -0.3077
  126OSM    H6S13424   4.320   4.314   7.317  0.0624  0.8242  2.7861
  126OSM    H6T13425   4.277   4.478   7.359  1.6921 -1.5788  1.7016
  126OSM    C7S13426   4.472   4.462   7.280  0.5950 -0.1096  0.1996
  126OSM    H7S13427   4.483   4.572   7.269  2.3299 -0.4375 -2.2949
  126OSM    H7T13428   4.513   4.421   7.185  0.1007 -1.1038  0.3942
  126OSM    C8S13429   4.556   4.405   7.387  0.2015 -0.1951  0.1070
  126OSM    H8S13430   4.652   4.408   7.332 -1.6121 -0.0827 -3.2983
  126OSM    H8T13431   4.525   4.300   7.407 -0.1105  0.3418  2.8965
  126OSM    C9S13432   4.557   4.494   7.511 -0.0686 -0.0669 -0.4393
  126OSM    H9S13433   4.493   4.581   7.482  0.1282 -0.0181 -0.7312
  126OSM    H9T13434   4.658   4.534   7.532  0.1361 -0.5226 -0.5398
  126OSM   C10S13435   4.499   4.427   7.623  0.2797 -0.3026  0.1427
  126OSM   H10S13436   4.395   4.392   7.613 -0.3004  1.3276  0.1163
  126OSM   H10T13437   4.485   4.497   7.708 -0.2073 -0.9473  0.6000
  126OSM   C11S13438   4.591   4.320   7.678 -0.5459 -0.3950 -0.0213
  126OSM   H11S13439   4.688   4.365   7.708 -1.0767  1.8844 -1.4539
  126OSM   H11T13440   4.635   4.255   7.599 -0.2531 -0.1723 -0.0396
  126OSM   C12S13441   4.539   4.228   7.785  0.1064 -0.0870  0.4449
  126OSM   H12S13442   4.615   4.147   7.792 -0.7334 -0.8903  0.4409
  126OSM   H12T13443   4.437   4.193   7.757  0.3288 -0.3056 -0.1064
  126OSM   C13S13444   4.537   4.296   7.920 -0.6414  0.1633  0.0801
  126OSM   H13S13445   4.486   4.394   7.917  0.7876  0.9212  0.0862
  126OSM   H13T13446   4.645   4.308   7.943 -0.5308 -0.0101 -0.3297
  126OSM   C14S13447   4.469   4.211   8.025 -0.2655 -0.1508 -0.4306
  126OSM   H14S13448   4.522   4.113   8.028 -1.1207 -0.6009  1.5981
  126OSM   H14T13449   4.363   4.194   7.995 -0.2979 -0.6208 -0.0768
  126OSM   C15S13450   4.488   4.268   8.164 -0.4420 -0.2753 -0.0360
  126OSM   H15S13451   4.452   4.372   8.170  0.8490  0.1291  1.2581
  126OSM   H15T13452   4.596   4.282   8.187 -0.4564 -0.0548 -0.1002
  126OSM   C16S13453   4.422   4.178   8.272  0.7257 -0.2327  0.7340
  126OSM   H16S13454   4.471   4.079   8.260 -0.1906 -0.4636 -1.8303
  126OSM   H16T13455   4.313   4.167   8.254  0.7946 -1.5326  1.0429
  126OSM   C17S13456   4.450   4.235   8.407  0.3642 -0.4767 -0.2517
  126OSM   H17S13457   4.423   4.342   8.413  1.0096 -0.2502 -1.1075
  126OSM   H17T13458   4.557   4.232   8.437 -0.2620  1.1411  2.5151
  126OSM   C18S13459   4.378   4.161   8.526 -0.9234  1.0811 -0.2638
  126OSM   H18S13460   4.436   4.176   8.620 -2.4417 -1.9757  1.3056
  126OSM   H18T13461   4.388   4.052   8.509 -1.6620  0.9019  0.4145
  126OSM   H18U13462   4.269   4.180   8.534 -1.7388 -2.6985 -0.4786
  126OSM    C1F13463   4.139   4.858   6.966  0.4824 -0.4350  0.5396
  126OSM     OF13464   4.024   4.867   6.921 -0.0690 -0.3485 -0.3520
  126OSM    C2F13465   4.210   4.968   7.033  0.3572  0.5695  0.0945
  126OSM    H2F13466   4.281   5.020   6.965 -0.9372  0.4124 -1.4516
  126OSM    H2G13467   4.273   4.925   7.113  0.2761  0.4185  0.0772
  126OSM    C3F13468   4.109   5.077   7.072  0.6707  0.3433 -0.6889
  126OSM    H3F13469   4.013   5.046   7.118 -0.0666 -0.5421 -2.6826
  126OSM    H3G13470   4.085   5.142   6.985 -1.7765 -0.4456 -0.6657
  126OSM    C4F13471   4.173   5.180   7.171  0.3042  0.2415 -0.1068
  126OSM    H4F13472   4.109   5.271   7.170  0.9654  0.7418 -2.0805
  126OSM    H4G13473   4.277   5.200   7.136 -0.3439 -0.0244 -2.3093
  126OSM    C5F13474   4.156   5.131   7.319  0.1505 -0.2023  0.4039
  126OSM    H5F13475   4.225   5.045   7.337  1.9032  1.2488  0.8623
  126OSM    H5G13476   4.050   5.100   7.336 -0.7511  3.4434  2.3068
  126OSM    C6F13477   4.193   5.234   7.427 -0.2203  0.6323  0.4207
  126OSM    H6F13478   4.299   5.264   7.415  0.2385 -0.9521  0.2594
  126OSM    H6G13479   4.194   5.186   7.527 -0.0065  3.7106  2.0329
  126OSM    C7F13480   4.098   5.360   7.450  0.1942 -0.4019  0.2176
  126OSM    H7F13481   3.995   5.321   7.464 -0.1344  0.0651 -0.8345
  126OSM    H7G13482   4.097   5.427   7.362  1.5555  1.9929  1.9199
  126OSM    C8F13483   4.132   5.438   7.576  0.0905 -0.0681  0.0083
  126OSM    H8F13484   4.128   5.374   7.667  1.4758  0.9794  0.8618
  126OSM    H8G13485   4.065   5.523   7.600  1.1380  0.5585  0.8294
  126OSM    C9F13486   4.274   5.484   7.574  1.2399  0.2994 -0.0577
  126OSM    H9F13487   4.344   5.416   7.524  0.4123 -3.2721  3.1553
  126OSM   C10F13488   4.324   5.586   7.651 -0.1513 -0.1385  0.5407
  126OSM   H10F13489   4.425   5.619   7.622  0.7141 -1.8093  1.4821
  126OSM   C11F13490   4.250   5.676   7.754 -1.0420 -0.3640 -0.0285
  126OSM   H11F13491   4.150   5.631   7.770  0.0889 -2.8886  0.3565
  126OSM   H11G13492   4.233   5.780   7.718  0.1696 -0.3862 -0.6818
  126OSM   C12F13493   4.324   5.683   7.885  0.1270  0.0748 -0.0930
  126OSM   H12F13494   4.419   5.737   7.865 -0.7549  1.4769 -0.6817
  126OSM   H12G13495   4.343   5.578   7.916  0.6703  0.0350 -0.5479
  126OSM   C13F13496   4.254   5.753   7.998 -0.7602 -0.7516 -0.6656
  126OSM   H13F13497   4.164   5.691   8.017 -0.4508 -1.7441 -2.2157
  126OSM   H13G13498   4.226   5.853   7.959 -0.6084 -0.2093  0.5851
  126OSM   C14F13499   4.337   5.772   8.127 -0.0015  0.3953 -0.8874
  126OSM   H14F13500   4.370   5.679   8.178  1.4810  1.2023 -0.3181
  126OSM   H14G13501   4.265   5.829   8.189 -0.7829  1.1446 -2.4205
  126OSM   C15F13502   4.468   5.845   8.094 -0.2895 -0.5228  0.3774
  126OSM   H15F13503   4.462   5.919   8.012  1.1428 -0.0280  0.6860
  126OSM   H15G13504   4.528   5.758   8.060  0.7458  0.0272  0.7479
  126OSM   C16F13505   4.547   5.903   8.213  0.5158  0.3391  0.0527
  126OSM   H16F13506   4.469   5.935   8.286  1.0433 -0.0078  0.7786
  126OSM   H16G13507   4.613   5.983   8.175 -0.7312  2.1286  1.4838
  126OSM   C17F13508   4.632   5.791   8.278  0.4023  0.0967  0.4426
  126OSM   H17F13509   4.565   5.711   8.315  1.4322 -1.3256 -0.6789
  126OSM   H17G13510   4.670   5.833   8.374 -2.3488  0.2926  1.5427
  126OSM   C18F13511   4.749   5.721   8.197  0.1969 -0.3673 -0.3957
  126OSM   H18F13512   4.803   5.805   8.147  1.6583 -1.0647 -0.0284
  126OSM   H18G13513   4.717   5.649   8.119  0.3795  1.6099 -2.4196
  126OSM   H18H13514   4.825   5.674   8.262 -0.3742  0.9963  1.3274
  127OSM      N13515   1.458   4.897   6.288  0.2799  0.0388  0.4261
  127OSM    C1513516   1.534   4.969   6.390  0.0035  0.0285 -0.3936
  127OSM   H15A13517   1.579   4.906   6.464  1.6318  1.1965 -0.3357
  127OSM   H15B13518   1.474   5.044   6.441  1.9562  2.0737 -0.9383
  127OSM   H15C13519   1.612   5.031   6.348  1.7519 -2.1183 -0.4486
  127OSM    C1413520   1.334   4.824   6.341 -0.8027 -0.4067  0.0368
  127OSM   H14A13521   1.272   4.891   6.399 -0.1568 -1.3377  1.8805
  127OSM   H14B13522   1.360   4.743   6.408 -2.6145 -1.5819 -0.5960
  127OSM   H14C13523   1.274   4.794   6.257 -1.0434 -1.1898  0.4799
  127OSM    C1313524   1.410   4.998   6.191 -0.2040  0.3456  0.5785
  127OSM   H13A13525   1.363   5.077   6.248  0.0674  0.5945  0.4625
  127OSM   H13B13526   1.349   4.945   6.119  1.4081 -1.9539  0.7891
  127OSM   H13C13527   1.493   5.043   6.137 -0.1230  2.8326  2.5953
  127OSM    C1213528   1.551   4.794   6.224  0.1512 -0.2571 -0.0329
  127OSM   H12A13529   1.490   4.728   6.164 -2.2276  0.5764  1.3361
  127OSM   H12B13530   1.591   4.729   6.300  0.4152  0.2695  0.2909
  127OSM    C1113531   1.665   4.843   6.131 -0.0686 -0.3179  0.1428
  127OSM   H11A13532   1.630   4.914   6.053  0.1564 -0.7436 -0.3519
  127OSM   H11B13533   1.710   4.757   6.077  0.6654 -0.5934  1.1547
  127OSM      P13534   1.906   4.863   6.226  0.4441  1.1328  0.6063
  127OSM    O1313535   1.906   4.716   6.205 -0.5679 -0.3968  0.1122
  127OSM    O1413536   2.005   4.935   6.140 -0.2202 -0.0568 -0.4346
  127OSM    O1113537   1.934   4.900   6.380  0.4784 -0.0581  0.0191
  127OSM    O1213538   1.760   4.918   6.204 -0.1969  0.1050  0.3717
  127OSM    C1S13539   1.905   5.032   6.434  0.3709  0.0184  0.1218
  127OSM    H1S13540   1.801   5.063   6.413 -0.6112 -2.6212  0.6754
  127OSM    H1T13541   1.973   5.103   6.381  0.2531 -0.2017 -0.3338
  127OSM     NF13542   1.917   5.165   6.633  0.0857  0.6285  0.2841
  127OSM    HNF13543   2.000   5.221   6.627 -0.5491  1.6981  1.2175
  127OSM    C2S13544   1.937   5.036   6.585  0.2206  0.0448 -0.0904
  127OSM    H2S13545   1.864   4.965   6.631 -0.1576 -0.7977 -1.9081
  127OSM    C3S13546   2.079   4.983   6.614 -0.6848  0.2175  0.0612
  127OSM    H3S13547   2.147   5.049   6.557 -0.2594  0.3845  0.7501
  127OSM     O313548   2.104   4.849   6.565 -0.1683  0.1741  0.5407
  127OSM    HO313549   2.060   4.849   6.479 -0.6481  0.2448  0.7807
  127OSM    C4S13550   2.107   4.988   6.762  0.1924  0.6154  0.2221
  127OSM    H4S13551   2.053   4.915   6.824  0.3553  0.0320 -0.3108
  127OSM    C5S13552   2.179   5.078   6.832 -0.5261 -0.0663 -0.9307
  127OSM    H5S13553   2.237   5.159   6.786  0.5461 -0.1346  0.2439
  127OSM    C6S13554   2.202   5.079   6.976 -0.4945 -0.0703 -0.0498
  127OSM    H6S13555   2.181   5.181   7.015 -0.4764  0.5013 -1.4875
  127OSM    H6T13556   2.312   5.064   6.986 -0.5465  0.6209  2.2891
  127OSM    C7S13557   2.126   4.975   7.060  0.8922 -0.0059 -0.2693
  127OSM    H7S13558   2.156   4.868   7.058  1.8580  0.2189  0.7414
  127OSM    H7T13559   2.016   4.988   7.052  0.9604  1.3592  0.7220
  127OSM    C8S13560   2.148   5.004   7.216  0.3947  0.1103  0.1300
  127OSM    H8S13561   2.055   4.968   7.265 -0.1875 -1.6071 -2.1037
  127OSM    H8T13562   2.169   5.113   7.225  0.4332  0.0425  0.9144
  127OSM    C9S13563   2.261   4.929   7.273 -0.5725 -0.3831 -0.5607
  127OSM    H9S13564   2.357   4.942   7.219  0.0775  2.4236  1.0379
  127OSM    H9T13565   2.234   4.822   7.288 -1.5510 -0.0205  0.4325
  127OSM   C10S13566   2.302   4.989   7.407 -0.4114  0.5120 -0.2510
  127OSM   H10S13567   2.209   4.998   7.466 -0.8702  0.5798 -0.9676
  127OSM   H10T13568   2.335   5.093   7.384 -1.8606  1.1826  0.5741
  127OSM   C11S13569   2.417   4.911   7.481 -0.2924 -0.3277  0.3876
  127OSM   H11S13570   2.507   4.887   7.421  1.4659  2.1222  1.8388
  127OSM   H11T13571   2.387   4.819   7.536 -0.6371 -0.0355  0.6933
  127OSM   C12S13572   2.469   5.008   7.588 -0.2408 -0.7769  0.5014
  127OSM   H12S13573   2.383   5.051   7.642 -1.8805 -1.2735 -1.5629
  127OSM   H12T13574   2.530   5.073   7.522 -0.6159 -0.8757  0.0486
  127OSM   C13S13575   2.567   4.937   7.682  0.1825  0.9204 -0.0284
  127OSM   H13S13576   2.663   4.912   7.632  0.2667 -0.0626  0.5881
  127OSM   H13T13577   2.515   4.842   7.710 -1.5924  1.8705  0.0567
  127OSM   C14S13578   2.582   5.019   7.813  0.0731  0.4027 -0.1097
  127OSM   H14S13579   2.486   5.048   7.860  0.7384  0.1992  1.4256
  127OSM   H14T13580   2.650   5.103   7.785  1.2375 -0.8215 -1.0955
  127OSM   C15S13581   2.648   4.930   7.921 -0.0395 -0.2919  0.6378
  127OSM   H15S13582   2.738   4.889   7.871  0.0431  1.2563 -0.5573
  127OSM   H15T13583   2.593   4.840   7.956 -0.5648  0.1480  0.9635
  127OSM   C16S13584   2.689   5.014   8.049 -1.0813  0.0443  0.8522
  127OSM   H16S13585   2.596   5.054   8.096 -0.6381  0.6455  1.2293
  127OSM   H16T13586   2.761   5.090   8.013 -1.1513 -0.7864 -1.1876
  127OSM   C17S13587   2.743   4.931   8.155  0.5228  1.1073 -0.5237
  127OSM   H17S13588   2.842   4.898   8.117  0.1641 -0.8072  0.0853
  127OSM   H17T13589   2.688   4.834   8.153  0.4259  1.1327  0.3773
  127OSM   C18S13590   2.764   4.984   8.290  0.1882 -0.8708  0.5931
  127OSM   H18S13591   2.812   5.083   8.285 -2.7472  0.5932 -1.3287
  127OSM   H18T13592   2.822   4.914   8.354  0.1392 -1.8043 -0.3514
  127OSM   H18U13593   2.664   4.995   8.337  0.4098 -0.6853  1.0231
  127OSM    C1F13594   1.797   5.221   6.646  0.0531 -1.2904 -0.3347
  127OSM     OF13595   1.690   5.162   6.646 -0.2614  0.4240 -0.0813
  127OSM    C2F13596   1.797   5.372   6.671  0.1735 -0.2699 -0.3209
  127OSM    H2F13597   1.698   5.401   6.630  0.2711 -0.0443 -0.4027
  127OSM    H2G13598   1.873   5.429   6.613 -1.2044  0.9649 -0.9835
  127OSM    C3F13599   1.804   5.420   6.820  0.8662  0.5740  0.1245
  127OSM    H3F13600   1.739   5.360   6.887  2.3939 -0.7750  0.4815
  127OSM    H3G13601   1.755   5.519   6.808 -0.3346 -0.3370 -4.0554
  127OSM    C4F13602   1.942   5.431   6.884  0.0203  0.1489 -0.7434
  127OSM    H4F13603   2.017   5.495   6.832 -1.8084  1.4294 -1.9006
  127OSM    H4G13604   1.981   5.327   6.879 -0.5429 -0.1092  0.0053
  127OSM    C5F13605   1.930   5.487   7.032  0.5094 -1.0706 -0.3850
  127OSM    H5F13606   1.840   5.442   7.080 -1.3958 -0.0375 -2.7852
  127OSM    H5G13607   1.917   5.597   7.023  0.3144 -1.1328 -0.8703
  127OSM    C6F13608   2.054   5.460   7.117 -0.5678 -0.2692 -0.0287
  127OSM    H6F13609   2.143   5.511   7.075 -0.9741 -0.9563 -1.8143
  127OSM    H6G13610   2.084   5.353   7.108  1.5368  0.0393  2.3983
  127OSM    C7F13611   2.041   5.492   7.260  0.1156 -0.2962  0.0957
  127OSM    H7F13612   1.941   5.464   7.299  0.1518 -0.3197  0.1731
  127OSM    H7G13613   2.049   5.603   7.264 -1.0840 -0.1679 -0.8137
  127OSM    C8F13614   2.134   5.415   7.351 -0.3934  0.0019  0.2319
  127OSM    H8F13615   2.129   5.305   7.339  1.2255 -0.3144  1.9035
  127OSM    H8G13616   2.127   5.441   7.459  1.6127 -0.2986  0.4766
  127OSM    C9F13617   2.277   5.449   7.311 -0.6887  0.6607 -0.0329
  127OSM    H9F13618   2.305   5.454   7.204  1.3755  0.1676  0.4471
  127OSM   C10F13619   2.374   5.489   7.398 -0.0523 -0.2111  0.7708
  127OSM   H10F13620   2.472   5.512   7.353  0.5688 -1.2727  1.5407
  127OSM   C11F13621   2.374   5.517   7.548 -0.0613  0.4893  0.2727
  127OSM   H11F13622   2.272   5.526   7.592 -0.8340 -0.9914 -1.1202
  127OSM   H11G13623   2.429   5.613   7.564 -1.9566  2.1022 -2.0755
  127OSM   C12F13624   2.468   5.402   7.605 -0.4708 -0.4829 -0.2747
  127OSM   H12F13625   2.564   5.393   7.550 -1.3510 -3.1130 -1.5991
  127OSM   H12G13626   2.409   5.308   7.595 -2.5303  0.4467  2.1087
  127OSM   C13F13627   2.503   5.408   7.758  0.2101 -0.4728 -0.4388
  127OSM   H13F13628   2.579   5.485   7.780  0.2760 -0.3726 -0.9862
  127OSM   H13G13629   2.560   5.314   7.776  1.0425  0.1567  0.2674
  127OSM   C14F13630   2.383   5.423   7.857 -1.4149  0.3540 -0.2732
  127OSM   H14F13631   2.298   5.377   7.802 -2.0483  1.4628 -0.2696
  127OSM   H14G13632   2.367   5.531   7.880  0.2065  0.4391  0.5462
  127OSM   C15F13633   2.407   5.347   7.987 -0.8273  1.1011  0.2200
  127OSM   H15F13634   2.404   5.240   7.958 -1.8079  0.3754  2.7021
  127OSM   H15G13635   2.320   5.369   8.052 -2.0208 -2.2772 -0.0112
  127OSM   C16F13636   2.540   5.375   8.068  0.1242 -0.5253 -0.0616
  127OSM   H16F13637   2.630   5.361   8.004 -1.5736 -2.3360 -2.2210
  127OSM   H16G13638   2.536   5.303   8.152  0.0471  0.8159  1.1216
  127OSM   C17F13639   2.550   5.519   8.130  0.3956  0.5366  0.0813
  127OSM   H17F13640   2.562   5.583   8.040 -0.7594 -0.1716 -0.5991
  127OSM   H17G13641   2.638   5.504   8.196 -0.2058 -2.9804  0.2959
  127OSM   C18F13642   2.431   5.574   8.208 -0.0634  0.0199  0.3258
  127OSM   H18F13643   2.351   5.577   8.131  0.3451 -1.2601 -0.1618
  127OSM   H18G13644   2.457   5.678   8.238 -1.3840  0.0250  1.5793
  127OSM   H18H13645   2.415   5.509   8.297  0.6666 -0.0281  0.4272
  128OSM      N13646   3.041   2.662   6.262 -0.2093  0.9946 -0.8441
  128OSM    C1513647   3.106   2.581   6.157 -0.2727  0.0045  1.0262
  128OSM   H15A13648   3.145   2.635   6.072  0.5043 -1.8259  0.1468
  128OSM   H15B13649   3.044   2.502   6.116  0.4222 -1.2479  2.2832
  128OSM   H15C13650   3.187   2.526   6.203  0.3119  0.2687  0.3239
  128OSM    C1413651   2.994   2.560   6.368  0.2974  0.0260 -0.4398
  128OSM   H14A13652   3.072   2.520   6.431  0.1913  2.5457  1.3989
  128OSM   H14B13653   2.927   2.492   6.317 -0.5359  1.6489 -1.5698
  128OSM   H14C13654   2.933   2.616   6.436  2.3305  1.6965  0.0880
  128OSM    C1313655   3.134   2.753   6.332 -0.6457  0.0404 -0.3334
  128OSM   H13A13656   3.204   2.693   6.388  0.1717  0.9986 -0.2924
  128OSM   H13B13657   3.085   2.800   6.417  1.5362 -0.1889  1.1389
  128OSM   H13C13658   3.187   2.825   6.272 -1.3788  1.2332  0.3907
  128OSM    C1213659   2.925   2.738   6.199 -0.1157  0.2474 -0.0175
  128OSM   H12A13660   2.857   2.664   6.160 -2.1334  1.4383  1.0899
  128OSM   H12B13661   2.963   2.810   6.129 -2.9052  1.3349 -0.5544
  128OSM    C1113662   2.843   2.830   6.292  0.1600  0.1329 -0.1287
  128OSM   H11A13663   2.799   2.907   6.226 -1.2627 -1.3915 -1.0208
  128OSM   H11B13664   2.901   2.888   6.368  0.5581 -1.8972  1.1837
  128OSM      P13665   2.634   2.680   6.305 -0.1568 -0.3906 -0.3147
  128OSM    O1313666   2.570   2.752   6.195  0.4992 -0.1723  0.3669
  128OSM    O1413667   2.684   2.545   6.263  0.3034 -0.0491 -0.5514
  128OSM    O1113668   2.524   2.664   6.422 -0.6071 -0.4241 -0.0047
  128OSM    O1213669   2.741   2.772   6.372 -0.3521 -0.1451 -0.2421
  128OSM    C1S13670   2.562   2.595   6.543 -0.3219 -0.1166 -0.1604
  128OSM    H1S13671   2.670   2.612   6.564 -0.0506 -1.3333 -0.4846
  128OSM    H1T13672   2.551   2.484   6.541  2.1739 -0.4217 -0.1055
  128OSM     NF13673   2.534   2.612   6.786  0.0920  0.2798  0.3056
  128OSM    HNF13674   2.481   2.543   6.836 -0.8298  0.7656  0.0276
  128OSM    C2S13675   2.479   2.650   6.663 -0.3939  0.1740  0.6531
  128OSM    H2S13676   2.497   2.759   6.654 -2.8032  0.6542  1.0485
  128OSM    C3S13677   2.327   2.619   6.659  0.1478 -0.2503  0.1297
  128OSM    H3S13678   2.318   2.511   6.680 -0.0147 -0.6394 -1.7582
  128OSM     O313679   2.271   2.633   6.528  0.3282 -0.0803  0.5197
  128OSM    HO313680   2.336   2.655   6.461 -0.5643  0.5437 -0.1608
  128OSM    C4S13681   2.255   2.696   6.761 -0.3189  0.3539  0.0868
  128OSM    H4S13682   2.284   2.801   6.774  2.0632 -0.3652  1.2223
  128OSM    C5S13683   2.177   2.645   6.859  0.3443  0.3337  1.0677
  128OSM    H5S13684   2.158   2.536   6.857 -0.3533  0.4486 -1.2115
  128OSM    C6S13685   2.114   2.736   6.966 -1.0842 -0.6721  0.4574
  128OSM    H6S13686   2.004   2.748   6.962 -1.0076  0.7592  1.5185
  128OSM    H6T13687   2.154   2.838   6.945 -1.9027 -0.0611  1.7325
  128OSM    C7S13688   2.150   2.697   7.104  0.3621 -0.0729 -0.5194
  128OSM    H7S13689   2.255   2.714   7.139  0.5024 -1.2304 -0.3272
  128OSM    H7T13690   2.147   2.587   7.113  2.6687 -0.2800 -1.4808
  128OSM    C8S13691   2.069   2.761   7.217  0.7185  0.1030 -0.0550
  128OSM    H8S13692   1.961   2.744   7.202  1.0733 -0.5831 -2.1951
  128OSM    H8T13693   2.096   2.868   7.220 -2.2985  0.9519  3.0242
  128OSM    C9S13694   2.099   2.704   7.359 -0.8690  0.8205  0.2889
  128OSM    H9S13695   2.209   2.711   7.372 -0.9155  1.4946  0.3371
  128OSM    H9T13696   2.065   2.598   7.361 -0.7046  0.7012 -1.6732
  128OSM   C10S13697   2.021   2.774   7.468  0.5680 -0.1608  0.4499
  128OSM   H10S13698   1.913   2.766   7.443 -0.0848  3.6028  1.4160
  128OSM   H10T13699   2.024   2.885   7.461  1.6332 -0.2711 -1.6024
  128OSM   C11S13700   2.057   2.732   7.612  1.1062  0.5154 -1.0732
  128OSM   H11S13701   2.148   2.785   7.649  0.2583  0.4934  1.1484
  128OSM   H11T13702   2.093   2.627   7.608  0.9922  0.4441 -0.3754
  128OSM   C12S13703   1.954   2.748   7.720 -0.2155  0.0981 -0.5203
  128OSM   H12S13704   1.885   2.661   7.722 -0.2890  0.1718  0.8174
  128OSM   H12T13705   1.895   2.840   7.701  1.2851  0.9347 -1.2619
  128OSM   C13S13706   2.022   2.767   7.858 -0.3459  0.6364 -0.3760
  128OSM   H13S13707   2.102   2.843   7.851 -0.4995  0.7573 -0.8621
  128OSM   H13T13708   2.075   2.673   7.885 -0.3845  0.7211 -0.0070
  128OSM   C14S13709   1.916   2.785   7.969 -0.0777 -0.3391 -0.5705
  128OSM   H14S13710   1.837   2.708   7.953 -0.6083  0.1896 -0.5591
  128OSM   H14T13711   1.860   2.881   7.960 -1.7458 -1.0433  1.5533
  128OSM   C15S13712   1.972   2.771   8.119  0.1482  0.4030  0.1825
  128OSM   H15S13713   2.060   2.839   8.120  1.6356 -1.4137 -0.5019
  128OSM   H15T13714   2.010   2.669   8.141 -0.6158  0.0709 -0.0251
  128OSM   C16S13715   1.861   2.807   8.217  0.6250 -0.5773 -0.4093
  128OSM   H16S13716   1.768   2.756   8.184  0.1264  0.3522 -0.4651
  128OSM   H16T13717   1.838   2.915   8.212 -1.5863 -0.9065  1.2102
  128OSM   C17S13718   1.905   2.765   8.354  0.6652  0.3334 -0.2936
  128OSM   H17S13719   1.971   2.848   8.388 -1.7909  2.0561  0.6182
  128OSM   H17T13720   1.957   2.668   8.342  2.3265  1.4120 -2.5440
  128OSM   C18S13721   1.790   2.759   8.457 -0.2165 -0.0249  0.5284
  128OSM   H18S13722   1.831   2.759   8.560  1.5266  0.5457 -0.1294
  128OSM   H18T13723   1.717   2.675   8.447 -0.7105  0.2022  1.9665
  128OSM   H18U13724   1.731   2.853   8.451  2.7051  1.8639 -0.6192
  128OSM    C1F13725   2.650   2.655   6.833  0.1291  0.9037  0.6428
  128OSM     OF13726   2.723   2.731   6.768 -0.0265 -0.2076 -0.0621
  128OSM    C2F13727   2.687   2.607   6.970 -0.0798  0.2105  0.1879
  128OSM    H2F13728   2.773   2.672   6.996 -0.4088  0.8169 -0.2240
  128OSM    H2G13729   2.739   2.508   6.966  2.6317  1.5212  0.7829
  128OSM    C3F13730   2.577   2.634   7.071 -0.5041 -0.4542 -0.1343
  128OSM    H3F13731   2.490   2.565   7.065  0.0404 -1.5019  2.7439
  128OSM    H3G13732   2.544   2.741   7.070 -0.2716 -0.3404  1.6055
  128OSM    C4F13733   2.630   2.605   7.212  0.0358  0.2169 -0.2747
  128OSM    H4F13734   2.728   2.655   7.222 -0.2823  0.9554 -0.8005
  128OSM    H4G13735   2.640   2.494   7.214 -0.7805  0.1428  0.0856
  128OSM    C5F13736   2.542   2.658   7.328 -0.3588 -0.4371 -0.5211
  128OSM    H5F13737   2.438   2.618   7.326 -0.5009 -0.2658  1.5083
  128OSM    H5G13738   2.540   2.768   7.314  2.1483 -0.3741 -0.8587
  128OSM    C6F13739   2.611   2.630   7.459  0.4806  0.0670  0.3412
  128OSM    H6F13740   2.718   2.661   7.462  0.2432  0.8766  0.5921
  128OSM    H6G13741   2.616   2.519   7.468  0.8957 -0.0499 -1.1032
  128OSM    C7F13742   2.543   2.690   7.584 -0.6451  0.0295  0.2083
  128OSM    H7F13743   2.440   2.648   7.590 -2.0303  2.8017 -1.7334
  128OSM    H7G13744   2.530   2.798   7.559 -3.6469 -0.7552 -2.2908
  128OSM    C8F13745   2.628   2.679   7.708 -0.3619 -0.8237 -0.1788
  128OSM    H8F13746   2.734   2.696   7.679 -0.4833 -1.8628 -1.3085
  128OSM    H8G13747   2.623   2.574   7.746  1.0934 -1.0559 -0.5757
  128OSM    C9F13748   2.605   2.779   7.815 -0.0829 -0.5289  0.4245
  128OSM    H9F13749   2.648   2.879   7.795  3.0858 -1.2882  2.6150
  128OSM   C10F13750   2.529   2.756   7.925  0.0215  0.6466 -0.1945
  128OSM   H10F13751   2.524   2.838   7.999 -0.8408 -0.0286  0.5082
  128OSM   C11F13752   2.458   2.631   7.966 -0.4587  0.1345 -0.1226
  128OSM   H11F13753   2.531   2.548   7.978 -0.9350 -0.2137  0.3988
  128OSM   H11G13754   2.400   2.589   7.882 -1.2333  1.2079 -0.1478
  128OSM   C12F13755   2.383   2.669   8.093 -0.0163  0.8066 -0.0160
  128OSM   H12F13756   2.305   2.592   8.115  0.2139  0.1091 -1.5168
  128OSM   H12G13757   2.327   2.764   8.086  2.0612  2.1390  0.6246
  128OSM   C13F13758   2.474   2.677   8.227  0.4939  0.2895  0.7460
  128OSM   H13F13759   2.535   2.770   8.230  0.8405  0.0366  1.8769
  128OSM   H13G13760   2.533   2.583   8.218 -1.3256 -0.8045 -0.6526
  128OSM   C14F13761   2.383   2.674   8.353  0.8353  0.3952  0.0992
  128OSM   H14F13762   2.374   2.573   8.399 -0.4490 -0.1044 -1.1837
  128OSM   H14G13763   2.282   2.708   8.320  1.2948 -1.1629 -3.4131
  128OSM   C15F13764   2.432   2.784   8.459 -0.4848 -0.1222 -0.1685
  128OSM   H15F13765   2.396   2.872   8.402 -0.6838 -1.5632 -2.3996
  128OSM   H15G13766   2.542   2.773   8.465 -0.7055 -2.1274  1.2751
  128OSM   C16F13767   2.344   2.788   8.586 -0.7964 -0.0276 -0.6027
  128OSM   H16F13768   2.379   2.877   8.642  0.5671 -0.8464 -0.0875
  128OSM   H16G13769   2.379   2.698   8.641 -1.0900  1.1450  1.5934
  128OSM   C17F13770   2.192   2.794   8.571 -0.1404  0.6470  0.9638
  128OSM   H17F13771   2.152   2.716   8.503 -1.6967  1.1685  1.2462
  128OSM   H17G13772   2.173   2.888   8.516  0.2000 -1.1884 -2.5504
  128OSM   C18F13773   2.104   2.787   8.695 -0.3990  0.1377 -0.0054
  128OSM   H18F13774   2.107   2.883   8.752 -0.9892 -0.0742  0.3940
  128OSM   H18G13775   2.136   2.705   8.762 -1.9940 -1.6330 -1.2735
  128OSM   H18H13776   1.998   2.767   8.665 -0.0250 -0.8074 -0.7346
  129OSM      N13777   6.779   2.616   6.172  0.0954  0.1194 -0.7103
  129OSM    C1513778   6.755   2.690   6.295 -0.8129 -0.2272 -0.0639
  129OSM   H15A13779   6.849   2.727   6.333  0.7109 -1.8886 -2.0035
  129OSM   H15B13780   6.713   2.632   6.376  1.8805 -2.9230 -0.3899
  129OSM   H15C13781   6.704   2.785   6.287  0.8231  0.6911 -0.1327
  129OSM    C1413782   6.662   2.624   6.079  0.4221 -0.6294  0.2940
  129OSM   H14A13783   6.653   2.727   6.047 -3.0768 -0.6068  0.9602
  129OSM   H14B13784   6.563   2.602   6.117 -0.0084  2.4517  1.2715
  129OSM   H14C13785   6.676   2.567   5.988 -0.3093  0.5784 -0.6220
  129OSM    C1313786   6.897   2.667   6.103 -0.0119  0.5073  0.5595
  129OSM   H13A13787   6.889   2.772   6.079  1.6701  0.7565  0.9382
  129OSM   H13B13788   6.914   2.618   6.008  0.3070  1.4458  0.1237
  129OSM   H13C13789   6.986   2.659   6.164 -0.4724 -1.2629  1.0658
  129OSM    C1213790   6.811   2.471   6.219  0.1895  0.0867  0.6574
  129OSM   H12A13791   6.814   2.414   6.127 -1.0003  1.7322 -0.4696
  129OSM   H12B13792   6.728   2.439   6.280  0.5472  1.1560  1.7447
  129OSM    C1113793   6.941   2.453   6.294 -0.4192  0.1074 -0.4609
  129OSM   H11A13794   6.935   2.357   6.351 -0.8251 -0.2237 -1.0471
  129OSM   H11B13795   6.962   2.525   6.376  0.2065 -1.9724  1.3255
  129OSM      P13796   7.073   2.308   6.133  0.4424  0.0399 -0.1953
  129OSM    O1313797   6.939   2.267   6.079 -0.5984  0.1056 -0.2736
  129OSM    O1413798   7.179   2.316   6.032 -0.4654  0.2724  0.1483
  129OSM    O1113799   7.119   2.232   6.259 -0.2291  0.0339 -0.0196
  129OSM    O1213800   7.054   2.456   6.196  0.7458 -0.1231  0.6867
  129OSM    C1S13801   7.224   2.278   6.345  0.1209  0.4873 -0.3019
  129OSM    H1S13802   7.230   2.389   6.347  0.4871  0.4669  1.5161
  129OSM    H1T13803   7.323   2.247   6.307  1.4853  1.8059  1.9543
  129OSM     NF13804   7.292   2.323   6.582 -0.2081  0.4000 -0.5147
  129OSM    HNF13805   7.373   2.291   6.630 -1.4654  2.1795  3.2033
  129OSM    C2S13806   7.221   2.227   6.496  1.2426  0.1330 -0.2451
  129OSM    H2S13807   7.113   2.243   6.516  1.4743  1.6213 -0.0623
  129OSM    C3S13808   7.262   2.075   6.508 -0.7280  0.3865 -1.1139
  129OSM    H3S13809   7.369   2.073   6.479 -0.3701  1.8931  0.0005
  129OSM     O313810   7.192   1.997   6.413  0.2452  0.2316 -0.5214
  129OSM    HO313811   7.157   2.063   6.353 -0.2286 -0.0055 -0.5141
  129OSM    C4S13812   7.237   2.021   6.642  0.9439  0.7319 -0.5363
  129OSM    H4S13813   7.138   2.017   6.689  1.0279  0.5167 -0.3757
  129OSM    C5S13814   7.335   1.968   6.713 -0.1894 -0.1241  0.1068
  129OSM    H5S13815   7.434   1.970   6.666  0.3076 -0.9302  1.0548
  129OSM    C6S13816   7.320   1.900   6.847  0.2325  0.0311  0.1973
  129OSM    H6S13817   7.367   1.800   6.861  1.3727  0.7219  1.6191
  129OSM    H6T13818   7.217   1.862   6.860  0.6925 -1.0053  1.0104
  129OSM    C7S13819   7.370   1.982   6.962 -0.3545 -0.8868 -0.1161
  129OSM    H7S13820   7.316   2.079   6.968  0.3846 -0.4800  0.2931
  129OSM    H7T13821   7.476   2.012   6.947 -0.9425  0.3150 -2.2460
  129OSM    C8S13822   7.353   1.916   7.094  0.3317  0.1102 -1.2207
  129OSM    H8S13823   7.431   1.836   7.094 -1.9044 -2.1851 -1.6263
  129OSM    H8T13824   7.248   1.881   7.088  0.2817  0.1111 -0.4008
  129OSM    C9S13825   7.369   2.006   7.216 -0.4374 -0.1601  0.8932
  129OSM    H9S13826   7.293   2.084   7.195 -0.7149 -0.6346  0.0853
  129OSM    H9T13827   7.467   2.058   7.213  0.3244 -1.5700 -0.7127
  129OSM   C10S13828   7.346   1.935   7.348  0.6259  0.5268 -1.2207
  129OSM   H10S13829   7.412   1.846   7.351  0.9027  0.6587  2.8017
  129OSM   H10T13830   7.243   1.894   7.344  0.1224  1.2659  1.7740
  129OSM   C11S13831   7.356   2.017   7.479 -0.3709 -0.6081  0.4376
  129OSM   H11S13832   7.308   2.117   7.473 -0.7243 -0.8289 -0.6228
  129OSM   H11T13833   7.463   2.040   7.499  0.2857 -1.9625 -1.2888
  129OSM   C12S13834   7.308   1.945   7.603 -0.2794 -0.4635  0.7534
  129OSM   H12S13835   7.338   1.840   7.625 -1.1958 -0.8485  0.2206
  129OSM   H12T13836   7.197   1.950   7.598 -0.3012 -0.8921  0.7689
  129OSM   C13S13837   7.342   2.017   7.734 -0.1772 -0.0526 -0.1375
  129OSM   H13S13838   7.319   2.125   7.729 -1.2981 -0.2596  0.2390
  129OSM   H13T13839   7.450   2.012   7.758 -0.0417 -1.0657 -0.8985
  129OSM   C14S13840   7.261   1.952   7.840  0.1045 -1.1178 -0.4493
  129OSM   H14S13841   7.294   1.846   7.849  0.9456 -0.9380 -1.2133
  129OSM   H14T13842   7.152   1.954   7.822 -0.0330 -0.7418  0.4191
  129OSM   C15S13843   7.282   2.018   7.977 -1.0075  0.3601 -0.5772
  129OSM   H15S13844   7.250   2.124   7.975 -3.6480 -0.3169  0.6800
  129OSM   H15T13845   7.393   2.017   7.978 -0.9976 -1.1633  0.8586
  129OSM   C16S13846   7.230   1.936   8.093  0.5808 -0.2316 -0.3629
  129OSM   H16S13847   7.262   1.831   8.083 -1.1360 -0.7939 -0.3120
  129OSM   H16T13848   7.119   1.942   8.105  0.4681  0.0429 -1.4624
  129OSM   C17S13849   7.281   1.989   8.227 -1.1830  0.2680  0.5923
  129OSM   H17S13850   7.391   2.006   8.233 -1.3162  3.0335 -2.1800
  129OSM   H17T13851   7.266   1.919   8.311 -0.2329 -0.4737  0.1697
  129OSM   C18S13852   7.217   2.123   8.252  0.5604 -0.7901  0.0457
  129OSM   H18S13853   7.250   2.165   8.349  1.3664  3.9074 -2.0035
  129OSM   H18T13854   7.106   2.122   8.262  0.4986  0.5319 -0.3196
  129OSM   H18U13855   7.248   2.202   8.180  1.0563 -1.1951 -0.1881
  129OSM    C1F13856   7.272   2.458   6.601 -0.6992  0.0681  0.1269
  129OSM     OF13857   7.162   2.506   6.568 -0.8898  0.3742 -0.4356
  129OSM    C2F13858   7.383   2.553   6.647  0.6943  0.1100  0.9449
  129OSM    H2F13859   7.446   2.568   6.556 -0.9151  0.5549 -0.1572
  129OSM    H2G13860   7.446   2.523   6.733  0.1749  1.3742  1.7990
  129OSM    C3F13861   7.329   2.696   6.679 -0.1979  0.2915 -0.3402
  129OSM    H3F13862   7.229   2.701   6.726 -0.1968 -1.1224 -0.1335
  129OSM    H3G13863   7.320   2.747   6.580  1.0462  1.3223  0.0546
  129OSM    C4F13864   7.435   2.766   6.769  0.4501  0.2484  0.2148
  129OSM    H4F13865   7.536   2.724   6.749  0.3652 -0.1547  0.6000
  129OSM    H4G13866   7.405   2.743   6.874  2.5329 -0.7988  0.6329
  129OSM    C5F13867   7.428   2.916   6.753  0.0003 -0.5946  0.3214
  129OSM    H5F13868   7.322   2.947   6.741 -0.1905 -1.3600 -0.0407
  129OSM    H5G13869   7.470   2.937   6.652 -4.0568  2.7638 -0.9559
  129OSM    C6F13870   7.495   2.990   6.874  0.6742  0.6473 -0.2223
  129OSM    H6F13871   7.601   2.955   6.875  0.4133 -0.2423 -1.3018
  129OSM    H6G13872   7.451   2.972   6.974  0.0171  1.2275 -0.4018
  129OSM    C7F13873   7.494   3.141   6.849 -0.2430  0.9411 -0.1974
  129OSM    H7F13874   7.385   3.164   6.858 -0.5808 -0.6836  0.2855
  129OSM    H7G13875   7.530   3.160   6.746 -0.8766 -0.9673 -0.8137
  129OSM    C8F13876   7.594   3.221   6.942 -0.7911  0.0022 -0.6725
  129OSM    H8F13877   7.606   3.328   6.915  4.4161  0.1414  1.0886
  129OSM    H8G13878   7.693   3.177   6.917  0.0208 -0.3534  2.6684
  129OSM    C9F13879   7.584   3.191   7.092  0.7575  0.5038 -0.1721
  129OSM    H9F13880   7.584   3.085   7.119  1.1415  1.0562  2.1777
  129OSM   C10F13881   7.551   3.287   7.182  0.7916  0.1808 -0.2973
  129OSM   H10F13882   7.537   3.254   7.286  1.8080  0.3868 -0.0843
  129OSM   C11F13883   7.533   3.437   7.163 -0.0836  0.2929 -0.6855
  129OSM   H11F13884   7.545   3.471   7.057 -0.8417  0.3558 -0.7580
  129OSM   H11G13885   7.593   3.502   7.230 -0.0960 -1.3962  1.0244
  129OSM   C12F13886   7.385   3.462   7.190 -0.3695 -0.5764 -0.2657
  129OSM   H12F13887   7.317   3.402   7.126 -0.9223 -0.5352  0.2777
  129OSM   H12G13888   7.373   3.571   7.172 -1.0222 -0.5959  0.0345
  129OSM   C13F13889   7.344   3.439   7.336  0.2284  0.3978 -0.9272
  129OSM   H13F13890   7.419   3.479   7.407  1.0728 -1.1131 -0.9065
  129OSM   H13G13891   7.327   3.329   7.343 -3.3161  0.9104  0.1383
  129OSM   C14F13892   7.204   3.497   7.379 -0.8481 -0.3170 -0.1390
  129OSM   H14F13893   7.194   3.455   7.481  2.1923 -2.4624 -0.6067
  129OSM   H14G13894   7.121   3.468   7.311 -1.7227  1.4175  0.1345
  129OSM   C15F13895   7.199   3.650   7.383  0.0293 -0.4539  0.6776
  129OSM   H15F13896   7.094   3.689   7.383  0.4797  0.8347 -0.5361
  129OSM   H15G13897   7.247   3.691   7.292  1.8175  4.0158  3.2756
  129OSM   C16F13898   7.282   3.713   7.501  0.2419  0.5329  0.5970
  129OSM   H16F13899   7.268   3.821   7.482 -0.7885  0.0485 -1.7071
  129OSM   H16G13900   7.388   3.680   7.509 -0.3238 -1.1675  1.6367
  129OSM   C17F13901   7.206   3.693   7.637  0.2653 -0.5718 -0.2678
  129OSM   H17F13902   7.184   3.585   7.651 -2.7048 -0.2696 -1.6486
  129OSM   H17G13903   7.107   3.744   7.626  0.8703  0.5122 -0.9017
  129OSM   C18F13904   7.278   3.771   7.745 -0.2748  0.2812 -0.6549
  129OSM   H18F13905   7.301   3.877   7.724  4.0667  0.4173  3.0705
  129OSM   H18G13906   7.379   3.726   7.743  1.7454  4.3621 -0.7430
  129OSM   H18H13907   7.233   3.767   7.847 -0.0870  0.0234 -0.5795
  130OSM      N13908   6.525   6.210   6.157  0.8354  0.3196 -0.3423
  130OSM    C1513909   6.666   6.172   6.147 -0.0489 -0.0826  0.0914
  130OSM   H15A13910   6.680   6.100   6.068 -2.4009  1.1369 -1.5711
  130OSM   H15B13911   6.707   6.140   6.241  0.0687  0.1234  0.1104
  130OSM   H15C13912   6.719   6.260   6.112  0.5785 -0.5404 -0.1280
  130OSM    C1413913   6.486   6.288   6.034  0.3780  0.5048 -0.8072
  130OSM   H14A13914   6.539   6.381   6.040  0.0605  0.6066  1.0505
  130OSM   H14B13915   6.383   6.319   6.044  0.0463 -1.0068  1.1519
  130OSM   H14C13916   6.501   6.234   5.942 -2.5189  1.1274 -1.7356
  130OSM    C1313917   6.440   6.088   6.165  0.6756  0.3160  0.0264
  130OSM   H13A13918   6.450   6.024   6.079 -3.1712 -2.3439  1.2813
  130OSM   H13B13919   6.334   6.111   6.166  0.9419  2.2563  4.0354
  130OSM   H13C13920   6.474   6.027   6.247 -1.1245 -1.1070 -0.2273
  130OSM    C1213921   6.493   6.301   6.280 -0.4524  0.2792  0.3438
  130OSM   H12A13922   6.557   6.388   6.277 -2.3677  1.8920  2.4478
  130OSM   H12B13923   6.521   6.258   6.375  1.2562  0.4072 -0.0761
  130OSM    C1113924   6.352   6.366   6.291  0.5498  0.9527  0.4927
  130OSM   H11A13925   6.359   6.392   6.398  3.9562  0.2415  0.5475
  130OSM   H11B13926   6.264   6.300   6.279  0.0163  1.5055  1.3125
  130OSM      P13927   6.391   6.623   6.245  0.0743 -0.0101 -0.2642
  130OSM    O1313928   6.521   6.601   6.310  0.8900  0.5493 -0.2493
  130OSM    O1413929   6.381   6.713   6.128  0.1298 -0.0016 -0.0661
  130OSM    O1113930   6.299   6.659   6.370  0.3819  0.4099  0.1558
  130OSM    O1213931   6.338   6.481   6.202 -0.5168  0.2520  0.1875
  130OSM    C1S13932   6.242   6.789   6.391 -0.0119 -0.2407 -0.2764
  130OSM    H1S13933   6.142   6.792   6.344 -0.1681 -0.7712  0.0160
  130OSM    H1T13934   6.312   6.865   6.351  0.5103 -1.5960 -2.0520
  130OSM     NF13935   6.143   6.925   6.574  0.2734  0.0390  0.6291
  130OSM    HNF13936   6.204   7.000   6.599  2.1617 -0.8056 -1.0873
  130OSM    C2S13937   6.208   6.801   6.543 -0.5029  0.2302  0.4151
  130OSM    H2S13938   6.139   6.716   6.561 -1.2327  0.5856 -0.6113
  130OSM    C3S13939   6.334   6.766   6.626  0.1595  0.5701 -0.0580
  130OSM    H3S13940   6.424   6.826   6.599  1.7072 -0.5096  2.3400
  130OSM     O313941   6.381   6.634   6.610 -0.9372  0.2802  0.5733
  130OSM    HO313942   6.343   6.615   6.523 -1.2381  1.8287  0.3426
  130OSM    C4S13943   6.304   6.800   6.772  0.4766  0.7093  0.0830
  130OSM    H4S13944   6.340   6.899   6.801  0.3257  0.5965  0.6717
  130OSM    C5S13945   6.260   6.710   6.865  0.5692 -0.0974  0.2869
  130OSM    H5S13946   6.248   6.603   6.845 -0.1170 -0.9899  4.5216
  130OSM    C6S13947   6.250   6.747   7.007  0.3646 -0.8525 -0.3056
  130OSM    H6S13948   6.279   6.664   7.076 -0.7686  0.0688  1.3585
  130OSM    H6T13949   6.147   6.780   7.033  0.8009  1.2034 -0.9817
  130OSM    C7S13950   6.344   6.868   7.048  1.0410  0.1945  0.5029
  130OSM    H7S13951   6.289   6.961   7.024  2.8099  1.8237  2.4134
  130OSM    H7T13952   6.443   6.854   6.999 -1.0773 -1.5025 -3.8456
  130OSM    C8S13953   6.365   6.858   7.199  0.6952  0.1993  0.3794
  130OSM    H8S13954   6.272   6.859   7.259 -0.3338 -2.6262 -1.0145
  130OSM    H8T13955   6.405   6.958   7.226 -0.3928  1.1929 -1.4733
  130OSM    C9S13956   6.457   6.742   7.250 -0.3368 -0.3992 -0.1094
  130OSM    H9S13957   6.558   6.773   7.215 -0.9370 -0.6619 -2.2107
  130OSM    H9T13958   6.451   6.640   7.206 -0.2449 -0.6442  0.4447
  130OSM   C10S13959   6.445   6.730   7.399  0.2231 -0.1548  0.6023
  130OSM   H10S13960   6.442   6.837   7.428  2.7077  0.2292 -0.3918
  130OSM   H10T13961   6.542   6.691   7.438  0.0308  1.0160  2.4003
  130OSM   C11S13962   6.318   6.660   7.442  0.2469  0.2849 -0.2634
  130OSM   H11S13963   6.341   6.555   7.417 -0.2933 -0.1380  0.9544
  130OSM   H11T13964   6.230   6.686   7.379 -1.6567  0.0363  2.1319
  130OSM   C12S13965   6.278   6.689   7.580  0.0898  0.3119 -0.2863
  130OSM   H12S13966   6.172   6.661   7.597 -0.1223  0.3366 -1.4984
  130OSM   H12T13967   6.264   6.797   7.605 -2.3444  0.0093 -0.1370
  130OSM   C13S13968   6.373   6.629   7.689 -0.2212  0.0714  0.0322
  130OSM   H13S13969   6.476   6.667   7.671  0.2527 -1.7111 -1.2524
  130OSM   H13T13970   6.376   6.518   7.683  2.6013  0.0937 -0.5378
  130OSM   C14S13971   6.326   6.665   7.830  0.2087 -0.2342 -0.2788
  130OSM   H14S13972   6.222   6.628   7.845 -0.5908  1.4188 -1.4053
  130OSM   H14T13973   6.325   6.777   7.833  2.9029  0.2718 -5.7287
  130OSM   C15S13974   6.421   6.599   7.936 -0.5114 -0.2075  0.0637
  130OSM   H15S13975   6.526   6.632   7.919 -1.6384  2.9810 -1.4982
  130OSM   H15T13976   6.430   6.490   7.918 -1.0231 -0.3383  0.5714
  130OSM   C16S13977   6.375   6.633   8.083 -0.5329  0.7954 -0.0638
  130OSM   H16S13978   6.265   6.614   8.087 -0.5537  1.0089  0.5969
  130OSM   H16T13979   6.405   6.736   8.111 -0.7707  1.0926 -0.8692
  130OSM   C17S13980   6.441   6.533   8.186  0.5676 -0.7742  0.1613
  130OSM   H17S13981   6.550   6.545   8.169  0.3354  0.2895 -0.6414
  130OSM   H17T13982   6.407   6.436   8.143  1.1913 -0.9161 -0.0187
  130OSM   C18S13983   6.405   6.564   8.335 -0.6559 -0.1913  0.2360
  130OSM   H18S13984   6.467   6.501   8.402 -0.8861  0.3526  0.9808
  130OSM   H18T13985   6.300   6.532   8.351 -0.2024 -1.1342  1.4530
  130OSM   H18U13986   6.405   6.673   8.359  0.4261 -0.5018  1.7972
  130OSM    C1F13987   6.020   6.948   6.537 -0.0315 -0.0263 -0.5905
  130OSM     OF13988   5.945   6.867   6.486  0.4717 -0.2414 -0.0893
  130OSM    C2F13989   5.974   7.085   6.568  0.5981 -0.5253 -0.0630
  130OSM    H2F13990   5.921   7.121   6.478  2.2847 -0.2805 -0.9899
  130OSM    H2G13991   6.064   7.147   6.586  0.6416 -0.7536  0.5406
  130OSM    C3F13992   5.867   7.109   6.680  0.0005  0.0312 -0.2839
  130OSM    H3F13993   5.779   7.045   6.657  0.7839 -1.3503  0.4238
  130OSM    H3G13994   5.839   7.214   6.657 -0.8014 -0.1088  0.0497
  130OSM    C4F13995   5.928   7.095   6.821 -0.9559 -0.9094  0.3682
  130OSM    H4F13996   6.024   7.039   6.818 -0.3372  0.1176  0.7690
  130OSM    H4G13997   5.867   7.035   6.892 -0.0487 -0.8128  1.2556
  130OSM    C5F13998   5.961   7.234   6.888 -0.3866 -0.8363 -0.4842
  130OSM    H5F13999   5.868   7.272   6.935  0.5083 -0.9503  1.4701
  130OSM    H5G14000   6.003   7.309   6.817  3.9350 -1.3895  1.1659
  130OSM    C6F14001   6.067   7.231   6.999  0.0520 -0.2649 -0.2689
  130OSM    H6F14002   6.113   7.332   7.000  2.3318 -1.2276 -0.8185
  130OSM    H6G14003   6.146   7.159   6.968  0.5269 -0.8576  2.1158
  130OSM    C7F14004   6.022   7.180   7.136  0.2072  0.6611 -0.2793
  130OSM    H7F14005   5.982   7.077   7.127  1.1120  0.2984 -0.3095
  130OSM    H7G14006   5.939   7.247   7.168 -1.8869 -2.0962  0.4191
  130OSM    C8F14007   6.134   7.198   7.250 -0.4815  0.1578  0.7887
  130OSM    H8F14008   6.170   7.302   7.237 -0.6758  0.2698  1.1348
  130OSM    H8G14009   6.224   7.137   7.225 -0.5840 -0.9165  2.8281
  130OSM    C9F14010   6.100   7.167   7.393 -0.2564  0.0739 -0.0403
  130OSM    H9F14011   6.048   7.073   7.417 -1.7190  1.1901  1.3967
  130OSM   C10F14012   6.119   7.251   7.499  0.2403  0.2427 -0.1288
  130OSM   H10F14013   6.098   7.217   7.601 -1.1018 -0.0135 -0.4698
  130OSM   C11F14014   6.184   7.390   7.501 -0.5488 -0.1087 -0.4298
  130OSM   H11F14015   6.206   7.415   7.395 -0.1027  0.7212 -0.1496
  130OSM   H11G14016   6.268   7.387   7.573 -0.6662 -2.3486 -0.3261
  130OSM   C12F14017   6.093   7.494   7.551  0.1715 -0.4920  0.4282
  130OSM   H12F14018   5.996   7.491   7.496 -0.1188 -2.6348  0.9847
  130OSM   H12G14019   6.139   7.594   7.537  0.2628 -0.3113  1.8261
  130OSM   C13F14020   6.067   7.476   7.706 -0.0989 -0.5512 -0.4101
  130OSM   H13F14021   6.163   7.468   7.760  0.6264  1.7394 -1.2513
  130OSM   H13G14022   6.022   7.377   7.730  0.2631 -0.3869  1.0310
  130OSM   C14F14023   5.972   7.592   7.759  0.2159  0.6442 -0.3855
  130OSM   H14F14024   5.867   7.582   7.725 -0.2504 -0.4838  1.2638
  130OSM   H14G14025   6.018   7.693   7.748 -1.7123  1.7716  1.2156
  130OSM   C15F14026   5.947   7.570   7.909 -0.1293 -1.5705  0.3319
  130OSM   H15F14027   5.886   7.657   7.942  1.5065  0.2529 -1.2272
  130OSM   H15G14028   6.044   7.573   7.963 -1.1903  2.2233  2.3981
  130OSM   C16F14029   5.891   7.437   7.960  0.2892 -0.1894 -0.7253
  130OSM   H16F14030   5.809   7.398   7.895 -0.4420  1.8508 -1.0918
  130OSM   H16G14031   5.830   7.464   8.049 -0.6967  1.0938 -1.7573
  130OSM   C17F14032   5.990   7.326   8.002 -0.9109  0.2221 -0.4092
  130OSM   H17F14033   6.072   7.370   8.062  0.3098 -3.5854  0.9362
  130OSM   H17G14034   6.040   7.290   7.909  3.1388  2.2313  0.7833
  130OSM   C18F14035   5.929   7.210   8.084 -0.2791  0.0002 -0.3732
  130OSM   H18F14036   5.832   7.178   8.040  0.9432 -1.6191 -2.0572
  130OSM   H18G14037   5.902   7.243   8.186 -0.8237 -2.8966  0.5082
  130OSM   H18H14038   5.997   7.124   8.101  0.1956  0.7271  1.7525
  131OSM      N14039   0.569   4.881   6.214 -0.1895 -0.4694 -0.0095
  131OSM    C1514040   0.451   4.793   6.240 -0.0600 -0.0299 -0.1974
  131OSM   H15A14041   0.460   4.729   6.326 -2.9784 -2.4789 -1.5319
  131OSM   H15B14042   0.429   4.723   6.161 -2.2345  2.1500 -1.6692
  131OSM   H15C14043   0.361   4.852   6.251 -1.3002 -1.9979  0.6318
  131OSM    C1414044   0.696   4.799   6.216 -0.6519 -0.8090 -0.1238
  131OSM   H14A14045   0.720   4.752   6.310  1.8102 -0.1335 -0.3409
  131OSM   H14B14046   0.780   4.862   6.190  0.2605 -1.9070  0.0619
  131OSM   H14C14047   0.704   4.728   6.135  1.1856  1.3879 -2.0387
  131OSM    C1314048   0.566   4.954   6.088 -0.8104 -0.0688  0.0978
  131OSM   H13A14049   0.474   5.010   6.077 -2.4123 -2.1658  1.8786
  131OSM   H13B14050   0.578   4.896   5.998 -2.5317  1.6960 -1.3661
  131OSM   H13C14051   0.651   5.021   6.090 -1.4846  0.8428  2.7998
  131OSM    C1214052   0.563   4.977   6.332  0.2575 -0.4821  0.2102
  131OSM   H12A14053   0.563   4.914   6.420 -0.9533 -1.3043 -0.3546
  131OSM   H12B14054   0.468   5.027   6.329  0.0787 -0.8172  0.2470
  131OSM    C1114055   0.678   5.078   6.351  1.1971 -0.4329  0.1550
  131OSM   H11A14056   0.768   5.020   6.380  2.8924  1.9998  0.1138
  131OSM   H11B14057   0.666   5.137   6.444 -0.2491  0.3979 -0.5318
  131OSM      P14058   0.849   5.222   6.223 -0.6149 -0.1573 -0.0138
  131OSM    O1314059   0.930   5.116   6.155 -0.3056 -0.6617  0.6720
  131OSM    O1414060   0.836   5.349   6.156 -0.4517 -0.1257  0.0284
  131OSM    O1114061   0.890   5.236   6.379 -0.3023  0.0610 -0.4732
  131OSM    O1214062   0.701   5.162   6.236  0.1499 -0.2161 -0.2952
  131OSM    C1S14063   1.022   5.270   6.405 -0.2545  0.1903 -0.6021
  131OSM    H1S14064   1.037   5.380   6.402 -2.9278  0.6041 -2.3131
  131OSM    H1T14065   1.103   5.219   6.349 -0.6105  0.7541 -1.6591
  131OSM     NF14066   1.138   5.319   6.632 -0.1982 -0.2585 -0.1857
  131OSM    HNF14067   1.232   5.287   6.646  0.3006  0.3142 -1.9270
  131OSM    C2S14068   1.044   5.229   6.559  0.0419  0.4486 -0.1575
  131OSM    H2S14069   0.946   5.234   6.610  0.1514  0.4066  0.0601
  131OSM    C3S14070   1.086   5.078   6.561 -0.6642  0.2534  1.0648
  131OSM    H3S14071   1.177   5.061   6.499  1.0566  0.8685  3.2991
  131OSM     O314072   0.999   4.988   6.494 -0.4923 -0.5693  0.5565
  131OSM    HO314073   0.941   5.040   6.438  0.6816 -1.0586 -1.1790
  131OSM    C4S14074   1.116   5.035   6.709 -0.1122 -0.7266  0.7100
  131OSM    H4S14075   1.223   5.036   6.734 -0.5580  0.6252  2.7944
  131OSM    C5S14076   1.038   4.976   6.802  0.5041 -0.6559  0.0366
  131OSM    H5S14077   0.938   4.936   6.776 -0.0461  0.8246 -0.2444
  131OSM    C6S14078   1.072   4.928   6.938 -0.4117 -0.4867 -0.3240
  131OSM    H6S14079   1.177   4.893   6.950 -0.1397 -0.6580 -2.7600
  131OSM    H6T14080   1.009   4.836   6.943 -0.3422 -0.7740 -3.2607
  131OSM    C7S14081   1.038   5.031   7.050 -0.7337 -0.3112  0.4777
  131OSM    H7S14082   0.931   5.056   7.033 -1.2443 -3.3440 -1.4255
  131OSM    H7T14083   1.099   5.123   7.040  1.3779 -1.7011 -0.0155
  131OSM    C8S14084   1.048   4.978   7.187  0.2950  0.6457  0.2039
  131OSM    H8S14085   0.992   4.884   7.206  0.4473  0.0815 -1.9148
  131OSM    H8T14086   1.022   5.064   7.252  0.6753  0.6174  0.3955
  131OSM    C9S14087   1.195   4.937   7.221  0.2849 -0.4679  1.0862
  131OSM    H9S14088   1.271   4.990   7.159  2.1844 -1.7914  2.1669
  131OSM    H9T14089   1.211   4.833   7.186 -1.1406 -0.2214 -0.3742
  131OSM   C10S14090   1.228   4.949   7.376  0.0011 -0.1619  0.2180
  131OSM   H10S14091   1.309   4.876   7.395 -0.2905 -0.4335  0.4298
  131OSM   H10T14092   1.147   4.913   7.443  0.3808  1.0469  1.3616
  131OSM   C11S14093   1.276   5.089   7.435  1.0401  0.0265 -0.3571
  131OSM   H11S14094   1.190   5.157   7.451 -0.7659 -2.4750  1.5793
  131OSM   H11T14095   1.349   5.132   7.362  1.9851  0.6731  0.9228
  131OSM   C12S14096   1.344   5.073   7.562 -0.2596  0.1513 -0.2053
  131OSM   H12S14097   1.439   5.017   7.544 -1.6710 -2.8552  0.9331
  131OSM   H12T14098   1.294   5.012   7.641 -1.7122 -0.3759 -1.4795
  131OSM   C13S14099   1.356   5.204   7.630  0.0714 -0.0950 -0.0273
  131OSM   H13S14100   1.257   5.251   7.646 -0.9106 -0.8784 -3.0353
  131OSM   H13T14101   1.416   5.282   7.578 -0.1286  0.2991  0.3299
  131OSM   C14S14102   1.437   5.189   7.761 -0.0979  0.7233 -0.5077
  131OSM   H14S14103   1.519   5.115   7.747  0.8217  1.4020  1.0331
  131OSM   H14T14104   1.366   5.146   7.835  0.5772 -0.5769 -0.5907
  131OSM   C15S14105   1.500   5.315   7.816 -0.2985 -0.1227 -0.1391
  131OSM   H15S14106   1.416   5.383   7.841  0.5536  0.6097  0.8393
  131OSM   H15T14107   1.567   5.354   7.736 -0.0308 -0.3255 -0.0132
  131OSM   C16S14108   1.584   5.301   7.945 -0.4555 -0.0004  0.3081
  131OSM   H16S14109   1.669   5.368   7.921  0.7784 -1.8716 -0.8191
  131OSM   H16T14110   1.625   5.198   7.934  1.0862  0.7574 -1.4006
  131OSM   C17S14111   1.516   5.351   8.068  0.1144 -0.1892 -0.4530
  131OSM   H17S14112   1.427   5.285   8.074 -0.1764  0.1846 -0.5894
  131OSM   H17T14113   1.473   5.453   8.054 -1.6273  0.0495  4.4760
  131OSM   C18S14114   1.606   5.360   8.192  0.0415  0.2326  0.1594
  131OSM   H18S14115   1.664   5.265   8.198 -0.2359  0.1040  0.9244
  131OSM   H18T14116   1.552   5.380   8.287  0.7478  0.6266  0.4863
  131OSM   H18U14117   1.687   5.435   8.180 -0.8320  1.0211 -0.9078
  131OSM    C1F14118   1.106   5.444   6.670  0.2816 -0.0122 -0.2078
  131OSM     OF14119   0.988   5.483   6.670  0.4228 -0.2540  0.1687
  131OSM    C2F14120   1.226   5.528   6.699  0.9236  0.1117  0.7103
  131OSM    H2F14121   1.225   5.626   6.646  2.1959 -0.2666 -0.0677
  131OSM    H2G14122   1.317   5.472   6.668  0.1572 -1.0431  0.4774
  131OSM    C3F14123   1.243   5.559   6.845 -0.1701  0.1884  0.5367
  131OSM    H3F14124   1.151   5.538   6.903 -0.1072  1.8679  1.3052
  131OSM    H3G14125   1.261   5.669   6.846 -0.3266  0.2390 -0.4579
  131OSM    C4F14126   1.361   5.492   6.922 -0.1176 -0.2925 -0.0328
  131OSM    H4F14127   1.455   5.522   6.870 -0.6805  0.9586 -0.3683
  131OSM    H4G14128   1.356   5.382   6.908 -0.7245 -0.0530 -1.9748
  131OSM    C5F14129   1.353   5.529   7.071 -0.0275  0.2212  0.8910
  131OSM    H5F14130   1.259   5.491   7.114 -0.2629  0.6866  0.7904
  131OSM    H5G14131   1.369   5.637   7.092  1.2219  0.4835 -1.0465
  131OSM    C6F14132   1.479   5.457   7.137  0.1032  0.0024 -0.0709
  131OSM    H6F14133   1.563   5.506   7.083  0.0064 -1.4314 -1.6135
  131OSM    H6G14134   1.478   5.355   7.093  2.8611  0.3275 -1.0910
  131OSM    C7F14135   1.486   5.466   7.296 -0.0704 -0.4427 -0.1660
  131OSM    H7F14136   1.572   5.413   7.342  2.1104  3.7732  1.2236
  131OSM    H7G14137   1.394   5.420   7.337  0.4462 -0.6656  0.7466
  131OSM    C8F14138   1.515   5.602   7.366 -0.2615 -0.2188 -0.2122
  131OSM    H8F14139   1.430   5.673   7.352 -1.6876 -1.1758  2.6714
  131OSM    H8G14140   1.610   5.635   7.321 -0.5240 -0.4798 -0.9710
  131OSM    C9F14141   1.534   5.599   7.513  0.1208 -0.6833  0.2396
  131OSM    H9F14142   1.441   5.612   7.571  0.2236  0.0133  0.2663
  131OSM   C10F14143   1.654   5.598   7.584  0.4537 -0.1271  0.2996
  131OSM   H10F14144   1.654   5.583   7.693  0.4729  1.4938  0.5427
  131OSM   C11F14145   1.793   5.595   7.520 -0.2491 -0.3130  0.3025
  131OSM   H11F14146   1.799   5.634   7.416 -1.0486  0.5689  0.5709
  131OSM   H11G14147   1.838   5.494   7.532  1.5863  0.5817  1.3566
  131OSM   C12F14148   1.907   5.668   7.600 -0.4051  0.1961  0.3594
  131OSM   H12F14149   1.873   5.772   7.615  0.5286  0.7857 -1.3373
  131OSM   H12G14150   2.000   5.661   7.539 -1.9264 -0.5442 -2.0076
  131OSM   C13F14151   1.939   5.616   7.745 -0.2344  0.0704  0.1963
  131OSM   H13F14152   1.985   5.515   7.748 -0.3755  0.0104  0.4892
  131OSM   H13G14153   1.844   5.614   7.804 -1.0497 -0.5607 -1.0828
  131OSM   C14F14154   2.045   5.702   7.817  0.5857  0.0886  0.1031
  131OSM   H14F14155   2.122   5.742   7.747 -0.5493  0.1645 -1.1425
  131OSM   H14G14156   2.105   5.630   7.877  0.6315 -1.2778 -1.5205
  131OSM   C15F14157   1.982   5.813   7.886 -0.2412  0.1666  0.5479
  131OSM   H15F14158   1.875   5.784   7.898 -0.0779 -0.4159  0.6282
  131OSM   H15G14159   1.978   5.905   7.824 -1.6697  1.3064  2.2053
  131OSM   C16F14160   2.044   5.847   8.020  0.8469  0.0897  0.7909
  131OSM   H16F14161   2.153   5.849   7.998  0.6744 -2.3478 -0.6389
  131OSM   H16G14162   2.029   5.765   8.094  0.9706  0.8550  1.6920
  131OSM   C17F14163   1.995   5.976   8.074  0.0424 -0.2715  0.3217
  131OSM   H17F14164   1.894   5.951   8.114 -1.0577  2.2773 -0.6391
  131OSM   H17G14165   1.998   6.044   7.987 -0.9162 -1.9627 -1.0981
  131OSM   C18F14166   2.076   6.012   8.197  0.6420 -0.0455  0.4129
  131OSM   H18F14167   2.022   6.083   8.264  1.2409 -0.3409  1.2266
  131OSM   H18G14168   2.180   6.040   8.169  0.6376  1.7875  1.9658
  131OSM   H18H14169   2.084   5.922   8.262  0.5962  0.2678  0.8622
  132OSM      N14170   2.830   1.742   6.412 -0.3073  0.4227 -0.4652
  132OSM    C1514171   2.813   1.667   6.279 -0.2499  0.2108 -0.4795
  132OSM   H15A14172   2.788   1.563   6.291 -0.1377 -0.1222 -2.7648
  132OSM   H15B14173   2.907   1.669   6.226  0.5662 -1.2363  0.8204
  132OSM   H15C14174   2.734   1.712   6.221 -1.3190 -1.2017 -0.1691
  132OSM    C1414175   2.698   1.741   6.483  0.4278  0.6646  0.2236
  132OSM   H14A14176   2.615   1.775   6.422 -1.9992 -1.4176  2.0994
  132OSM   H14B14177   2.693   1.813   6.563 -0.1675  0.8553  0.0219
  132OSM   H14C14178   2.677   1.645   6.527  0.0713 -0.3282 -1.9825
  132OSM    C1314179   2.938   1.678   6.493 -0.0646  0.1403  0.6919
  132OSM   H13A14180   2.961   1.738   6.580 -0.7808  2.7615 -0.8095
  132OSM   H13B14181   3.024   1.660   6.430 -1.3804 -1.2247 -0.8230
  132OSM   H13C14182   2.906   1.576   6.512  1.1085  0.0132  2.0979
  132OSM    C1214183   2.864   1.883   6.372 -0.5874 -0.5105 -0.4290
  132OSM   H12A14184   2.858   1.953   6.454 -0.4940  0.7433 -1.4670
  132OSM   H12B14185   2.794   1.912   6.295 -2.6617 -3.4118  0.1664
  132OSM    C1114186   3.000   1.908   6.296 -0.0421 -0.2684  0.8804
  132OSM   H11A14187   3.032   1.812   6.251 -1.6425  0.1907 -1.4069
  132OSM   H11B14188   3.076   1.949   6.365 -0.6040  0.3545  1.1366
  132OSM      P14189   2.926   2.142   6.205  0.0120  0.1270  0.0772
  132OSM    O1314190   2.971   2.216   6.084  0.1200  0.1278 -0.3040
  132OSM    O1414191   2.781   2.143   6.228  0.0751 -0.1818  0.2578
  132OSM    O1114192   2.989   2.217   6.335  0.3266  0.4250  0.1406
  132OSM    O1214193   2.980   1.997   6.193 -0.1900 -0.2581 -0.1969
  132OSM    C1S14194   3.131   2.234   6.350 -0.2713  0.1937  0.3467
  132OSM    H1S14195   3.165   2.315   6.282 -1.6900 -0.5324 -1.3158
  132OSM    H1T14196   3.186   2.141   6.324 -1.7284 -1.0516  1.5365
  132OSM     NF14197   3.305   2.283   6.525  0.0987 -0.2102 -0.2455
  132OSM    HNF14198   3.361   2.211   6.565 -0.8182  0.0659  1.6518
  132OSM    C2S14199   3.166   2.250   6.499  0.0925 -0.7547  0.5218
  132OSM    H2S14200   3.112   2.342   6.529 -0.5606 -1.1922  0.7180
  132OSM    C3S14201   3.109   2.140   6.597 -0.0999 -0.2773  0.1039
  132OSM    H3S14202   3.164   2.049   6.565 -0.4903 -0.4128 -0.1910
  132OSM     O314203   2.971   2.118   6.591 -0.3502  0.4425 -0.1340
  132OSM    HO314204   2.948   2.172   6.515 -0.0462  1.2761  0.3525
  132OSM    C4S14205   3.139   2.184   6.741 -0.2540 -0.1138  0.4707
  132OSM    H4S14206   3.218   2.127   6.791  0.5541  1.0360  0.5423
  132OSM    C5S14207   3.093   2.298   6.798 -0.0542 -0.3796  0.7572
  132OSM    H5S14208   3.046   2.377   6.737 -0.0308  0.0281  1.2516
  132OSM    C6S14209   3.138   2.356   6.936 -1.0048  0.4552  0.0505
  132OSM    H6S14210   3.179   2.460   6.931 -1.3470  0.5386 -1.3581
  132OSM    H6T14211   3.216   2.292   6.983  2.2409  3.1729 -1.1955
  132OSM    C7S14212   3.011   2.359   7.014  0.5211 -0.5143  0.0319
  132OSM    H7S14213   2.976   2.254   7.014 -0.5702 -0.1695  0.6403
  132OSM    H7T14214   2.932   2.422   6.967 -0.6299 -1.4376  0.6902
  132OSM    C8S14215   3.014   2.402   7.164 -0.0849  0.2894 -0.8533
  132OSM    H8S14216   3.101   2.353   7.211 -0.7526 -0.4641 -0.3793
  132OSM    H8T14217   2.926   2.375   7.226 -1.0559 -1.1688 -2.7530
  132OSM    C9S14218   3.037   2.560   7.185  0.6056 -0.1299 -0.7659
  132OSM    H9S14219   2.952   2.618   7.144  0.0497  0.2069  0.7988
  132OSM    H9T14220   3.128   2.574   7.122  3.2464  1.0707  2.9915
  132OSM   C10S14221   3.053   2.596   7.335  0.2282  0.3778  0.7854
  132OSM   H10S14222   2.955   2.591   7.387  1.1275 -1.8475  2.4448
  132OSM   H10T14223   3.080   2.703   7.347  0.3757  0.3983  0.3033
  132OSM   C11S14224   3.157   2.518   7.416  0.0562  0.3179 -0.5504
  132OSM   H11S14225   3.259   2.540   7.377 -0.5101  0.0976 -2.2531
  132OSM   H11T14226   3.131   2.411   7.404 -0.6709  0.2915  1.0548
  132OSM   C12S14227   3.147   2.557   7.566 -0.2990  0.0048 -0.8546
  132OSM   H12S14228   3.153   2.667   7.579 -0.2427 -0.2421  1.6540
  132OSM   H12T14229   3.231   2.502   7.613 -0.6681  0.8591  0.8776
  132OSM   C13S14230   3.021   2.499   7.638 -0.0029  0.2792 -0.3768
  132OSM   H13S14231   3.005   2.394   7.606  1.4058  0.0181 -0.2698
  132OSM   H13T14232   2.929   2.560   7.622  0.0598  0.9254  1.4455
  132OSM   C14S14233   3.030   2.501   7.795 -0.1045  0.2455 -0.0368
  132OSM   H14S14234   3.030   2.609   7.822 -1.0188 -0.1065  1.4263
  132OSM   H14T14235   3.127   2.449   7.814 -1.0129 -2.6222 -2.5250
  132OSM   C15S14236   2.911   2.444   7.872  0.1855  0.1151 -0.4086
  132OSM   H15S14237   2.914   2.334   7.865 -0.3246  0.1295 -0.9573
  132OSM   H15T14238   2.808   2.465   7.836 -0.7807 -0.8077  1.6461
  132OSM   C16S14239   2.914   2.487   8.016 -0.9154  0.1060  0.0831
  132OSM   H16S14240   3.009   2.433   8.036 -1.6715 -1.8740 -1.2782
  132OSM   H16T14241   2.839   2.430   8.074  2.6140 -2.4444  2.5439
  132OSM   C17S14242   2.889   2.633   8.044  0.7908  0.1591 -0.0032
  132OSM   H17S14243   2.801   2.665   7.984 -1.0284 -0.0425  2.4067
  132OSM   H17T14244   2.971   2.701   8.010 -0.5914  0.5120 -2.9473
  132OSM   C18S14245   2.841   2.657   8.186 -0.2283  0.1929 -0.2684
  132OSM   H18S14246   2.804   2.761   8.201 -1.7555 -0.5964  2.0201
  132OSM   H18T14247   2.908   2.616   8.265  0.3430 -1.8797 -1.7517
  132OSM   H18U14248   2.745   2.603   8.197  0.2770 -0.5836  0.5023
  132OSM    C1F14249   3.369   2.388   6.473 -0.5980  0.5242 -0.3524
  132OSM     OF14250   3.316   2.483   6.429 -0.1690 -0.0427 -0.3790
  132OSM    C2F14251   3.520   2.359   6.453  0.2750  0.3957 -0.2043
  132OSM    H2F14252   3.548   2.379   6.347  0.7487 -0.5211 -0.2559
  132OSM    H2G14253   3.553   2.253   6.462 -2.3492 -0.3835  1.0440
  132OSM    C3F14254   3.602   2.440   6.563 -0.8996  0.2362  0.1712
  132OSM    H3F14255   3.560   2.543   6.569 -2.6994 -0.5035  1.2105
  132OSM    H3G14256   3.705   2.452   6.525 -0.4041 -1.5158  0.8440
  132OSM    C4F14257   3.600   2.379   6.708 -0.0068 -0.6460  0.2497
  132OSM    H4F14258   3.616   2.271   6.690 -1.7768 -1.0068  0.6700
  132OSM    H4G14259   3.499   2.398   6.752 -0.4864 -3.9028  0.8363
  132OSM    C5F14260   3.703   2.448   6.803  0.6171  0.2555 -0.5654
  132OSM    H5F14261   3.752   2.531   6.748  0.3358  1.9511  1.6267
  132OSM    H5G14262   3.788   2.383   6.831 -0.6649 -0.5719  1.6387
  132OSM    C6F14263   3.621   2.493   6.932  0.3975  0.1184  0.3209
  132OSM    H6F14264   3.539   2.556   6.892 -1.7643 -1.3660  2.1455
  132OSM    H6G14265   3.687   2.562   6.988  0.6290 -0.6078  0.9706
  132OSM    C7F14266   3.566   2.381   7.030  1.0891  0.7368 -0.6145
  132OSM    H7F14267   3.653   2.339   7.084  0.4520  1.5163  1.0935
  132OSM    H7G14268   3.514   2.307   6.966  1.4847  0.0193 -0.1186
  132OSM    C8F14269   3.476   2.443   7.141 -0.1672 -0.8815  0.1225
  132OSM    H8F14270   3.413   2.516   7.085  1.0486  0.9838  1.0736
  132OSM    H8G14271   3.538   2.499   7.214 -2.1346 -1.1966  2.1651
  132OSM    C9F14272   3.393   2.344   7.216 -0.1393  0.9137 -0.0316
  132OSM    H9F14273   3.290   2.349   7.180 -0.3474 -1.1677  0.1346
  132OSM   C10F14274   3.431   2.260   7.317  0.3137 -1.2383 -0.3602
  132OSM   H10F14275   3.351   2.192   7.351 -2.0658 -0.3324 -3.6922
  132OSM   C11F14276   3.563   2.251   7.378 -0.2504 -0.1734 -0.3342
  132OSM   H11F14277   3.636   2.320   7.331  1.8371 -1.1573  1.3135
  132OSM   H11G14278   3.609   2.156   7.345  3.0499  1.2463 -0.2371
  132OSM   C12F14279   3.576   2.254   7.534 -0.7581  0.2852  0.1757
  132OSM   H12F14280   3.683   2.248   7.564 -1.2239 -2.2444  1.7052
  132OSM   H12G14281   3.536   2.161   7.580 -0.6274 -0.4383 -1.1445
  132OSM   C13F14282   3.507   2.366   7.601  0.4949 -0.3720 -0.2425
  132OSM   H13F14283   3.397   2.352   7.601  0.2975  0.7412 -2.2709
  132OSM   H13G14284   3.535   2.457   7.544  4.0712 -1.1433 -0.0126
  132OSM   C14F14285   3.552   2.390   7.741  0.1822  0.9805 -0.6221
  132OSM   H14F14286   3.536   2.492   7.782 -0.2939 -0.0082  1.8520
  132OSM   H14G14287   3.660   2.367   7.754 -0.4696 -2.3695 -0.3527
  132OSM   C15F14288   3.471   2.294   7.834 -0.0810  0.4431 -0.3783
  132OSM   H15F14289   3.504   2.193   7.802  1.5389  0.0261  2.3216
  132OSM   H15G14290   3.362   2.299   7.813 -0.1197  2.9530  0.1260
  132OSM   C16F14291   3.510   2.308   7.980  0.2616  0.1075 -0.4785
  132OSM   H16F14292   3.506   2.413   8.015  1.8123  0.8275 -2.2303
  132OSM   H16G14293   3.607   2.257   8.002 -0.6892 -1.5221  0.0521
  132OSM   C17F14294   3.401   2.227   8.059  1.2059  0.2822  0.2192
  132OSM   H17F14295   3.392   2.118   8.045  0.1755  0.4889 -0.8819
  132OSM   H17G14296   3.303   2.264   8.022  0.8427 -3.0866 -2.6539
  132OSM   C18F14297   3.410   2.245   8.212  0.2232 -0.2617 -0.1096
  132OSM   H18F14298   3.510   2.205   8.239 -0.7996 -3.6446 -0.8754
  132OSM   H18G14299   3.332   2.186   8.264  0.1233 -1.3610 -1.4578
  132OSM   H18H14300   3.403   2.351   8.246  0.1543 -0.4900  0.5855
  133SAPE     N14301   4.048   4.140  10.930 -0.5247 -0.7737 -0.1496
  133SAPE   HN114302   4.066   4.106  11.026 -0.2754 -0.0394  0.0713
  133SAPE   HN214303   4.083   4.238  10.933 -0.2831 -0.8896  0.8967
  133SAPE   HN314304   3.944   4.149  10.924 -0.7181 -2.9620 -0.8874
  133SAPE   C1214305   4.087   4.070  10.803  0.1103 -0.0946 -0.2946
  133SAPE  H12A14306   4.030   3.976  10.793 -0.1235 -0.2247  1.8562
  133SAPE  H12B14307   4.196   4.051  10.805  0.6676  2.2939 -2.2407
  133SAPE   C1114308   4.052   4.161  10.688  0.7048 -0.7716  0.3172
  133SAPE  H11A14309   3.948   4.141  10.654  1.2591 -2.1193 -0.7028
  133SAPE  H11B14310   4.119   4.146  10.600 -1.2807 -1.6098 -1.1451
  133SAPE     P14311   3.987   4.402  10.630  0.2128  0.0571  0.3882
  133SAPE   O1314312   3.857   4.424  10.692  0.2471  0.2178  0.6535
  133SAPE   O1414313   4.070   4.523  10.608 -0.5687 -0.9526 -0.1191
  133SAPE   O1214314   4.072   4.302  10.716 -0.3297  0.7975  1.2482
  133SAPE   O1114315   3.958   4.334  10.491  0.0795  0.2741  0.2857
  133SAPE    C114316   4.061   4.322  10.396 -0.3493 -0.6734  0.1273
  133SAPE    HA14317   4.164   4.306  10.435 -0.9180 -1.6596  1.2643
  133SAPE    HB14318   4.042   4.233  10.332  1.0422 -0.2110 -0.9959
  133SAPE    C214319   4.045   4.436  10.294  0.3181 -0.0672 -0.5663
  133SAPE    HS14320   4.077   4.526  10.350  0.2737  0.1910 -0.9498
  133SAPE   O2114321   3.909   4.450  10.242  0.3364  0.5330  0.3092
  133SAPE   C2114322   3.876   4.578  10.206 -0.7870  0.5905 -0.0353
  133SAPE   O2214323   3.950   4.677  10.207  0.1175 -0.3888 -0.1529
  133SAPE   C2214324   3.725   4.591  10.155 -0.0687 -0.1272  0.3753
  133SAPE   H2R14325   3.661   4.510  10.195  0.7821 -0.2190  1.6161
  133SAPE   H2S14326   3.692   4.693  10.185  1.0901  1.1938 -2.4789
  133SAPE    C314327   4.147   4.428  10.184  0.3566 -0.3381  0.5738
  133SAPE    HX14328   4.247   4.425  10.232  0.8612  0.0764 -0.4203
  133SAPE    HY14329   4.138   4.525  10.131  1.4003  0.8632  2.4920
  133SAPE   O3114330   4.118   4.309  10.111  0.4967  0.2698 -0.4201
  133SAPE   C3114331   4.145   4.321   9.983  0.1008  0.2305  0.6439
  133SAPE   O3214332   4.192   4.419   9.928 -0.1157  0.3421  0.2431
  133SAPE   C3214333   4.127   4.183   9.915 -0.5334  0.0296  0.0522
  133SAPE   H2X14334   4.024   4.151   9.940 -0.3255  0.0132  0.8905
  133SAPE   H2Y14335   4.199   4.115   9.965 -0.1480  0.8047  0.5718
  133SAPE   C2314336   3.705   4.597   9.998 -0.7619 -0.2725  0.0301
  133SAPE   H3R14337   3.597   4.599   9.974 -1.2263  0.0028  1.9929
  133SAPE   H3S14338   3.751   4.504   9.958 -1.2468 -1.1950  1.5211
  133SAPE   C2414339   3.769   4.714   9.912  0.1352  0.3955  0.5104
  133SAPE   H4R14340   3.754   4.802   9.979 -0.6123 -1.6124  3.1485
  133SAPE   H4S14341   3.703   4.726   9.824 -0.4484 -2.1915  0.5104
  133SAPE   C2514342   3.918   4.706   9.877 -0.2950  0.2768 -0.0320
  133SAPE   H5R14343   3.983   4.756   9.951  3.5219 -0.3309 -2.6615
  133SAPE   C2614344   3.982   4.649   9.770 -0.4627 -0.1729 -0.0525
  133SAPE   H6R14345   4.092   4.659   9.770 -0.3362 -0.7956  3.1217
  133SAPE   C2714346   3.920   4.569   9.662 -0.0814 -0.2841  0.0904
  133SAPE   H7R14347   3.809   4.576   9.671  0.0897  1.3210  1.4402
  133SAPE   H7S14348   3.949   4.463   9.678 -0.6214 -0.1781  2.0381
  133SAPE   C2814349   3.955   4.618   9.520 -0.6082  0.0896 -0.1918
  133SAPE   H8R14350   3.997   4.719   9.513  1.2540 -0.5937  0.5359
  133SAPE   C2914351   3.942   4.533   9.413 -0.0997 -1.0319  1.1876
  133SAPE   H9R14352   3.975   4.577   9.318  0.4994  0.5863  2.1067
  133SAPE  C21014353   3.882   4.393   9.411  0.3535  0.1373  0.5814
  133SAPE  H10R14354   3.786   4.391   9.467 -0.0931  2.3421 -0.0282
  133SAPE  H10S14355   3.956   4.328   9.463  0.2989 -0.7503 -0.4142
  133SAPE  C21114356   3.861   4.343   9.268  0.2241 -0.3241 -0.4012
  133SAPE  H11R14357   3.795   4.403   9.204 -0.0811  0.8035  0.9312
  133SAPE  C21214358   3.940   4.258   9.198  0.0295  0.1781 -0.3625
  133SAPE  H12R14359   3.917   4.232   9.094  1.2892 -0.9311 -0.3790
  133SAPE  C21314360   4.056   4.186   9.251  0.7054  0.3408  0.0903
  133SAPE  H13R14361   4.083   4.223   9.352  1.7034  1.2338 -0.4819
  133SAPE  H13S14362   4.144   4.214   9.189 -0.7571  0.1031 -2.2329
  133SAPE  C21414363   4.032   4.034   9.255  0.0256 -0.5413  0.3407
  133SAPE  H14R14364   3.931   4.001   9.285  0.8034 -0.7220  3.0101
  133SAPE  C21514365   4.126   3.935   9.243  0.0168  0.0148  0.3234
  133SAPE  H15R14366   4.094   3.830   9.249 -0.3828  0.0493 -0.8475
  133SAPE  C21614367   4.278   3.952   9.221 -0.4445 -0.1051 -0.0607
  133SAPE  H16R14368   4.311   4.056   9.198  1.2024 -0.5684  0.0974
  133SAPE  H16S14369   4.321   3.897   9.135 -0.0670 -1.9280  1.2405
  133SAPE  C21714370   4.356   3.892   9.339 -0.0946 -0.1070  0.1445
  133SAPE  H17R14371   4.342   3.782   9.331  1.0703 -0.3339  0.9256
  133SAPE  H17S14372   4.312   3.934   9.432 -1.9966  0.4017 -0.9407
  133SAPE  C21814373   4.516   3.916   9.339  0.4385  0.2664 -0.1480
  133SAPE  H18R14374   4.510   4.027   9.339 -1.8914  0.1938 -0.8007
  133SAPE  H18S14375   4.560   3.876   9.245 -0.2429 -1.5317  0.2565
  133SAPE  C21914376   4.590   3.866   9.461  0.1150  0.2796 -0.0582
  133SAPE  H19R14377   4.555   3.761   9.460 -0.1123  0.3382  0.8551
  133SAPE  H19S14378   4.546   3.925   9.544 -0.3438  0.9837 -0.7894
  133SAPE  C22014379   4.738   3.872   9.440 -0.9109  0.1552  0.0888
  133SAPE  H20R14380   4.778   3.975   9.443 -0.8963  0.1345  2.3753
  133SAPE  H20S14381   4.763   3.826   9.342  2.6166  3.0556 -0.5415
  133SAPE  H20T14382   4.789   3.817   9.522 -2.8620 -2.6624 -0.4234
  133SAPE   C3314383   4.138   4.178   9.763  0.0288  0.4427 -0.4338
  133SAPE   H3X14384   4.081   4.263   9.720  1.6135  1.3178 -0.8602
  133SAPE   H3Y14385   4.098   4.084   9.720  0.8779 -0.7006  1.1647
  133SAPE   C3414386   4.287   4.193   9.713 -0.3223 -1.0011  0.1885
  133SAPE   H4X14387   4.340   4.099   9.738 -0.7052 -0.4551  3.5450
  133SAPE   H4Y14388   4.344   4.259   9.782 -0.5359 -1.9708  1.3248
  133SAPE   C3514389   4.297   4.240   9.564 -0.0058  0.7652  0.1558
  133SAPE   H5X14390   4.225   4.324   9.552  0.0383  1.2561  2.6773
  133SAPE   H5Y14391   4.263   4.168   9.488  1.2204  1.0219 -0.6690
  133SAPE   C3614392   4.439   4.274   9.514 -0.7880 -0.2105  0.3183
  133SAPE   H6X14393   4.500   4.181   9.517  1.8129  1.3093 -1.4910
  133SAPE   H6Y14394   4.501   4.338   9.580 -1.1894  0.7984 -0.2703
  133SAPE   C3714395   4.443   4.305   9.363  0.0015 -0.9993 -0.4490
  133SAPE   H7X14396   4.363   4.382   9.355  1.0220  0.0188 -1.2353
  133SAPE   H7Y14397   4.404   4.222   9.300 -2.6929  0.1022 -0.3889
  133SAPE   C3814398   4.572   4.370   9.309  0.4201 -0.6555 -0.4028
  133SAPE   H8X14399   4.598   4.451   9.380  1.3884 -0.2930 -1.1480
  133SAPE   H8Y14400   4.553   4.411   9.207  0.0529 -2.0276 -0.9036
  133SAPE   C3914401   4.688   4.267   9.294 -0.6538 -0.3376 -0.8990
  133SAPE   H9X14402   4.650   4.223   9.199 -3.4937 -1.2328  0.5399
  133SAPE   H9Y14403   4.684   4.186   9.370 -0.3916  0.1237 -0.3892
  133SAPE  C31014404   4.821   4.334   9.278 -0.4235  0.4597  0.1230
  133SAPE  H10X14405   4.802   4.416   9.206 -0.3189 -2.9451 -4.2380
  133SAPE  H10Y14406   4.897   4.261   9.242  0.6652  0.5055  2.1785
  133SAPE  C31114407   4.878   4.385   9.410 -0.0737 -0.4934 -0.2598
  133SAPE  H11X14408   4.888   4.308   9.490  0.5610  0.1248  0.2688
  133SAPE  H11Y14409   4.810   4.456   9.461 -1.4223 -1.5868 -0.4681
  133SAPE  C31214410   5.010   4.464   9.409 -0.1576  0.0571 -0.6934
  133SAPE  H12X14411   4.991   4.557   9.352  2.1933  0.6808 -0.5845
  133SAPE  H12Y14412   5.080   4.408   9.344  2.4297  1.2381  0.8919
  133SAPE  C31314413   5.063   4.484   9.548 -0.2686  0.1528  0.1323
  133SAPE  H13X14414   5.085   4.383   9.590 -1.5619 -0.2135 -0.0248
  133SAPE  H13Y14415   4.980   4.528   9.608 -0.4018 -0.9899  0.8224
  133SAPE  C31414416   5.191   4.567   9.564 -0.1695 -0.3992  0.0271
  133SAPE  H14X14417   5.178   4.664   9.511 -1.2874  0.6404  2.0945
  133SAPE  H14Y14418   5.275   4.516   9.513  1.6859  0.3972  2.1572
  133SAPE  C31514419   5.237   4.582   9.704 -0.2293 -0.3655 -0.3561
  133SAPE  H15X14420   5.254   4.487   9.760 -3.8359  0.1264  1.9036
  133SAPE  H15Y14421   5.162   4.643   9.759  0.9237 -0.5085  1.4759
  133SAPE  C31614422   5.371   4.661   9.696  0.5306  0.9922  0.7906
  133SAPE  H16X14423   5.347   4.730   9.613 -1.3888 -1.2749 -0.6803
  133SAPE  H16Y14424   5.461   4.602   9.668  1.0570  1.9530  0.4202
  133SAPE  C31714425   5.414   4.738   9.827 -0.2467  0.0751 -0.1067
  133SAPE  H17X14426   5.339   4.819   9.842  0.4323  0.5783  0.6336
  133SAPE  H17Y14427   5.507   4.795   9.810 -0.1952 -0.2204 -0.8434
  133SAPE  C31814428   5.418   4.659   9.957  0.2864 -0.8426 -0.1433
  133SAPE  H18X14429   5.495   4.580   9.954 -0.4176 -1.5363 -0.1393
  133SAPE  H18Y14430   5.322   4.619   9.995  0.7776  0.0652  2.2788
  133SAPE  H18Z14431   5.467   4.730  10.028  2.4297 -0.3240 -2.0102
  134SAPE     N14432   0.508   5.864  10.931 -0.8578 -0.9352  0.3727
  134SAPE   HN114433   0.466   5.928  11.001 -0.1081  1.3885 -1.1728
  134SAPE   HN214434   0.442   5.872  10.851 -0.3992 -0.8290  0.0026
  134SAPE   HN314435   0.506   5.765  10.962 -1.5666 -0.9113  0.4120
  134SAPE   C1214436   0.647   5.909  10.894  0.2494 -0.2045  0.1211
  134SAPE  H12A14437   0.714   5.827  10.860  0.6395  0.9530 -2.1153
  134SAPE  H12B14438   0.689   5.957  10.985  1.5318  0.2870 -0.6976
  134SAPE   C1114439   0.633   6.012  10.787  0.0228 -0.1486  0.3722
  134SAPE  H11A14440   0.569   5.971  10.707  1.9516 -1.8165 -0.3966
  134SAPE  H11B14441   0.735   6.030  10.746 -0.7120  1.4570 -0.8715
  134SAPE     P14442   0.645   6.267  10.839  0.3965  0.1688  0.3480
  134SAPE   O1314443   0.541   6.366  10.865 -0.2211 -1.2321 -0.5321
  134SAPE   O1414444   0.764   6.260  10.923  0.1612  0.2030  0.0910
  134SAPE   O1214445   0.568   6.127  10.824  0.3733 -0.2862 -0.4458
  134SAPE   O1114446   0.695   6.292  10.691  0.6299  0.2584 -0.0162
  134SAPE    C114447   0.616   6.271  10.574 -0.1539  0.1464 -0.2988
  134SAPE    HA14448   0.617   6.163  10.546  0.6592  0.1581 -0.3597
  134SAPE    HB14449   0.516   6.317  10.585 -0.5761 -1.1399  2.1779
  134SAPE    C214450   0.684   6.354  10.458 -0.4968 -0.0349  0.8379
  134SAPE    HS14451   0.682   6.460  10.494  0.0066  1.0123 -2.0019
  134SAPE   O2114452   0.620   6.328  10.331 -0.2582 -0.0366 -0.1614
  134SAPE   C2114453   0.620   6.430  10.242 -0.0772  0.4693 -0.2489
  134SAPE   O2214454   0.662   6.544  10.256 -0.3498  0.4673  0.3277
  134SAPE   C2214455   0.536   6.386  10.125  0.0432  0.3852  0.0912
  134SAPE   H2R14456   0.595   6.310  10.070  0.4879 -0.6991  1.9563
  134SAPE   H2S14457   0.452   6.320  10.153 -0.8517  1.9957  1.4466
  134SAPE    C314458   0.836   6.308  10.447  0.7435 -0.6506 -0.1890
  134SAPE    HX14459   0.834   6.202  10.414  0.3063 -0.7258  0.0677
  134SAPE    HY14460   0.886   6.301  10.546 -0.0858 -0.4739  0.2513
  134SAPE   O3114461   0.903   6.385  10.342 -0.2052 -0.0555 -0.4547
  134SAPE   C3114462   0.969   6.489  10.388 -0.0684  0.0730  0.4067
  134SAPE   O3214463   0.986   6.521  10.503 -0.2763 -0.1355 -0.9794
  134SAPE   C3214464   1.031   6.562  10.270 -0.4575  0.9855 -0.0088
  134SAPE   H2X14465   1.141   6.558  10.284 -0.4245 -0.8152 -0.5634
  134SAPE   H2Y14466   1.015   6.671  10.288  2.5398  1.9333 -2.2727
  134SAPE   C2314467   0.502   6.501  10.033  0.3191  0.1897 -0.1786
  134SAPE   H3R14468   0.595   6.554  10.007 -1.1665  3.1263  0.1086
  134SAPE   H3S14469   0.437   6.581  10.074 -0.1966  0.6114 -1.7276
  134SAPE   C2414470   0.448   6.458   9.893 -0.5302  0.1045 -0.5183
  134SAPE   H4R14471   0.514   6.385   9.843 -1.1149 -0.6179 -0.2565
  134SAPE   H4S14472   0.457   6.546   9.826  1.2927 -0.6679 -1.3428
  134SAPE   C2514473   0.304   6.410   9.902 -0.5169  0.0816  1.1666
  134SAPE   H5R14474   0.259   6.397  10.002 -0.2297 -1.2901  1.1366
  134SAPE   C2614475   0.226   6.374   9.792 -0.0193  0.4333 -0.6367
  134SAPE   H6R14476   0.126   6.330   9.808 -0.1759  0.3354 -1.8088
  134SAPE   C2714477   0.281   6.378   9.649  0.1442  0.1069 -0.8819
  134SAPE   H7R14478   0.392   6.381   9.647  0.1352  0.6720 -2.4348
  134SAPE   H7S14479   0.254   6.474   9.600  2.8569  1.6293  0.3606
  134SAPE   C2814480   0.239   6.252   9.574 -0.2965 -0.1274  0.1782
  134SAPE   H8R14481   0.200   6.173   9.641  1.0196 -0.2583  0.8190
  134SAPE   C2914482   0.236   6.240   9.440 -0.6919  0.3287 -0.4095
  134SAPE   H9R14483   0.204   6.142   9.403  1.4535 -0.0429 -1.4035
  134SAPE  C21014484   0.277   6.338   9.338 -0.3527  0.1450 -0.3656
  134SAPE  H10R14485   0.357   6.288   9.280  0.1611  0.5332 -0.0078
  134SAPE  H10S14486   0.311   6.429   9.392  2.2472 -0.8085 -0.2743
  134SAPE  C21114487   0.164   6.371   9.243  0.3512 -0.2337  0.2265
  134SAPE  H11R14488   0.065   6.355   9.288 -0.1611  2.5852  0.2565
  134SAPE  C21214489   0.179   6.413   9.113  0.2029 -0.7554 -0.6357
  134SAPE  H12R14490   0.086   6.443   9.063  1.1921 -1.2598 -2.8986
  134SAPE  C21314491   0.301   6.430   9.031  0.3507 -0.1694  0.3639
  134SAPE  H13R14492   0.381   6.447   9.106  1.5156 -1.3469 -0.5668
  134SAPE  H13S14493   0.303   6.510   8.953  1.0130 -1.5494 -1.0969
  134SAPE  C21414494   0.332   6.301   8.958  0.4671  1.3159 -0.5840
  134SAPE  H14R14495   0.420   6.255   9.006 -0.4494  2.0087  1.9204
  134SAPE  C21514496   0.262   6.241   8.865 -0.0547  0.4465 -0.0825
  134SAPE  H15R14497   0.308   6.159   8.809  3.3340  2.6277 -0.7945
  134SAPE  C21614498   0.130   6.296   8.812 -0.2674 -0.1665 -0.2290
  134SAPE  H16R14499   0.093   6.393   8.851  0.3551 -0.4846  1.2512
  134SAPE  H16S14500   0.062   6.216   8.848 -2.7154  1.1765 -1.6493
  134SAPE  C21714501   0.117   6.300   8.656 -1.1302 -0.3454 -0.1858
  134SAPE  H17R14502   0.011   6.328   8.635 -0.9979 -1.6755 -3.1782
  134SAPE  H17S14503   0.151   6.207   8.607 -1.6117  0.7659 -2.8611
  134SAPE  C21814504   0.191   6.424   8.597 -0.8953 -0.6136  0.1919
  134SAPE  H18R14505   0.300   6.409   8.613 -0.1178  0.8901 -3.0211
  134SAPE  H18S14506   0.168   6.518   8.650  1.4622 -1.4355  2.9374
  134SAPE  C21914507   0.152   6.445   8.449 -0.2280 -0.1858  0.0925
  134SAPE  H19R14508   0.191   6.545   8.425  1.0603 -0.5806  0.4915
  134SAPE  H19S14509   0.041   6.433   8.449 -0.1866 -0.6276  0.3844
  134SAPE  C22014510   0.207   6.358   8.346 -0.1922  0.8198  0.5094
  134SAPE  H20R14511   0.149   6.390   8.256  0.4738  0.4150 -0.0800
  134SAPE  H20S14512   0.205   6.250   8.372  0.5911  0.7650  0.3793
  134SAPE  H20T14513   0.311   6.386   8.320 -0.4955  1.8444  0.3593
  134SAPE   C3314514   0.989   6.525  10.130  0.5069 -0.0104  0.2376
  134SAPE   H3X14515   0.882   6.550  10.109  0.2954  0.5789  1.8455
  134SAPE   H3Y14516   1.002   6.417  10.111 -1.6291 -0.8421  2.8555
  134SAPE   C3414517   1.059   6.597  10.025 -0.5446 -0.2192  0.4569
  134SAPE   H4X14518   1.168   6.577  10.026 -0.6259 -1.3222 -2.4217
  134SAPE   H4Y14519   1.043   6.707  10.037 -0.2674  0.0962 -1.6353
  134SAPE   C3514520   1.025   6.547   9.883  0.4600 -0.2899  0.3105
  134SAPE   H5X14521   0.922   6.580   9.859 -0.2708 -1.7075  1.3224
  134SAPE   H5Y14522   1.033   6.436   9.889 -1.3276 -0.4551  0.1027
  134SAPE   C3614523   1.118   6.592   9.772  0.2776 -0.1118  0.6814
  134SAPE   H6X14524   1.225   6.578   9.796  1.2118  1.1718 -2.2671
  134SAPE   H6Y14525   1.097   6.700   9.755 -0.6617 -0.5381 -1.2287
  134SAPE   C3714526   1.098   6.522   9.629  0.1669  0.2532  0.2708
  134SAPE   H7X14527   0.993   6.548   9.603  0.7932  2.0036 -0.7213
  134SAPE   H7Y14528   1.118   6.413   9.636  1.1581  0.5079  2.1602
  134SAPE   C3814529   1.177   6.580   9.505 -0.2931  0.0160 -0.4519
  134SAPE   H8X14530   1.284   6.551   9.514  0.7355  3.9050  2.1241
  134SAPE   H8Y14531   1.171   6.690   9.503  2.6929  0.2588 -0.8318
  134SAPE   C3914532   1.128   6.541   9.369  0.1787  0.1085 -0.1280
  134SAPE   H9X14533   1.024   6.580   9.364  0.7737  2.0404  1.3591
  134SAPE   H9Y14534   1.139   6.432   9.350 -0.7304 -0.0839  0.3866
  134SAPE  C31014535   1.208   6.600   9.256  0.3514 -0.6472 -0.0049
  134SAPE  H10X14536   1.315   6.572   9.258  0.2414 -1.0455  1.4999
  134SAPE  H10Y14537   1.186   6.708   9.268 -1.3211 -0.3852 -3.7799
  134SAPE  C31114538   1.142   6.562   9.112 -0.0665  0.2322 -0.2086
  134SAPE  H11X14539   1.032   6.571   9.122  0.0018  1.2752 -0.3193
  134SAPE  H11Y14540   1.157   6.453   9.098 -1.7054 -0.1569  0.8186
  134SAPE  C31214541   1.186   6.653   8.999 -0.2523  0.3201 -0.3365
  134SAPE  H12X14542   1.296   6.663   9.016 -0.4806  0.3788  1.3071
  134SAPE  H12Y14543   1.167   6.760   9.023  2.6986  1.0913 -1.0315
  134SAPE  C31314544   1.145   6.604   8.861 -0.4687 -0.0809 -0.0319
  134SAPE  H13X14545   1.173   6.683   8.788 -1.1880 -1.5059 -1.9357
  134SAPE  H13Y14546   1.034   6.609   8.855 -0.4621  3.8001  0.0615
  134SAPE  C31414547   1.200   6.472   8.823 -0.1604  0.3453 -0.3573
  134SAPE  H14X14548   1.167   6.415   8.913  1.4970  1.4485  1.0375
  134SAPE  H14Y14549   1.311   6.470   8.833 -0.2878  1.5836  2.1515
  134SAPE  C31514550   1.142   6.407   8.697 -0.2350  0.3670 -0.2061
  134SAPE  H15X14551   1.139   6.480   8.613 -2.0618  0.0769 -0.4541
  134SAPE  H15Y14552   1.038   6.379   8.728  0.3494  0.3171  1.8383
  134SAPE  C31614553   1.216   6.278   8.656  0.5648 -0.4142 -0.0951
  134SAPE  H16X14554   1.150   6.199   8.614  1.0529 -0.9954  0.2246
  134SAPE  H16Y14555   1.251   6.234   8.752 -0.2271  0.4108  0.6016
  134SAPE  C31714556   1.329   6.304   8.558  0.2207  0.2606  0.0887
  134SAPE  H17X14557   1.388   6.384   8.609  1.6558 -0.7640  0.1174
  134SAPE  H17Y14558   1.282   6.348   8.468  1.2739  0.1138 -0.5482
  134SAPE  C31814559   1.422   6.184   8.517 -0.4925  0.7459  0.6772
  134SAPE  H18X14560   1.517   6.188   8.573  0.5455 -1.4540 -0.7568
  134SAPE  H18Y14561   1.445   6.182   8.408  2.0632 -0.8515  1.1640
  134SAPE  H18Z14562   1.372   6.086   8.531  0.8870 -0.1666 -0.4890
  135SAPE     N14563   0.119   6.148  10.847 -0.3889 -0.3018 -0.0391
  135SAPE   HN114564   0.068   6.064  10.816 -0.7612  0.8662 -2.8807
  135SAPE   HN214565   0.097   6.174  10.946 -0.3947  1.1932 -0.4020
  135SAPE   HN314566   0.090   6.230  10.791  2.0304  1.8523  1.5904
  135SAPE   C1214567   0.263   6.134  10.826 -0.1819  0.7078 -0.4462
  135SAPE  H12A14568   0.304   6.052  10.890 -0.0116  2.4804  1.8187
  135SAPE  H12B14569   0.316   6.230  10.844 -0.7552  1.2196 -1.4244
  135SAPE   C1114570   0.280   6.102  10.676  0.3264  0.6025 -0.0974
  135SAPE  H11A14571   0.390   6.094  10.666  0.2389 -0.0624 -0.5579
  135SAPE  H11B14572   0.265   6.199  10.624  1.4596  1.0982  0.4767
  135SAPE     P14573   0.274   5.866  10.597  0.0749  0.1430 -0.2738
  135SAPE   O1314574   0.351   5.842  10.717  0.1471  0.5478  0.5861
  135SAPE   O1414575   0.180   5.762  10.550 -0.4134 -0.4767 -0.2404
  135SAPE   O1214576   0.193   5.999  10.622 -0.1062 -0.5258 -0.3237
  135SAPE   O1114577   0.372   5.900  10.480  0.4874 -0.4284 -0.5127
  135SAPE    C114578   0.348   5.999  10.375 -0.2547  0.9883 -0.2596
  135SAPE    HA14579   0.242   6.016  10.346 -0.7988 -0.1472  0.9857
  135SAPE    HB14580   0.388   6.097  10.409  1.0941 -0.0943  1.4117
  135SAPE    C214581   0.432   5.949  10.244 -0.0480  0.0314 -0.9003
  135SAPE    HS14582   0.411   5.840  10.240  0.9646 -0.4864  3.2089
  135SAPE   O2114583   0.575   5.973  10.274 -0.2305  0.0806 -0.0903
  135SAPE   C2114584   0.651   5.899  10.203  0.2076 -0.3848 -0.4054
  135SAPE   O2214585   0.619   5.800  10.146 -0.4553  0.9579  0.1324
  135SAPE   C2214586   0.795   5.956  10.211  0.4918 -0.2021  1.0552
  135SAPE   H2R14587   0.809   5.965  10.321 -0.1145  1.0231  1.0439
  135SAPE   H2S14588   0.861   5.889  10.151 -1.0691  1.1264 -2.4403
  135SAPE    C314589   0.383   6.030  10.109  0.1979  0.5079 -0.7225
  135SAPE    HX14590   0.404   6.139  10.115 -1.0907  0.7032  1.1319
  135SAPE    HY14591   0.273   6.029  10.122  0.2159 -0.8607 -0.5112
  135SAPE   O3114592   0.416   5.976   9.978 -0.1407  0.0636 -0.0386
  135SAPE   C3114593   0.352   5.869   9.943  0.7202  0.1009 -0.3278
  135SAPE   O3214594   0.259   5.821  10.004  0.3110  0.3163 -0.1289
  135SAPE   C3214595   0.410   5.808   9.820  0.4418 -0.3211 -0.4599
  135SAPE   H2X14596   0.425   5.700   9.843  1.9134  0.0709  0.5539
  135SAPE   H2Y14597   0.514   5.843   9.801  0.9174 -0.8278  1.1004
  135SAPE   C2314598   0.807   6.096  10.144 -0.7987  0.3547  0.2865
  135SAPE   H3R14599   0.899   6.140  10.188 -0.8135  0.0560  0.6200
  135SAPE   H3S14600   0.728   6.169  10.174  0.9987  2.7121 -0.4549
  135SAPE   C2414601   0.818   6.089   9.988 -0.8204 -0.0206  0.4151
  135SAPE   H4R14602   0.739   6.019   9.954 -0.4529 -0.7930  1.1333
  135SAPE   H4S14603   0.913   6.036   9.969 -1.0143  0.4769 -2.4396
  135SAPE   C2514604   0.812   6.217   9.898  0.6969  0.9235  0.0548
  135SAPE   H5R14605   0.848   6.311   9.941  0.3922  0.6374  0.9548
  135SAPE   C2614606   0.763   6.229   9.776  0.1757 -0.6447 -0.1519
  135SAPE   H6R14607   0.777   6.323   9.721  0.3141 -1.2213 -1.1199
  135SAPE   C2714608   0.712   6.114   9.698  0.0002  0.0552 -0.0147
  135SAPE   H7R14609   0.679   6.031   9.765 -0.5160 -1.4988 -2.0737
  135SAPE   H7S14610   0.804   6.071   9.652 -0.8253 -0.5208 -1.1919
  135SAPE   C2814611   0.606   6.141   9.597  0.1961 -0.1067  0.0283
  135SAPE   H8R14612   0.516   6.191   9.636 -0.0669  1.3359 -2.2879
  135SAPE   C2914613   0.609   6.117   9.468  0.6875  0.9659  0.0833
  135SAPE   H9R14614   0.513   6.122   9.414 -0.2548  2.6172  1.7958
  135SAPE  C21014615   0.729   6.049   9.402  0.3233  0.1512  1.0362
  135SAPE  H10R14616   0.685   5.993   9.317  1.0837  0.4115  0.4617
  135SAPE  H10S14617   0.772   5.967   9.463  1.0387 -0.4801 -0.2908
  135SAPE  C21114618   0.838   6.140   9.345  0.4871  0.1208  0.0014
  135SAPE  H11R14619   0.881   6.212   9.416  0.5785  1.7435 -1.6066
  135SAPE  C21214620   0.863   6.149   9.210  0.1513 -0.1331 -0.8003
  135SAPE  H12R14621   0.952   6.208   9.182  1.0209 -0.9805  0.0872
  135SAPE  C21314622   0.792   6.062   9.111  0.1056  0.0445  0.2817
  135SAPE  H13R14623   0.684   6.086   9.108 -0.0375 -0.6858 -1.0517
  135SAPE  H13S14624   0.791   5.952   9.125 -2.3112  0.2492  2.3042
  135SAPE  C21414625   0.836   6.081   8.969  0.2097 -0.6585  0.2066
  135SAPE  H14R14626   0.897   6.169   8.942  1.2359 -1.8935 -1.7437
  135SAPE  C21514627   0.822   6.005   8.862  0.0182  0.1973  0.7023
  135SAPE  H15R14628   0.871   6.038   8.769 -0.8956 -0.5473 -0.0669
  135SAPE  C21614629   0.746   5.873   8.862 -0.2256 -0.0250  0.2647
  135SAPE  H16R14630   0.751   5.820   8.959 -1.1616 -2.1793 -0.8015
  135SAPE  H16S14631   0.807   5.810   8.793 -0.6829  0.6109 -0.7419
  135SAPE  C21714632   0.596   5.901   8.826 -1.1193  1.0773 -0.2731
  135SAPE  H17R14633   0.605   5.919   8.717 -2.1000  1.4159 -0.3058
  135SAPE  H17S14634   0.544   5.988   8.870  0.5013  1.6275  0.6349
  135SAPE  C21814635   0.511   5.777   8.841 -0.0151  1.1116 -0.3512
  135SAPE  H18R14636   0.429   5.799   8.769  1.6715  1.1198 -2.3686
  135SAPE  H18S14637   0.462   5.754   8.938  1.4843 -0.7188  0.0325
  135SAPE  C21914638   0.589   5.657   8.787  0.3052  0.1552 -0.6109
  135SAPE  H19R14639   0.674   5.624   8.850 -0.0296 -0.4140 -0.4447
  135SAPE  H19S14640   0.643   5.675   8.691 -1.2875 -0.0344 -1.5793
  135SAPE  C22014641   0.502   5.536   8.765  0.4835 -0.2048 -0.7361
  135SAPE  H20R14642   0.434   5.545   8.677 -0.1180 -0.9100 -0.3452
  135SAPE  H20S14643   0.440   5.515   8.854  1.9571  0.6028  0.5287
  135SAPE  H20T14644   0.564   5.446   8.746 -0.0341 -0.9419  0.9321
  135SAPE   C3314645   0.322   5.820   9.686 -0.8704 -0.0166 -0.0412
  135SAPE   H3X14646   0.289   5.926   9.682 -1.5373 -0.2239 -0.1417
  135SAPE   H3Y14647   0.231   5.758   9.704 -1.4215  0.4913 -0.9824
  135SAPE   C3414648   0.400   5.792   9.556 -0.1290 -0.0359 -0.3881
  135SAPE   H4X14649   0.446   5.691   9.553  2.0909  0.9458 -2.9855
  135SAPE   H4Y14650   0.478   5.870   9.542 -1.7883  1.9046  0.7108
  135SAPE   C3514651   0.306   5.812   9.433 -0.2717 -0.0857 -0.5006
  135SAPE   H5X14652   0.255   5.910   9.444 -1.7183 -0.8549  0.0378
  135SAPE   H5Y14653   0.232   5.730   9.426 -1.5418  1.1890 -3.8234
  135SAPE   C3614654   0.389   5.813   9.306 -0.3512 -0.1215  0.6519
  135SAPE   H6X14655   0.432   5.711   9.299 -1.1147 -0.5106  1.3761
  135SAPE   H6Y14656   0.464   5.891   9.329 -0.9103 -0.3684  3.7830
  135SAPE   C3714657   0.311   5.851   9.180  0.4798 -0.1134  0.0351
  135SAPE   H7X14658   0.388   5.880   9.106 -0.1594  1.6238  0.0123
  135SAPE   H7Y14659   0.255   5.945   9.196  1.9713  0.4338  2.7709
  135SAPE   C3814660   0.213   5.747   9.124 -0.0899  0.3499  0.1767
  135SAPE   H8X14661   0.137   5.716   9.199  0.0137  0.9307  0.5270
  135SAPE   H8Y14662   0.280   5.661   9.101 -0.0142  0.7578 -1.2334
  135SAPE   C3914663   0.148   5.784   8.994 -0.1001 -1.1058  0.2733
  135SAPE   H9X14664   0.226   5.794   8.916  0.2968 -1.2546  0.6466
  135SAPE   H9Y14665   0.110   5.888   8.999 -0.1722 -0.8484 -3.2443
  135SAPE  C31014666   0.042   5.689   8.931 -0.0985  0.5093  0.2594
  135SAPE  H10X14667   0.004   5.735   8.837 -3.5217  1.0967  1.7803
  135SAPE  H10Y14668  -0.045   5.664   8.995 -2.6604 -0.1139 -3.1459
  135SAPE  C31114669   0.087   5.543   8.893 -0.7939 -0.3885 -0.3553
  135SAPE  H11X14670   0.118   5.483   8.981 -2.9437 -0.6363  0.2957
  135SAPE  H11Y14671   0.167   5.562   8.818 -1.2657 -0.0709 -0.7840
  135SAPE  C31214672  -0.028   5.467   8.814 -1.5484 -0.9832  0.1199
  135SAPE  H12X14673  -0.068   5.536   8.737 -1.4950 -0.6043  0.4263
  135SAPE  H12Y14674  -0.114   5.439   8.879 -1.5914 -0.6875  0.1955
  135SAPE  C31314675   0.038   5.342   8.751 -0.8907  0.1649 -0.3714
  135SAPE  H13X14676  -0.027   5.287   8.680  0.5363 -1.8028 -0.2481
  135SAPE  H13Y14677   0.046   5.277   8.841  0.0931  1.6247  0.6277
  135SAPE  C31414678   0.177   5.367   8.674  0.3613  0.4641  0.4174
  135SAPE  H14X14679   0.250   5.381   8.756  2.3013 -4.6745 -0.0713
  135SAPE  H14Y14680   0.166   5.452   8.603 -2.7539 -0.6072 -0.5752
  135SAPE  C31514681   0.216   5.239   8.597 -0.7687 -0.1675  0.3075
  135SAPE  H15X14682   0.140   5.214   8.520 -0.0416 -2.8723  0.3655
  135SAPE  H15Y14683   0.217   5.152   8.666  0.5080 -1.4020 -1.1947
  135SAPE  C31614684   0.354   5.253   8.529 -0.3163 -0.6160  0.2874
  135SAPE  H16X14685   0.376   5.161   8.470  0.6946 -0.4426  0.3844
  135SAPE  H16Y14686   0.432   5.258   8.607 -1.5140 -0.6075  1.5271
  135SAPE  C31714687   0.378   5.374   8.430 -0.3906 -0.0760 -0.2482
  135SAPE  H17X14688   0.472   5.351   8.376  1.3695  2.4896  1.4739
  135SAPE  H17Y14689   0.390   5.468   8.489 -1.8069  1.0182 -1.6215
  135SAPE  C31814690   0.267   5.396   8.322 -0.7355 -0.1087  0.4059
  135SAPE  H18X14691   0.257   5.301   8.266  2.6727  0.0691 -0.7552
  135SAPE  H18Y14692   0.280   5.487   8.259  3.6577 -1.5494 -1.1612
  135SAPE  H18Z14693   0.174   5.414   8.379 -0.2444  0.1350  1.1469
  136SAPE     N14694   2.262   3.781  10.998 -0.0396  0.0234 -0.3295
  136SAPE   HN114695   2.246   3.689  11.045  2.8958  1.1543  3.3684
  136SAPE   HN214696   2.197   3.780  10.917 -1.0400  0.6171  0.4521
  136SAPE   HN314697   2.362   3.792  10.972  0.4740 -0.2919  1.3799
  136SAPE   C1214698   2.198   3.873  11.091 -0.2890  0.0040  0.5322
  136SAPE  H12A14699   2.267   3.919  11.165  0.0030 -0.2833  0.4428
  136SAPE  H12B14700   2.124   3.819  11.154 -2.3259  1.3438 -0.6005
  136SAPE   C1114701   2.127   3.987  11.005  0.7930  0.0906 -1.0552
  136SAPE  H11A14702   2.094   4.061  11.081  0.5447 -3.2392  2.3815
  136SAPE  H11B14703   2.032   3.952  10.959  0.4939  0.1600 -0.4997
  136SAPE     P14704   2.346   4.103  10.933  0.1369 -0.1664  0.3802
  136SAPE   O1314705   2.355   4.208  11.038 -0.3571  0.2256  0.4850
  136SAPE   O1414706   2.434   3.985  10.942 -0.7589  0.3592 -0.1167
  136SAPE   O1214707   2.199   4.052  10.909  0.1794  0.4239 -0.4598
  136SAPE   O1114708   2.396   4.172  10.805 -0.2176 -0.1864 -0.2109
  136SAPE    C114709   2.325   4.175  10.677 -0.7121  0.0610 -0.5084
  136SAPE    HA14710   2.401   4.183  10.596 -0.4084  3.8571 -0.0233
  136SAPE    HB14711   2.267   4.082  10.658  0.3299 -0.5232 -0.9250
  136SAPE    C214712   2.234   4.299  10.660 -0.6720 -0.3116  0.1791
  136SAPE    HS14713   2.164   4.281  10.744 -0.1490  1.9064  1.1816
  136SAPE   O2114714   2.171   4.291  10.534  0.3828 -0.1005 -0.7541
  136SAPE   C2114715   2.089   4.388  10.502 -0.6623 -0.1791 -0.4290
  136SAPE   O2214716   2.032   4.466  10.582 -0.4339  0.5216 -0.1690
  136SAPE   C2214717   2.070   4.390  10.347 -0.2357  0.1118  0.4956
  136SAPE   H2R14718   1.962   4.409  10.329 -0.2628 -1.4062 -1.3739
  136SAPE   H2S14719   2.124   4.480  10.312 -1.7068  0.7216 -0.3025
  136SAPE    C314720   2.317   4.430  10.682  0.6328 -0.1331 -0.8900
  136SAPE    HX14721   2.365   4.402  10.778  1.0681 -0.7122 -1.2725
  136SAPE    HY14722   2.255   4.519  10.707 -1.1383 -1.5448  0.0330
  136SAPE   O3114723   2.421   4.444  10.586  0.2514 -0.5615 -0.2276
  136SAPE   C3114724   2.392   4.542  10.495 -0.7179  0.4692 -0.2729
  136SAPE   O3214725   2.299   4.616  10.504  0.5616  0.3868 -0.1895
  136SAPE   C3214726   2.507   4.564  10.398 -0.1876  0.3769  0.2407
  136SAPE   H2X14727   2.553   4.468  10.366 -0.2476  0.8552 -1.3915
  136SAPE   H2Y14728   2.589   4.623  10.444  1.3843 -1.5874  0.0939
  136SAPE   C2314729   2.096   4.247  10.288 -0.2652 -0.1511 -0.2326
  136SAPE   H3R14730   2.021   4.184  10.341 -0.2805 -0.9604 -1.1776
  136SAPE   H3S14731   2.191   4.206  10.330 -0.3474  0.6382  0.7616
  136SAPE   C2414732   2.076   4.248  10.135  0.4663 -0.3341  0.0750
  136SAPE   H4R14733   2.143   4.331  10.105  0.4247 -0.4455 -0.3331
  136SAPE   H4S14734   1.969   4.270  10.115  0.3558 -2.2073 -1.6959
  136SAPE   C2514735   2.124   4.116  10.078 -0.3261  0.0414  0.1529
  136SAPE   H5R14736   2.089   4.023  10.126 -3.0992  1.0361  0.2529
  136SAPE   C2614737   2.211   4.089   9.980 -0.3273 -0.2891 -0.1847
  136SAPE   H6R14738   2.245   3.986   9.964 -1.5319 -0.7786  0.3229
  136SAPE   C2714739   2.278   4.193   9.893 -0.0820  0.0150 -0.2948
  136SAPE   H7R14740   2.220   4.287   9.888 -1.8036 -0.8181  2.2232
  136SAPE   H7S14741   2.287   4.163   9.786  0.3556  1.7889 -0.7919
  136SAPE   C2814742   2.407   4.242   9.951 -0.0375  0.1573  0.0290
  136SAPE   H8R14743   2.417   4.257  10.059 -0.3476  0.4970  0.0125
  136SAPE   C2914744   2.508   4.280   9.874 -0.3835 -0.7051  0.3633
  136SAPE   H9R14745   2.592   4.333   9.923 -1.6279  1.6433  0.1184
  136SAPE  C21014746   2.527   4.282   9.723 -0.1048 -0.3275 -0.9860
  136SAPE  H10R14747   2.536   4.390   9.697  0.8692  0.5664  2.4553
  136SAPE  H10S14748   2.425   4.264   9.685 -1.0815 -1.1489  1.7649
  136SAPE  C21114749   2.634   4.198   9.663 -0.1774  0.4657  0.5952
  136SAPE  H11R14750   2.695   4.141   9.735 -0.1100 -1.2336 -0.7321
  136SAPE  C21214751   2.677   4.201   9.537  0.4271 -0.2888  0.0956
  136SAPE  H12R14752   2.758   4.131   9.509  0.4877 -0.7440  1.3527
  136SAPE  C21314753   2.616   4.294   9.431 -1.1461 -0.8740 -0.2779
  136SAPE  H13R14754   2.538   4.363   9.469 -1.8819 -1.4358 -0.7336
  136SAPE  H13S14755   2.555   4.234   9.360  0.5471 -2.2277 -0.6513
  136SAPE  C21414756   2.716   4.384   9.363 -0.2721  0.2154 -0.6802
  136SAPE  H14R14757   2.766   4.465   9.419  0.6631 -1.7175  1.4326
  136SAPE  C21514758   2.755   4.367   9.234  0.4248  0.1291 -0.3645
  136SAPE  H15R14759   2.830   4.437   9.196  0.4622  0.1870 -0.1845
  136SAPE  C21614760   2.729   4.258   9.131  0.0254  0.0290  0.1809
  136SAPE  H16R14761   2.675   4.289   9.039 -0.3706 -1.2667 -0.0442
  136SAPE  H16S14762   2.656   4.185   9.171  1.0146 -0.6516  0.8015
  136SAPE  C21714763   2.856   4.182   9.080 -0.5998 -0.1757 -0.6055
  136SAPE  H17R14764   2.821   4.097   9.019  1.2128  0.7656 -3.0984
  136SAPE  H17S14765   2.902   4.144   9.174  1.0583 -0.4897 -1.5109
  136SAPE  C21814766   2.957   4.259   8.990 -0.2677 -0.0772  0.1428
  136SAPE  H18R14767   3.033   4.186   8.955  1.0200  1.1264  0.3260
  136SAPE  H18S14768   3.020   4.321   9.057 -0.3345  0.2262 -0.0745
  136SAPE  C21914769   2.900   4.363   8.893 -0.1112  0.0393  0.5274
  136SAPE  H19R14770   2.977   4.444   8.894  0.0266 -0.0685  2.5384
  136SAPE  H19S14771   2.803   4.395   8.937 -1.0507 -1.0307 -0.6898
  136SAPE  C22014772   2.892   4.313   8.747  0.4757 -0.0699  0.4664
  136SAPE  H20R14773   2.830   4.225   8.722  3.9541 -1.8041 -3.3597
  136SAPE  H20S14774   2.998   4.293   8.720  1.2148  4.2535 -0.6989
  136SAPE  H20T14775   2.858   4.399   8.685  0.4613 -1.3941 -1.4470
  136SAPE   C3314776   2.455   4.632  10.269  0.1926  0.4619  0.6093
  136SAPE   H3X14777   2.541   4.685  10.223 -0.0567  2.0273  1.8807
  136SAPE   H3Y14778   2.382   4.710  10.296 -0.7413 -0.3405  0.4660
  136SAPE   C3414779   2.388   4.531  10.178  0.4350  0.4993 -0.0054
  136SAPE   H4X14780   2.308   4.485  10.239  1.8581 -0.3680  1.2631
  136SAPE   H4Y14781   2.464   4.457  10.145  0.2572  0.3344 -0.0437
  136SAPE   C3514782   2.329   4.591  10.050 -0.5558 -0.4200 -0.5916
  136SAPE   H5X14783   2.262   4.678  10.069  1.2095  0.8495  0.0100
  136SAPE   H5Y14784   2.275   4.511   9.994  0.2353 -3.0254  2.1025
  136SAPE   C3614785   2.446   4.649   9.963  0.1388 -0.9086  0.0844
  136SAPE   H6X14786   2.519   4.569   9.942 -0.4427 -1.2526 -0.6605
  136SAPE   H6Y14787   2.508   4.730  10.008 -0.4786 -0.5271  0.2609
  136SAPE   C3714788   2.398   4.721   9.838 -0.0704 -0.0731  1.0886
  136SAPE   H7X14789   2.365   4.825   9.858  1.3555  1.1439 -2.1452
  136SAPE   H7Y14790   2.308   4.665   9.803 -0.6887  0.3309  2.0111
  136SAPE   C3814791   2.507   4.716   9.726  0.3833  0.3622  0.5517
  136SAPE   H8X14792   2.547   4.613   9.723 -1.4282 -0.3453 -0.5740
  136SAPE   H8Y14793   2.586   4.790   9.753  1.5589 -1.3240  1.9526
  136SAPE   C3914794   2.466   4.768   9.589  0.7922  0.1804  0.0941
  136SAPE   H9X14795   2.443   4.877   9.595 -0.6843 -0.0983 -0.0217
  136SAPE   H9Y14796   2.366   4.735   9.553  1.1684  0.9354 -1.7434
  136SAPE  C31014797   2.556   4.743   9.466 -0.9821  0.3116 -0.0396
  136SAPE  H10X14798   2.566   4.634   9.449 -3.5189  0.3892 -2.6200
  136SAPE  H10Y14799   2.657   4.788   9.482 -1.3381  0.9428  0.4663
  136SAPE  C31114800   2.492   4.790   9.335 -0.5033  0.1824 -0.0093
  136SAPE  H11X14801   2.452   4.893   9.344 -1.6726 -0.3076  0.6388
  136SAPE  H11Y14802   2.404   4.725   9.317 -0.1731 -0.6551  1.2691
  136SAPE  C31214803   2.606   4.775   9.228  0.5544 -0.4276  0.2613
  136SAPE  H12X14804   2.641   4.671   9.243 -0.3923 -0.7866  0.0458
  136SAPE  H12Y14805   2.694   4.838   9.255 -0.4744  1.4809 -0.6316
  136SAPE  C31314806   2.566   4.815   9.084 -0.6395 -0.4163 -0.0119
  136SAPE  H13X14807   2.535   4.922   9.087 -0.2699 -0.2875 -0.7390
  136SAPE  H13Y14808   2.479   4.746   9.077 -0.0145 -1.6557  2.7821
  136SAPE  C31414809   2.680   4.784   9.000 -0.1729 -0.3875  1.0728
  136SAPE  H14X14810   2.703   4.675   9.000  0.0478 -0.3428  0.2680
  136SAPE  H14Y14811   2.777   4.823   9.039 -0.5027  0.4661  1.0590
  136SAPE  C31514812   2.663   4.823   8.850  0.4870 -0.1325  0.0714
  136SAPE  H15X14813   2.562   4.785   8.823 -0.6998  2.1029  1.0158
  136SAPE  H15Y14814   2.735   4.779   8.778  0.2146 -0.2699 -0.1173
  136SAPE  C31614815   2.650   4.973   8.820  0.3973  0.8804  0.4728
  136SAPE  H16X14816   2.581   5.026   8.890 -0.8925  1.0903 -0.9022
  136SAPE  H16Y14817   2.602   4.971   8.720  1.3681  2.8727 -0.0877
  136SAPE  C31714818   2.777   5.057   8.805  0.1485  0.0570 -0.3035
  136SAPE  H17X14819   2.842   5.040   8.894  1.2599  1.5366 -0.7831
  136SAPE  H17Y14820   2.742   5.162   8.815 -0.3050  0.0698 -1.7261
  136SAPE  C31814821   2.859   5.018   8.677  0.1075  0.4873  0.2096
  136SAPE  H18X14822   2.955   5.072   8.688 -1.2506  3.4261 -1.2302
  136SAPE  H18Y14823   2.817   5.065   8.585 -1.9302  1.0574  1.3571
  136SAPE  H18Z14824   2.875   4.908   8.671  0.5754  0.5545  0.1840
  137SAPE     N14825   1.381   0.220  10.865  0.4204 -0.0251  0.7410
  137SAPE   HN114826   1.454   0.147  10.879 -1.6572 -2.4958 -0.6466
  137SAPE   HN214827   1.290   0.171  10.871  0.9075 -0.8079  2.6043
  137SAPE   HN314828   1.382   0.263  10.770  0.2874 -1.2095  0.1860
  137SAPE   C1214829   1.369   0.327  10.977  0.2221  0.5333  0.5257
  137SAPE  H12A14830   1.468   0.377  10.984 -0.4753  2.3519 -1.4657
  137SAPE  H12B14831   1.356   0.274  11.074 -0.7109 -0.3513 -0.0653
  137SAPE   C1114832   1.250   0.423  10.950 -0.3625  0.0610  0.7748
  137SAPE  H11A14833   1.274   0.463  10.849 -1.5587  2.1047  1.2325
  137SAPE  H11B14834   1.247   0.508  11.021 -0.8265  1.1282 -0.4856
  137SAPE     P14835   1.008   0.432  10.902  0.4149 -0.5079 -0.0561
  137SAPE   O1314836   0.903   0.332  10.908 -0.2361  0.1281  0.6159
  137SAPE   O1414837   0.988   0.565  10.969  0.1222 -0.5857 -0.2098
  137SAPE   O1214838   1.129   0.351  10.956 -0.1900 -0.6654 -0.2886
  137SAPE   O1114839   1.046   0.457  10.753 -0.0827  0.1747 -0.0907
  137SAPE    C114840   1.082   0.347  10.674 -0.3294 -0.2228  0.0681
  137SAPE    HA14841   1.187   0.314  10.688 -0.1551  0.7184  1.1521
  137SAPE    HB14842   1.018   0.256  10.682  0.4889 -0.7845  0.2503
  137SAPE    C214843   1.075   0.385  10.521  0.3708  0.3407 -0.2976
  137SAPE    HS14844   1.125   0.484  10.525 -0.3914  0.6978  0.7690
  137SAPE   O2114845   0.939   0.387  10.476 -0.0009  0.1154  0.1739
  137SAPE   C2114846   0.928   0.469  10.371  0.3710  0.9137 -0.6663
  137SAPE   O2214847   1.002   0.556  10.335 -0.4165  0.0743 -0.2500
  137SAPE   C2214848   0.798   0.429  10.298 -0.2524 -0.3810 -0.2302
  137SAPE   H2R14849   0.710   0.485  10.337  1.1419  2.0407 -0.3248
  137SAPE   H2S14850   0.814   0.474  10.197  1.3155  0.7490  0.4749
  137SAPE    C314851   1.151   0.278  10.428 -0.1763  0.2435  0.3057
  137SAPE    HX14852   1.116   0.176  10.454  0.6470  0.1204  0.9782
  137SAPE    HY14853   1.255   0.290  10.465  0.6266  2.3386 -2.2808
  137SAPE   O3114854   1.152   0.307  10.285  0.7543  0.4521  0.9246
  137SAPE   C3114855   1.203   0.215  10.201  0.5959 -0.1141 -0.0751
  137SAPE   O3214856   1.236   0.103  10.233 -0.0731 -0.0987  0.0340
  137SAPE   C3214857   1.211   0.272  10.060  0.2049  0.1908  0.4611
  137SAPE   H2X14858   1.317   0.274  10.029 -0.5328 -0.0891 -2.3842
  137SAPE   H2Y14859   1.165   0.373  10.059 -0.5066 -0.1258  0.5911
  137SAPE   C2314860   0.787   0.281  10.277  1.1535  0.7347  0.5561
  137SAPE   H3R14861   0.760   0.239  10.376 -0.0508 -2.4439 -0.9726
  137SAPE   H3S14862   0.889   0.239  10.265  0.8344 -0.4274  1.6367
  137SAPE   C2414863   0.713   0.245  10.140 -0.0668 -0.0713  0.5105
  137SAPE   H4R14864   0.760   0.314  10.067  0.3399 -1.3238 -0.4477
  137SAPE   H4S14865   0.606   0.261  10.166 -0.1608  0.6783 -0.3306
  137SAPE   C2514866   0.727   0.099  10.114  0.5041  0.4120  0.9053
  137SAPE   H5R14867   0.706   0.041  10.206 -1.1979 -0.9849 -0.3019
  137SAPE   C2614868   0.760   0.036  10.001  0.0543 -0.1774  0.5011
  137SAPE   H6R14869   0.745  -0.072   9.987  1.2198 -0.0431 -2.4546
  137SAPE   C2714870   0.789   0.098   9.870 -0.3553  0.1306  0.1667
  137SAPE   H7R14871   0.872   0.041   9.824 -1.8768 -2.0353 -0.0980
  137SAPE   H7S14872   0.826   0.201   9.886  1.3493 -0.3707 -0.3616
  137SAPE   C2814873   0.675   0.104   9.769 -0.0397 -0.1285 -0.1811
  137SAPE   H8R14874   0.590   0.169   9.793 -0.2025  0.1476 -1.4153
  137SAPE   C2914875   0.661   0.030   9.659  1.0071  0.0239 -0.1288
  137SAPE   H9R14876   0.561   0.045   9.614  1.2430  0.2618 -0.5762
  137SAPE  C21014877   0.761  -0.070   9.613  0.7148  0.8247  0.0491
  137SAPE  H10R14878   0.845  -0.088   9.683 -1.2879 -1.0691  2.1488
  137SAPE  H10S14879   0.801  -0.033   9.516 -0.7545 -0.6968 -1.1886
  137SAPE  C21114880   0.686  -0.205   9.604 -0.9473  0.0545 -0.1183
  137SAPE  H11R14881   0.631  -0.227   9.697 -0.2934  0.7898  0.4602
  137SAPE  C21214882   0.659  -0.283   9.499 -0.9141  0.7910 -0.1787
  137SAPE  H12R14883   0.597  -0.373   9.516 -0.7492  0.5890 -0.6168
  137SAPE  C21314884   0.711  -0.267   9.356  0.5858 -0.0546  0.2134
  137SAPE  H13R14885   0.763  -0.360   9.324  2.1411  1.0846 -0.7656
  137SAPE  H13S14886   0.793  -0.191   9.357  1.1691 -0.6518 -0.5927
  137SAPE  C21414887   0.605  -0.224   9.260 -0.1707  0.2789 -0.4626
  137SAPE  H14R14888   0.502  -0.247   9.292 -0.0304  1.0950  0.6363
  137SAPE  C21514889   0.621  -0.187   9.129 -0.3856  0.6756  0.5201
  137SAPE  H15R14890   0.538  -0.172   9.059  0.0430 -0.6526 -0.3259
  137SAPE  C21614891   0.755  -0.183   9.063 -0.3209 -0.2686  0.0006
  137SAPE  H16R14892   0.744  -0.224   8.960  1.1903 -3.2434  0.9232
  137SAPE  H16S14893   0.831  -0.251   9.107  1.2069  0.8058 -0.8739
  137SAPE  C21714894   0.826  -0.045   9.063 -0.4652  0.3576 -0.4228
  137SAPE  H17R14895   0.754   0.021   9.010 -0.6815 -2.5473 -4.2160
  137SAPE  H17S14896   0.905  -0.072   8.990 -1.7497 -1.9903 -1.0364
  137SAPE  C21814897   0.880   0.016   9.199 -0.0136 -0.1209  0.3950
  137SAPE  H18R14898   0.930  -0.067   9.252 -2.8251 -1.8334  0.5497
  137SAPE  H18S14899   0.792   0.052   9.258  0.8635 -0.9088  2.2510
  137SAPE  C21914900   0.970   0.136   9.182 -0.0190 -0.3479  0.0716
  137SAPE  H19R14901   0.915   0.218   9.131 -0.5518 -0.6484  0.1525
  137SAPE  H19S14902   1.049   0.106   9.110  0.4525  1.8395 -0.3797
  137SAPE  C22014903   1.029   0.192   9.303 -0.0789  0.2967 -0.4522
  137SAPE  H20R14904   1.101   0.120   9.349 -2.0038 -1.6311 -0.2872
  137SAPE  H20S14905   0.951   0.202   9.381 -0.5474 -1.5232 -0.6478
  137SAPE  H20T14906   1.086   0.283   9.277 -0.1069  0.5619  0.3995
  137SAPE   C3314907   1.131   0.177   9.961 -0.1426 -0.1122  0.0609
  137SAPE   H3X14908   1.028   0.170  10.003  0.2921 -2.1030  0.9066
  137SAPE   H3Y14909   1.171   0.074   9.965 -0.0678 -0.0272  2.4122
  137SAPE   C3414910   1.119   0.217   9.815  0.0017 -0.0304  0.7143
  137SAPE   H4X14911   1.070   0.316   9.802 -2.3773 -0.9593  1.8658
  137SAPE   H4Y14912   1.050   0.150   9.761 -1.2391  0.8761  1.1148
  137SAPE   C3514913   1.254   0.213   9.754 -0.0830 -0.5559  0.7374
  137SAPE   H5X14914   1.283   0.106   9.762  3.6749  0.2489 -0.1662
  137SAPE   H5Y14915   1.331   0.273   9.806 -0.0555 -0.6637  0.8210
  137SAPE   C3614916   1.275   0.269   9.607  0.7250  0.0768  1.2111
  137SAPE   H6X14917   1.241   0.374   9.595 -1.3382 -0.5487  1.1533
  137SAPE   H6Y14918   1.213   0.203   9.543  1.0739 -0.2792  1.2353
  137SAPE   C3714919   1.426   0.285   9.577 -0.3449  0.2625 -0.3956
  137SAPE   H7X14920   1.476   0.188   9.595  2.0657  1.4736 -0.0446
  137SAPE   H7Y14921   1.464   0.367   9.641 -0.6296  0.2904 -0.2619
  137SAPE   C3814922   1.459   0.323   9.431  0.1184  0.6928 -0.2250
  137SAPE   H8X14923   1.570   0.327   9.421  0.1790  0.2690  0.2451
  137SAPE   H8Y14924   1.421   0.424   9.407 -4.2938 -0.8473 -0.4961
  137SAPE   C3914925   1.405   0.218   9.332 -0.1549 -0.0009 -0.1695
  137SAPE   H9X14926   1.295   0.204   9.331 -0.2670  0.8566 -0.3220
  137SAPE   H9Y14927   1.473   0.132   9.351  0.4756  0.4532 -0.3588
  137SAPE  C31014928   1.443   0.268   9.187  0.0269 -0.0363 -0.1782
  137SAPE  H10X14929   1.428   0.378   9.190  2.1087  0.2651  2.0469
  137SAPE  H10Y14930   1.375   0.221   9.113  0.0230  1.6581 -1.3043
  137SAPE  C31114931   1.592   0.232   9.150  0.4548 -0.5221 -0.6612
  137SAPE  H11X14932   1.607   0.124   9.170  0.2872 -0.7750 -1.8487
  137SAPE  H11Y14933   1.657   0.287   9.221 -1.2497 -1.0698  1.4758
  137SAPE  C31214934   1.627   0.263   9.009  0.2306 -0.1324  0.0280
  137SAPE  H12X14935   1.588   0.365   8.991  2.4987  0.4808 -1.9812
  137SAPE  H12Y14936   1.575   0.191   8.942  2.7963 -0.6001 -1.6406
  137SAPE  C31314937   1.782   0.257   8.989 -0.2446  0.0135 -0.7311
  137SAPE  H13X14938   1.823   0.155   9.009 -0.8989  0.1210  1.5122
  137SAPE  H13Y14939   1.825   0.324   9.067  0.4852 -2.1796  0.8529
  137SAPE  C31414940   1.829   0.291   8.848  0.2636  0.2288 -0.9462
  137SAPE  H14X14941   1.757   0.359   8.798 -0.5165  0.7217  0.7691
  137SAPE  H14Y14942   1.837   0.197   8.789 -1.5059 -0.6072  0.0493
  137SAPE  C31514943   1.974   0.348   8.856  0.7406  0.5042  0.1261
  137SAPE  H15X14944   2.045   0.279   8.906  0.1065 -1.8041 -1.9539
  137SAPE  H15Y14945   1.959   0.446   8.907  0.5445  1.0415 -0.9306
  137SAPE  C31614946   2.040   0.377   8.719 -0.4198 -0.1124 -0.5378
  137SAPE  H16X14947   2.054   0.283   8.663 -2.0037 -0.1210 -0.9696
  137SAPE  H16Y14948   2.141   0.419   8.740 -0.7036  0.5771 -0.5190
  137SAPE  C31714949   1.964   0.478   8.632 -0.5532  0.0099 -0.2142
  137SAPE  H17X14950   1.931   0.568   8.687  1.0559  1.4148 -1.4486
  137SAPE  H17Y14951   1.875   0.425   8.590  0.0977 -0.0543 -1.5690
  137SAPE  C31814952   2.043   0.526   8.513  0.1671  0.3547 -0.0329
  137SAPE  H18X14953   1.983   0.597   8.452 -2.0624 -1.4124 -0.0376
  137SAPE  H18Y14954   2.066   0.442   8.444 -1.0587  0.7699 -0.9935
  137SAPE  H18Z14955   2.127   0.582   8.559  0.8947 -0.1969 -0.6700
  138SAPE     N14956   4.712   6.784  10.766 -0.0434 -0.1742  0.3981
  138SAPE   HN114957   4.695   6.689  10.806  0.4255 -1.7868 -2.8827
  138SAPE   HN214958   4.778   6.755  10.691 -1.1739 -1.4314 -0.1799
  138SAPE   HN314959   4.753   6.850  10.835 -0.5639  1.4719 -0.7968
  138SAPE   C1214960   4.590   6.838  10.691  0.3224  0.1008  0.0208
  138SAPE  H12A14961   4.506   6.838  10.764 -0.7268  1.4362 -1.1382
  138SAPE  H12B14962   4.554   6.765  10.615 -0.0286  0.1274  0.1598
  138SAPE   C1114963   4.608   6.982  10.642  0.5556  0.0190 -0.1146
  138SAPE  H11A14964   4.649   7.037  10.729  1.4701  0.4909 -0.8334
  138SAPE  H11B14965   4.508   7.027  10.623  1.3298  1.3402 -1.2596
  138SAPE     P14966   4.816   7.080  10.516 -0.3864 -0.5178 -0.3065
  138SAPE   O1314967   4.828   7.151  10.646 -0.3054 -0.1869 -0.0764
  138SAPE   O1414968   4.937   7.024  10.452  0.2940 -0.5135 -0.1167
  138SAPE   O1214969   4.690   6.986  10.530 -0.0273 -0.5350  0.6860
  138SAPE   O1114970   4.746   7.183  10.416  0.7060  1.0178  0.2715
  138SAPE    C114971   4.822   7.289  10.350 -0.0859 -0.7221 -0.3265
  138SAPE    HA14972   4.862   7.355  10.429 -2.1444  0.7579 -0.4495
  138SAPE    HB14973   4.917   7.252  10.306 -0.0284  1.7814 -2.5834
  138SAPE    C214974   4.745   7.356  10.234 -0.7325 -0.6648 -1.2270
  138SAPE    HS14975   4.638   7.359  10.263 -0.1486 -0.2966  1.1394
  138SAPE   O2114976   4.763   7.290  10.110 -0.3008  0.0467 -0.2537
  138SAPE   C2114977   4.673   7.193  10.086 -0.2634 -0.8605  0.1514
  138SAPE   O2214978   4.594   7.155  10.170 -0.5247 -0.6414  0.1476
  138SAPE   C2214979   4.710   7.135   9.947  0.4767  0.1448  0.4518
  138SAPE   H2R14980   4.696   7.215   9.871  0.3382  0.0179  0.3410
  138SAPE   H2S14981   4.812   7.091   9.947  0.6368  0.2560 -2.7395
  138SAPE    C314982   4.786   7.509  10.222  0.3062 -0.0957  0.0446
  138SAPE    HX14983   4.881   7.509  10.165  1.4533 -1.9050  1.8186
  138SAPE    HY14984   4.811   7.544  10.325  1.4395  1.6050 -0.7631
  138SAPE   O3114985   4.694   7.587  10.142 -0.6274  0.1518  0.6593
  138SAPE   C3114986   4.664   7.709  10.175  0.1249  0.6143  0.2048
  138SAPE   O3214987   4.704   7.763  10.277 -0.6159 -0.1656 -0.2711
  138SAPE   C3214988   4.568   7.768  10.076  0.5346  0.0298 -0.4236
  138SAPE   H2X14989   4.461   7.741  10.091 -0.6547  3.2576 -2.1334
  138SAPE   H2Y14990   4.597   7.730   9.976 -0.3199  0.9230 -1.0319
  138SAPE   C2314991   4.612   7.026   9.909 -0.2678  0.1857  0.2136
  138SAPE   H3R14992   4.510   7.052   9.946 -0.2378 -0.5312  0.8206
  138SAPE   H3S14993   4.626   6.933   9.969 -0.7584  0.8533  1.4057
  138SAPE   C2414994   4.599   7.000   9.759 -0.1072 -0.0265 -0.7482
  138SAPE   H4R14995   4.695   6.973   9.709 -0.1337 -1.1934 -0.1918
  138SAPE   H4S14996   4.576   7.099   9.712  2.1973  1.7139  1.5020
  138SAPE   C2514997   4.504   6.891   9.721  0.3535 -0.0627 -0.5075
  138SAPE   H5R14998   4.460   6.829   9.800 -0.7536  0.2592 -0.8444
  138SAPE   C2614999   4.462   6.866   9.594 -0.0705  0.1676 -0.6418
  138SAPE   H6R15000   4.406   6.774   9.572  0.2190 -0.0585 -0.4431
  138SAPE   C2715001   4.507   6.940   9.474  0.5512  0.8380 -0.0309
  138SAPE   H7R15002   4.610   6.979   9.489  1.6344 -1.5120 -0.7942
  138SAPE   H7S15003   4.444   7.029   9.451  1.5037  1.6108  0.2765
  138SAPE   C2815004   4.511   6.854   9.347  0.6773  0.4444  0.0234
  138SAPE   H8R15005   4.494   6.748   9.372 -2.4192  0.8971  0.2250
  138SAPE   C2915006   4.540   6.902   9.225  0.5748 -0.4708 -0.1748
  138SAPE   H9R15007   4.533   6.831   9.141  0.3148 -1.5460  0.7246
  138SAPE  C21015008   4.568   7.040   9.184 -0.2431 -0.3095  0.0363
  138SAPE  H10R15009   4.601   7.103   9.269 -1.8466  2.4031 -1.2110
  138SAPE  H10S15010   4.476   7.083   9.139  2.0803  3.5120 -1.5269
  138SAPE  C21115011   4.689   7.043   9.091  0.3053  0.2497  0.2642
  138SAPE  H11R15012   4.749   6.952   9.104  0.2072  0.1625  0.1051
  138SAPE  C21215013   4.710   7.114   8.977  0.6718 -0.5778 -0.2758
  138SAPE  H12R15014   4.799   7.095   8.915  0.9324  0.9881 -0.4192
  138SAPE  C21315015   4.618   7.217   8.921  0.0148 -0.7008 -0.1135
  138SAPE  H13R15016   4.600   7.295   8.998 -0.1773 -1.8950  1.0949
  138SAPE  H13S15017   4.515   7.176   8.907 -0.5214 -0.4022  2.4317
  138SAPE  C21415018   4.672   7.286   8.800  0.1965 -0.1583  0.4997
  138SAPE  H14R15019   4.724   7.380   8.824 -0.5450  0.2008  0.7204
  138SAPE  C21515020   4.667   7.235   8.677 -0.1927  0.5776  0.1034
  138SAPE  H15R15021   4.701   7.295   8.591  0.4532  0.0840  0.0034
  138SAPE  C21615022   4.602   7.104   8.629  0.1923 -0.3433 -0.7134
  138SAPE  H16R15023   4.497   7.122   8.596  0.5229  1.6439 -0.7574
  138SAPE  H16S15024   4.589   7.028   8.709  0.5185  0.6139  0.2556
  138SAPE  C21715025   4.651   7.043   8.496 -0.2435  0.2944  0.2880
  138SAPE  H17R15026   4.655   7.119   8.416  2.9046 -0.9859 -0.9550
  138SAPE  H17S15027   4.569   6.972   8.473 -0.3216  0.3596  0.3661
  138SAPE  C21815028   4.785   6.966   8.508  0.3882  0.3826 -0.2303
  138SAPE  H18R15029   4.783   6.923   8.610 -1.3423  1.4030  0.2023
  138SAPE  H18S15030   4.866   7.043   8.509  1.1495 -0.3433  2.5975
  138SAPE  C21915031   4.794   6.856   8.391 -0.6529 -0.4067  0.0127
  138SAPE  H19R15032   4.902   6.835   8.376 -0.2383  0.6379  1.2864
  138SAPE  H19S15033   4.761   6.906   8.297 -0.3291 -0.6428 -0.2279
  138SAPE  C22015034   4.710   6.728   8.425  0.5899  0.2920  0.5793
  138SAPE  H20R15035   4.752   6.665   8.506  1.5506 -1.0824 -0.9457
  138SAPE  H20S15036   4.691   6.663   8.338  1.2383  1.1652 -0.2412
  138SAPE  H20T15037   4.613   6.764   8.467 -0.2796 -0.8265 -0.4094
  138SAPE   C3315038   4.576   7.927  10.067 -0.3960 -0.0519  0.4540
  138SAPE   H3X15039   4.682   7.946  10.040  0.1741 -0.0775  2.4902
  138SAPE   H3Y15040   4.567   7.962  10.172  0.1939  0.3907  0.3649
  138SAPE   C3415041   4.482   7.987   9.962 -0.8272  0.3071 -0.3598
  138SAPE   H4X15042   4.502   8.094   9.938 -0.6219  0.1459 -0.9194
  138SAPE   H4Y15043   4.382   7.991  10.010  0.1404  0.4328  1.7731
  138SAPE   C3515044   4.473   7.910   9.832 -0.4048 -0.0806  0.2740
  138SAPE   H5X15045   4.412   7.818   9.846 -0.7151 -0.1083 -1.1283
  138SAPE   H5Y15046   4.577   7.880   9.805  0.1867  0.9616  1.3024
  138SAPE   C3615047   4.406   7.980   9.715 -0.0373 -0.4090 -0.3086
  138SAPE   H6X15048   4.456   8.074   9.685  0.8159 -1.2069 -1.5193
  138SAPE   H6Y15049   4.297   7.992   9.734 -0.5040 -0.9566 -2.3387
  138SAPE   C3715050   4.398   7.884   9.591 -0.6611 -0.0014  0.6825
  138SAPE   H7X15051   4.376   7.780   9.622  0.3921  0.0291  1.6098
  138SAPE   H7Y15052   4.502   7.889   9.552 -0.8531  1.7908  0.3050
  138SAPE   C3815053   4.299   7.930   9.478 -0.1312 -0.5359  0.0339
  138SAPE   H8X15054   4.295   8.041   9.468  0.0493 -0.7442 -2.9718
  138SAPE   H8Y15055   4.196   7.902   9.508 -0.7849  2.3750  0.8357
  138SAPE   C3915056   4.329   7.870   9.346  0.0261 -0.3425 -0.9785
  138SAPE   H9X15057   4.308   7.761   9.350  0.0354 -0.3051  0.1572
  138SAPE   H9Y15058   4.432   7.874   9.304 -0.2939  2.3462 -1.6753
  138SAPE  C31015059   4.242   7.936   9.239 -0.0412  0.0475 -0.5568
  138SAPE  H10X15060   4.280   8.037   9.214  1.7965 -0.3556  0.4662
  138SAPE  H10Y15061   4.143   7.964   9.280  0.4734  0.9624  0.0837
  138SAPE  C31115062   4.242   7.848   9.109 -0.1812  0.1962 -0.0381
  138SAPE  H11X15063   4.219   7.744   9.140  1.9404 -0.2009  0.4001
  138SAPE  H11Y15064   4.347   7.833   9.077  0.5504  0.3242  2.1023
  138SAPE  C31215065   4.160   7.902   8.986 -0.1150 -0.1015 -0.3871
  138SAPE  H12X15066   4.206   7.999   8.956  2.3253 -0.8964  0.5400
  138SAPE  H12Y15067   4.059   7.912   9.031  1.0565 -0.9520  2.7532
  138SAPE  C31315068   4.173   7.819   8.859 -1.2567 -0.4490 -0.0134
  138SAPE  H13X15069   4.126   7.719   8.872  0.8336 -1.2631  2.0210
  138SAPE  H13Y15070   4.280   7.802   8.835 -1.2949 -2.0965  0.8533
  138SAPE  C31415071   4.123   7.892   8.735  0.2386 -0.1950 -0.1451
  138SAPE  H14X15072   4.164   7.851   8.639 -0.0025 -1.6067  0.3269
  138SAPE  H14Y15073   4.155   7.997   8.751 -2.2741  0.6101 -0.0249
  138SAPE  C31515074   3.970   7.882   8.731  0.2194 -0.1520 -0.8376
  138SAPE  H15X15075   3.936   7.912   8.832  1.5430  2.9552 -1.1953
  138SAPE  H15Y15076   3.933   7.780   8.708  0.0309 -0.3785  0.4013
  138SAPE  C31615077   3.907   7.978   8.631 -0.0789 -0.3025 -0.4117
  138SAPE  H16X15078   3.955   7.970   8.532 -0.7666  0.1277 -0.7910
  138SAPE  H16Y15079   3.925   8.081   8.670  0.2799 -0.5950  0.2090
  138SAPE  C31715080   3.753   7.952   8.613  0.6389 -0.4311  0.2495
  138SAPE  H17X15081   3.711   8.043   8.566  0.6139  0.5983  2.1603
  138SAPE  H17Y15082   3.699   7.939   8.710  0.8285 -0.3324  0.3688
  138SAPE  C31815083   3.716   7.834   8.525 -0.1874 -0.4645  0.2511
  138SAPE  H18X15084   3.767   7.739   8.554  1.0287  0.0712 -0.0778
  138SAPE  H18Y15085   3.752   7.849   8.421 -2.3486 -1.1795 -0.6508
  138SAPE  H18Z15086   3.608   7.814   8.513  0.3395 -3.8797  0.1727
  139SAPE     N15087   3.716   4.884  10.845 -0.1854 -0.1148  0.5641
  139SAPE   HN115088   3.796   4.950  10.857 -1.1910  1.0697  1.0134
  139SAPE   HN215089   3.706   4.833  10.935 -0.3338 -2.1684 -0.5589
  139SAPE   HN315090   3.724   4.819  10.764 -1.4129  0.2699  0.1025
  139SAPE   C1215091   3.582   4.963  10.825  0.1008  0.3158  0.0697
  139SAPE  H12A15092   3.567   5.026  10.915  2.5041  1.7052 -0.4091
  139SAPE  H12B15093   3.494   4.899  10.803 -0.1342  1.3486 -2.3105
  139SAPE   C1115094   3.586   5.066  10.710 -0.3772  0.9569 -0.3301
  139SAPE  H11A15095   3.484   5.086  10.670 -1.4816  1.1624  2.4177
  139SAPE  H11B15096   3.651   5.004  10.644 -0.5866 -2.1778  2.1806
  139SAPE     P15097   3.615   5.311  10.812  0.1683  0.5074  0.0493
  139SAPE   O1315098   3.462   5.319  10.798 -0.1832 -0.0825  0.1491
  139SAPE   O1415099   3.669   5.316  10.948 -0.1761 -0.7574 -0.7460
  139SAPE   O1215100   3.668   5.180  10.742 -0.7696 -0.2485 -0.0307
  139SAPE   O1115101   3.669   5.431  10.728 -0.3511  0.1053  0.1693
  139SAPE    C115102   3.799   5.445  10.670 -0.8777  0.2471  0.0793
  139SAPE    HA15103   3.865   5.504  10.737  1.3904  0.9950 -2.6051
  139SAPE    HB15104   3.834   5.345  10.638 -0.7728  0.3352 -0.0815
  139SAPE    C215105   3.806   5.526  10.532  0.0060  0.1850 -0.9718
  139SAPE    HS15106   3.888   5.476  10.476 -0.5935 -1.1540 -0.6924
  139SAPE   O2115107   3.843   5.664  10.567  0.3137 -0.2040  0.4268
  139SAPE   C2115108   3.976   5.677  10.567 -0.0854 -0.6230 -0.3946
  139SAPE   O2215109   4.060   5.589  10.548  0.4987 -0.6624  0.4569
  139SAPE   C2215110   4.015   5.824  10.612 -0.4287  1.0899  0.7954
  139SAPE   H2R15111   3.922   5.884  10.626  0.1344  2.0409  0.5948
  139SAPE   H2S15112   4.065   5.812  10.711  1.3142  0.2854 -0.1399
  139SAPE    C315113   3.681   5.527  10.449 -0.5016  0.7384 -0.2051
  139SAPE    HX15114   3.615   5.614  10.469 -0.8566  0.1420  1.4319
  139SAPE    HY15115   3.621   5.438  10.479 -1.2436  1.4367  0.4409
  139SAPE   O3115116   3.714   5.503  10.313 -1.2171 -0.2573  0.1239
  139SAPE   C3115117   3.730   5.609  10.236 -0.0594  0.7467 -0.7935
  139SAPE   O3215118   3.715   5.726  10.272 -0.9690 -0.3339 -0.1362
  139SAPE   C3215119   3.765   5.564  10.092  0.0938  0.2214  0.5949
  139SAPE   H2X15120   3.756   5.454  10.085  0.0417  0.0545  2.6050
  139SAPE   H2Y15121   3.872   5.590  10.077 -0.5300  2.8136  0.0503
  139SAPE   C2315122   4.102   5.896  10.510 -0.5289 -0.1760 -0.4972
  139SAPE   H3R15123   4.142   5.820  10.440 -0.9637 -0.4705 -0.4288
  139SAPE   H3S15124   4.189   5.932  10.570 -0.5410  0.3625 -0.7917
  139SAPE   C2415125   4.039   6.024  10.447 -0.8839 -0.0673 -0.3479
  139SAPE   H4R15126   4.117   6.101  10.431 -0.7691 -0.3663 -1.2793
  139SAPE   H4S15127   3.989   6.074  10.533 -0.4897 -0.5785  0.1805
  139SAPE   C2515128   3.947   5.980  10.340  0.3734 -0.3702 -0.0217
  139SAPE   H5R15129   3.865   5.918  10.380  1.0437  0.3668  2.6760
  139SAPE   C2615130   3.950   6.019  10.210  0.4318  0.5493 -0.0522
  139SAPE   H6R15131   3.887   5.969  10.135  2.9478  0.1831 -2.0680
  139SAPE   C2715132   4.054   6.109  10.155 -0.2533  0.8635 -0.3226
  139SAPE   H7R15133   4.114   6.040  10.091  1.0048  0.0377  1.6489
  139SAPE   H7S15134   4.122   6.150  10.232 -0.4176 -1.0848  0.9304
  139SAPE   C2815135   4.001   6.221  10.074 -0.2028  0.3388 -0.7360
  139SAPE   H8R15136   3.977   6.308  10.138  2.7065  0.8478 -0.2205
  139SAPE   C2915137   3.967   6.230   9.940  0.2246 -0.2986 -0.6847
  139SAPE   H9R15138   3.946   6.334   9.907 -0.3221  0.0198  0.6191
  139SAPE  C21015139   3.972   6.118   9.843 -0.3910  0.1466 -0.0883
  139SAPE  H10R15140   3.871   6.079   9.819 -0.7990  0.8824  0.3916
  139SAPE  H10S15141   4.029   6.038   9.894 -1.0200 -0.6788 -0.6624
  139SAPE  C21115142   4.026   6.159   9.712 -0.2764  0.0162  0.0709
  139SAPE  H11R15143   4.088   6.249   9.712  0.1858 -0.2999  0.0563
  139SAPE  C21215144   4.016   6.091   9.596  0.0296  0.1674 -0.1088
  139SAPE  H12R15145   4.068   6.119   9.504  0.8500  1.5458  0.7390
  139SAPE  C21315146   3.950   5.957   9.584 -0.1136  0.2032 -0.8094
  139SAPE  H13R15147   3.888   5.938   9.674  0.4248  0.1537 -0.4417
  139SAPE  H13S15148   4.029   5.879   9.583  0.7321  1.0449 -1.2109
  139SAPE  C21415149   3.864   5.941   9.471 -0.0652 -0.7413  0.2175
  139SAPE  H14R15150   3.762   5.980   9.485 -0.5271 -1.5462 -0.8402
  139SAPE  C21515151   3.898   5.898   9.349  0.2942  0.4376 -0.7677
  139SAPE  H15R15152   3.810   5.871   9.290 -1.2032  0.9096  1.1616
  139SAPE  C21615153   4.026   5.845   9.299  0.6149  0.1036 -0.1630
  139SAPE  H16R15154   4.039   5.742   9.339 -1.7335 -0.3271 -0.3298
  139SAPE  H16S15155   4.108   5.910   9.335  0.6668  0.1423 -0.3470
  139SAPE  C21715156   4.022   5.847   9.146 -0.3462 -0.6216 -0.2980
  139SAPE  H17R15157   3.918   5.833   9.110 -1.9902  0.8614  3.3322
  139SAPE  H17S15158   4.073   5.759   9.101 -0.2088 -1.0027  0.5796
  139SAPE  C21815159   4.072   5.975   9.082 -0.8268 -0.2989  0.0730
  139SAPE  H18R15160   4.034   6.068   9.128  3.7693  1.6389  0.4865
  139SAPE  H18S15161   4.044   5.985   8.975 -2.0109 -2.2618  0.1564
  139SAPE  C21915162   4.225   5.989   9.088 -0.0469 -0.3414  0.3563
  139SAPE  H19R15163   4.274   5.906   9.033 -0.3732  0.9232 -1.9513
  139SAPE  H19S15164   4.252   5.980   9.195 -0.7485  3.2993  0.9568
  139SAPE  C22015165   4.266   6.128   9.039 -0.0253 -0.3124  0.2668
  139SAPE  H20R15166   4.370   6.147   9.072  0.2603 -1.6006  0.1897
  139SAPE  H20S15167   4.197   6.198   9.090 -1.4343 -0.5237 -1.2691
  139SAPE  H20T15168   4.273   6.138   8.928  1.0211 -1.7061  0.1755
  139SAPE   C3315169   3.684   5.635   9.985  0.3996 -0.2619  0.1998
  139SAPE   H3X15170   3.708   5.743   9.975 -0.9822  0.0701  0.3146
  139SAPE   H3Y15171   3.576   5.640  10.013  0.4643  3.0523  0.2482
  139SAPE   C3415172   3.705   5.579   9.841 -0.2585  0.5088 -0.1205
  139SAPE   H4X15173   3.677   5.472   9.834 -1.9357  0.8887  0.2211
  139SAPE   H4Y15174   3.812   5.593   9.815  0.2109 -0.5909  1.1503
  139SAPE   C3515175   3.626   5.658   9.742 -0.1903 -0.2668 -0.1453
  139SAPE   H5X15176   3.656   5.764   9.754 -0.4108 -0.1338 -0.7360
  139SAPE   H5Y15177   3.517   5.649   9.760 -0.7849  0.7949 -2.6668
  139SAPE   C3615178   3.656   5.610   9.601  0.1124  0.8415 -0.2509
  139SAPE   H6X15179   3.628   5.505   9.583  1.1051  0.3716  0.8078
  139SAPE   H6Y15180   3.765   5.610   9.579  0.1656  0.7143  0.0127
  139SAPE   C3715181   3.568   5.691   9.497  0.3499 -0.2910 -0.0728
  139SAPE   H7X15182   3.595   5.798   9.493  0.4146 -0.3353 -1.0333
  139SAPE   H7Y15183   3.461   5.684   9.527 -0.0727 -2.0015 -1.8021
  139SAPE   C3815184   3.598   5.631   9.353  0.5729  0.0693  0.2002
  139SAPE   H8X15185   3.561   5.527   9.350 -0.0505  0.1871  2.2355
  139SAPE   H8Y15186   3.709   5.633   9.359  0.5234  1.9107  1.7201
  139SAPE   C3915187   3.533   5.703   9.235  0.0888  0.2010 -0.0245
  139SAPE   H9X15188   3.581   5.802   9.221  1.6707 -0.8380 -2.6118
  139SAPE   H9Y15189   3.426   5.726   9.257 -0.2081 -0.9456 -0.2163
  139SAPE  C31015190   3.542   5.624   9.100 -0.1339  0.4342 -0.9103
  139SAPE  H10X15191   3.515   5.516   9.109 -1.9487  0.6748 -2.5631
  139SAPE  H10Y15192   3.648   5.614   9.068  0.3486  0.1942  0.7170
  139SAPE  C31115193   3.446   5.669   8.992  0.1287  0.3226 -0.3316
  139SAPE  H11X15194   3.342   5.691   9.023 -0.1797 -0.6631 -0.6071
  139SAPE  H11Y15195   3.426   5.584   8.923  1.0440  1.2356 -1.8017
  139SAPE  C31215196   3.501   5.789   8.912  0.0066 -0.8045 -0.4208
  139SAPE  H12X15197   3.608   5.776   8.882  0.8101  4.2876 -0.5336
  139SAPE  H12Y15198   3.495   5.874   8.983 -0.5808 -1.1520 -0.0466
  139SAPE  C31315199   3.421   5.825   8.776 -0.1001 -0.3043  0.1925
  139SAPE  H13X15200   3.312   5.805   8.790 -0.1052  0.9689  2.4851
  139SAPE  H13Y15201   3.462   5.758   8.698  0.3441 -0.0170  0.1753
  139SAPE  C31415202   3.439   5.971   8.730 -0.2679 -0.1309  0.0920
  139SAPE  H14X15203   3.546   6.000   8.718  0.1127 -0.3540  2.4948
  139SAPE  H14Y15204   3.400   6.045   8.802 -0.5135  0.9569 -1.1130
  139SAPE  C31515205   3.364   6.000   8.593  0.1993 -0.0250 -0.0912
  139SAPE  H15X15206   3.254   6.000   8.611  0.1773 -3.4144  0.3763
  139SAPE  H15Y15207   3.399   5.926   8.518 -0.9374 -0.6257 -0.0493
  139SAPE  C31615208   3.391   6.141   8.540  0.4655  0.2488 -1.1824
  139SAPE  H16X15209   3.379   6.211   8.625  0.3537 -1.4504  0.2653
  139SAPE  H16Y15210   3.497   6.142   8.508  1.7779 -0.6449  2.5785
  139SAPE  C31715211   3.314   6.204   8.425 -0.1033  0.3980  0.6310
  139SAPE  H17X15212   3.311   6.135   8.338  2.6326 -2.1866  2.3641
  139SAPE  H17Y15213   3.382   6.282   8.385  0.1060 -0.6261 -1.0908
  139SAPE  C31815214   3.171   6.237   8.458 -0.7763  0.1098 -0.2097
  139SAPE  H18X15215   3.114   6.144   8.481 -0.9541 -0.2540 -2.0208
  139SAPE  H18Y15216   3.137   6.293   8.369 -0.6022 -0.6573 -0.7657
  139SAPE  H18Z15217   3.175   6.291   8.555  1.0418 -0.6775  0.2013
  140SAPE     N15218   4.884   5.669  11.037  0.5448  0.4055  0.4419
  140SAPE   HN115219   4.790   5.631  11.059  0.0256  1.2758 -0.2310
  140SAPE   HN215220   4.939   5.630  11.116  0.6439  0.5242  0.4307
  140SAPE   HN315221   4.882   5.772  11.043 -0.8180  0.4127  0.1690
  140SAPE   C1215222   4.911   5.609  10.895 -0.0899  0.0681  0.1624
  140SAPE  H12A15223   4.981   5.680  10.846 -0.2824  0.2619  0.1642
  140SAPE  H12B15224   4.819   5.604  10.832 -0.2159 -3.8170  0.4276
  140SAPE   C1115225   4.969   5.472  10.901 -0.4811  0.1844  0.0263
  140SAPE  H11A15226   4.996   5.464  10.794  1.5611  1.9293  0.3365
  140SAPE  H11B15227   4.894   5.396  10.929 -0.5745  0.8790  1.8176
  140SAPE     P15228   5.188   5.356  10.983  0.0056 -0.1512 -0.1306
  140SAPE   O1315229   5.300   5.389  10.895 -0.3794  0.4505 -0.2251
  140SAPE   O1415230   5.210   5.312  11.121 -0.4463  0.1764 -0.3750
  140SAPE   O1215231   5.085   5.471  10.989  0.4210 -0.3324 -0.1778
  140SAPE   O1115232   5.100   5.251  10.908 -0.4419  0.6605  0.2183
  140SAPE    C115233   5.176   5.131  10.875  0.3314 -0.3145  0.5839
  140SAPE    HA15234   5.279   5.120  10.916  0.5756  0.2302  0.1253
  140SAPE    HB15235   5.119   5.045  10.916 -0.4160 -1.1651 -2.0839
  140SAPE    C215236   5.175   5.095  10.722 -0.1476  0.1684  1.1136
  140SAPE    HS15237   5.075   5.125  10.684  0.1729  1.2352  1.0820
  140SAPE   O2115238   5.196   4.950  10.706 -0.6486 -0.7165 -0.1085
  140SAPE   C2115239   5.123   4.883  10.620 -0.2245  0.9514  0.0755
  140SAPE   O2215240   5.063   4.925  10.526  0.2293 -0.7603  0.0944
  140SAPE   C2215241   5.132   4.739  10.656 -0.1591  0.7619  0.3426
  140SAPE   H2R15242   5.106   4.678  10.567  1.8223 -0.1555  0.3358
  140SAPE   H2S15243   5.239   4.712  10.674  0.0837 -0.6373 -2.6089
  140SAPE    C315244   5.275   5.189  10.650 -0.5781  0.7405 -0.0881
  140SAPE    HX15245   5.378   5.158  10.678 -0.6383 -0.1647 -0.7933
  140SAPE    HY15246   5.268   5.297  10.675  0.5064  0.6947  0.4299
  140SAPE   O3115247   5.265   5.176  10.502 -0.5634  0.4883 -0.1770
  140SAPE   C3115248   5.326   5.067  10.448 -0.8152  0.3427 -0.3640
  140SAPE   O3215249   5.408   4.993  10.500  0.2590 -0.2424  0.1878
  140SAPE   C3215250   5.282   5.072  10.298 -0.4057  0.8871  0.2540
  140SAPE   H2X15251   5.270   5.180  10.273  0.9266  1.3862  1.5813
  140SAPE   H2Y15252   5.190   5.011  10.285  2.1952 -3.1636 -1.1780
  140SAPE   C2315253   5.063   4.702  10.783 -0.0077 -0.8537 -0.8390
  140SAPE   H3R15254   5.074   4.784  10.858 -1.6954  0.5050 -2.0040
  140SAPE   H3S15255   5.113   4.616  10.832  0.6722  1.5744  3.1639
  140SAPE   C2415256   4.910   4.663  10.771 -0.0694 -0.1578  1.2179
  140SAPE   H4R15257   4.872   4.597  10.852 -0.6423  0.4024  1.4134
  140SAPE   H4S15258   4.912   4.609  10.674  5.6207 -0.5026  1.1876
  140SAPE   C2515259   4.829   4.792  10.769 -0.2877  0.4789  0.0686
  140SAPE   H5R15260   4.867   4.868  10.839 -1.1211  1.2261 -0.2746
  140SAPE   C2615261   4.734   4.821  10.675  0.9315  0.1239 -0.4009
  140SAPE   H6R15262   4.698   4.924  10.665  0.6935  0.5339  3.3427
  140SAPE   C2715263   4.686   4.719  10.571  0.3740 -0.0862 -0.0022
  140SAPE   H7R15264   4.575   4.715  10.566  0.3861 -0.5536  0.1072
  140SAPE   H7S15265   4.706   4.614  10.600  2.0246 -0.1139 -1.1002
  140SAPE   C2815266   4.764   4.724  10.442 -0.0268 -0.0531  0.7394
  140SAPE   H8R15267   4.872   4.739  10.453 -0.0403  1.4965 -0.7923
  140SAPE   C2915268   4.709   4.718  10.316  0.1283 -0.2096  0.7092
  140SAPE   H9R15269   4.779   4.716  10.230 -0.8066 -0.7861 -0.0651
  140SAPE  C21015270   4.567   4.699  10.273 -0.1866 -0.5809 -0.7295
  140SAPE  H10R15271   4.539   4.778  10.199 -0.6597 -2.0018 -2.1267
  140SAPE  H10S15272   4.517   4.718  10.370  0.1865  1.7302 -0.9238
  140SAPE  C21115273   4.526   4.569  10.207  0.3389 -0.2998  0.1272
  140SAPE  H11R15274   4.529   4.492  10.286  3.4051 -0.3208  0.0976
  140SAPE  C21215275   4.490   4.550  10.080 -0.1124  0.3963 -0.7075
  140SAPE  H12R15276   4.490   4.442  10.056  0.8941  0.2634 -0.1996
  140SAPE  C21315277   4.481   4.646   9.968 -0.2117  0.1248  0.5350
  140SAPE  H13R15278   4.575   4.703   9.984  0.0454 -0.6257  1.8282
  140SAPE  H13S15279   4.396   4.706  10.009 -1.7262 -1.0291 -0.8116
  140SAPE  C21415280   4.464   4.584   9.831 -0.3003 -0.3107 -0.4050
  140SAPE  H14R15281   4.389   4.504   9.817  0.2481 -0.8172 -0.5188
  140SAPE  C21515282   4.528   4.617   9.717 -0.3680  0.2167 -0.3704
  140SAPE  H15R15283   4.501   4.565   9.624 -0.8372  1.2537 -0.8277
  140SAPE  C21615284   4.625   4.734   9.710  0.3737  0.8301  0.2772
  140SAPE  H16R15285   4.688   4.728   9.802 -0.8819  0.7738  1.1516
  140SAPE  H16S15286   4.570   4.830   9.703 -0.6439  0.2315 -0.0748
  140SAPE  C21715287   4.715   4.728   9.581  0.6019  0.1386  0.3227
  140SAPE  H17R15288   4.752   4.624   9.570  0.8404  0.3429 -0.9712
  140SAPE  H17S15289   4.797   4.800   9.600  0.6984 -0.6301  3.1985
  140SAPE  C21815290   4.645   4.760   9.451  0.2872  0.0369 -0.4776
  140SAPE  H18R15291   4.604   4.863   9.446  0.5796  0.3648  2.3752
  140SAPE  H18S15292   4.551   4.701   9.446  0.4254 -0.1435 -1.1239
  140SAPE  C21915293   4.734   4.733   9.324  0.4572 -0.0776  0.2498
  140SAPE  H19R15294   4.773   4.629   9.322 -2.5143 -1.3301  1.5271
  140SAPE  H19S15295   4.822   4.800   9.330  1.9022 -1.8535 -0.1431
  140SAPE  C22015296   4.658   4.761   9.194 -0.6595 -0.1304  0.1702
  140SAPE  H20R15297   4.605   4.858   9.204 -0.7963 -0.2320  0.4392
  140SAPE  H20S15298   4.582   4.682   9.176  0.9728 -2.4321  2.5556
  140SAPE  H20T15299   4.728   4.764   9.108 -0.5265 -5.3689 -0.2282
  140SAPE   C3315300   5.393   5.010  10.212  0.4167 -0.3287  0.5730
  140SAPE   H3X15301   5.411   4.907  10.247  0.2337  0.5775  3.6586
  140SAPE   H3Y15302   5.492   5.061  10.220 -0.5456  1.4836  1.7679
  140SAPE   C3415303   5.364   5.006  10.061  0.6678  0.2908 -0.0773
  140SAPE   H4X15304   5.278   4.937  10.050  0.4994  0.6575 -1.1216
  140SAPE   H4Y15305   5.452   4.977  10.001  1.0851 -0.0086  0.6682
  140SAPE   C3515306   5.299   5.130   9.987  0.6714  0.0486  0.6369
  140SAPE   H5X15307   5.212   5.160  10.050  0.1332 -0.4965  0.1710
  140SAPE   H5Y15308   5.261   5.086   9.892  0.2864 -1.6662  1.5397
  140SAPE   C3615309   5.391   5.248   9.955  0.5381  0.8545 -0.3927
  140SAPE   H6X15310   5.466   5.215   9.880  0.1998 -0.0671 -0.3423
  140SAPE   H6Y15311   5.450   5.271  10.046  0.2936  0.4706 -0.1322
  140SAPE   C3715312   5.322   5.386   9.914  0.5931 -0.1156  0.0032
  140SAPE   H7X15313   5.392   5.472   9.923  1.2954 -0.3194 -2.6177
  140SAPE   H7Y15314   5.233   5.396   9.980  0.4374  0.8935 -0.3539
  140SAPE   C3815315   5.277   5.382   9.769 -0.1612 -0.1208  0.2851
  140SAPE   H8X15316   5.200   5.303   9.757 -0.9221  0.3238  1.9613
  140SAPE   H8Y15317   5.353   5.374   9.688 -0.7201  0.6920 -0.3396
  140SAPE   C3915318   5.212   5.515   9.737  0.3193 -0.4669  0.7904
  140SAPE   H9X15319   5.292   5.592   9.736  0.4695 -0.5874  2.0106
  140SAPE   H9Y15320   5.142   5.542   9.818  0.8452  2.8498  0.2630
  140SAPE  C31015321   5.139   5.513   9.601 -0.0581  0.1095 -0.7924
  140SAPE  H10X15322   5.106   5.616   9.575  0.7378  0.3534 -0.8608
  140SAPE  H10Y15323   5.050   5.446   9.604 -0.9754  1.3210  0.5856
  140SAPE  C31115324   5.237   5.481   9.486  0.9395 -0.5461  0.2191
  140SAPE  H11X15325   5.257   5.373   9.504  0.1522 -0.6651  0.4075
  140SAPE  H11Y15326   5.326   5.545   9.502 -0.6418  1.4351  1.5997
  140SAPE  C31215327   5.182   5.504   9.342 -0.4198  0.4599  0.0358
  140SAPE  H12X15328   5.245   5.435   9.282  0.5234  0.7994  0.6111
  140SAPE  H12Y15329   5.199   5.607   9.303  0.3684  0.2591 -0.1821
  140SAPE  C31315330   5.032   5.471   9.324  0.1156  0.3025 -0.3860
  140SAPE  H13X15331   4.977   5.540   9.392 -0.3239 -1.1966  0.8361
  140SAPE  H13Y15332   5.005   5.370   9.360  1.3251  0.4877  1.1303
  140SAPE  C31415333   4.978   5.495   9.181 -0.4253  0.1377  0.7918
  140SAPE  H14X15334   4.967   5.602   9.155  0.9765  0.1351  0.0878
  140SAPE  H14Y15335   4.873   5.460   9.187 -0.3128 -0.2503  0.4734
  140SAPE  C31515336   5.060   5.418   9.082 -0.3445  0.1524 -0.3049
  140SAPE  H15X15337   5.078   5.314   9.115 -0.9909 -0.3876 -1.5970
  140SAPE  H15Y15338   5.159   5.468   9.092  0.6169 -1.5746 -0.6992
  140SAPE  C31615339   5.029   5.426   8.930 -0.6972  0.5219 -0.2893
  140SAPE  H16X15340   5.083   5.511   8.884  2.0472 -1.4067 -0.8809
  140SAPE  H16Y15341   4.922   5.434   8.900 -0.9418 -2.1177 -0.4107
  140SAPE  C31715342   5.080   5.302   8.860 -0.5409  0.2243  0.2102
  140SAPE  H17X15343   5.186   5.281   8.886 -0.1233 -1.8673 -2.6931
  140SAPE  H17Y15344   5.075   5.320   8.751 -0.0638  3.1678  0.6077
  140SAPE  C31815345   4.998   5.173   8.890  0.6338  0.4239  0.4731
  140SAPE  H18X15346   4.891   5.200   8.903  0.0696 -1.3870 -0.1249
  140SAPE  H18Y15347   5.027   5.113   8.979  1.9595  1.7681  0.9887
  140SAPE  H18Z15348   5.003   5.103   8.804  1.9450 -0.9578  1.6238
  141SAPE     N15349   0.527   4.104  11.336  0.2962  0.4511 -0.3834
  141SAPE   HN115350   0.581   4.193  11.330 -0.2964  1.1286  2.6272
  141SAPE   HN215351   0.558   4.062  11.426  1.1278  1.2994 -0.2504
  141SAPE   HN315352   0.569   4.042  11.264  0.2433 -0.1008  0.0588
  141SAPE   C1215353   0.387   4.119  11.312  0.3415 -0.5782  0.2204
  141SAPE  H12A15354   0.352   4.204  11.374  2.2849  1.2038 -0.9954
  141SAPE  H12B15355   0.325   4.031  11.337  2.3630 -2.4550 -1.0251
  141SAPE   C1115356   0.362   4.156  11.167  0.0878 -0.0496 -0.4068
  141SAPE  H11A15357   0.252   4.169  11.151  0.1989  2.6505  0.4012
  141SAPE  H11B15358   0.383   4.070  11.100 -1.1992  0.6431 -1.7717
  141SAPE     P15359   0.363   4.404  11.100  0.2271 -0.0272  0.2332
  141SAPE   O1315360   0.273   4.431  11.213 -0.2202 -0.4446 -0.1051
  141SAPE   O1415361   0.476   4.506  11.073  0.0850  0.8478  0.1968
  141SAPE   O1215362   0.430   4.265  11.120 -0.4398  0.4496 -0.1435
  141SAPE   O1115363   0.276   4.385  10.967  0.3451 -0.0187  0.7967
  141SAPE    C115364   0.191   4.497  10.917 -0.3764  0.2839  0.1456
  141SAPE    HA15365   0.084   4.473  10.936 -0.1581 -0.7905  0.1355
  141SAPE    HB15366   0.213   4.588  10.977  0.2000  0.7255 -0.7234
  141SAPE    C215367   0.208   4.513  10.765  0.3004 -0.5633  0.1754
  141SAPE    HS15368   0.119   4.563  10.721  1.6816  1.5904 -0.3308
  141SAPE   O2115369   0.217   4.389  10.700 -0.4920  0.4594 -0.4491
  141SAPE   C2115370   0.128   4.294  10.712 -0.0372  0.9213 -0.5135
  141SAPE   O2215371   0.027   4.299  10.783 -0.0641 -0.0162 -0.1087
  141SAPE   C2215372   0.149   4.190  10.599  0.8113  0.1734 -0.3088
  141SAPE   H2R15373   0.236   4.223  10.538 -0.6114  2.5285 -1.2039
  141SAPE   H2S15374   0.173   4.095  10.651  1.7459  0.8466  0.5359
  141SAPE    C315375   0.332   4.595  10.728 -0.3756 -0.1708 -0.1573
  141SAPE    HX15376   0.428   4.543  10.752 -0.7558 -1.0043 -0.3944
  141SAPE    HY15377   0.332   4.679  10.800  1.4729  0.4038 -0.7598
  141SAPE   O3115378   0.335   4.654  10.598 -0.0304 -0.3864 -0.5333
  141SAPE   C3115379   0.391   4.584  10.503 -0.4857 -0.8576 -0.3601
  141SAPE   O3215380   0.437   4.474  10.512  0.7380  0.5847  0.1107
  141SAPE   C3215381   0.397   4.676  10.380  0.8950  0.5469  0.7586
  141SAPE   H2X15382   0.478   4.750  10.397  1.4435  0.3770 -1.0030
  141SAPE   H2Y15383   0.300   4.729  10.372  0.3450 -0.4854  0.4237
  141SAPE   C2315384   0.028   4.170  10.503  0.1227 -0.5738 -0.6875
  141SAPE   H3R15385  -0.003   4.265  10.455  0.7264  0.9002  1.6857
  141SAPE   H3S15386  -0.060   4.155  10.568  0.8572  0.7221  0.6677
  141SAPE   C2415387   0.035   4.053  10.409 -0.5181  0.4069  0.0537
  141SAPE   H4R15388  -0.063   4.018  10.370 -0.5042  1.3029 -0.8065
  141SAPE   H4S15389   0.078   3.967  10.465 -0.9503 -0.3238 -0.7170
  141SAPE   C2515390   0.133   4.088  10.299 -0.0704  0.1388 -0.7962
  141SAPE   H5R15391   0.210   4.155  10.339 -1.2030  1.4690 -0.7547
  141SAPE   C2615392   0.149   4.016  10.187 -0.2747  0.3094 -0.0406
  141SAPE   H6R15393   0.226   4.054  10.119  0.1873 -0.2196  0.1762
  141SAPE   C2715394   0.073   3.896  10.151 -0.2901 -0.2153 -0.5667
  141SAPE   H7R15395  -0.030   3.928  10.125 -0.0724  0.9376 -0.0960
  141SAPE   H7S15396   0.064   3.831  10.240  0.3937  0.9700  0.4072
  141SAPE   C2815397   0.127   3.829  10.034  0.4305  0.1669 -0.3706
  141SAPE   H8R15398   0.188   3.744  10.067  1.1077  1.7071  2.7781
  141SAPE   C2915399   0.106   3.851   9.904 -0.0960 -0.1252  0.3361
  141SAPE   H9R15400   0.159   3.785   9.834  1.0448  0.5790  0.5104
  141SAPE  C21015401   0.022   3.960   9.843  0.6164  0.2290  0.0536
  141SAPE  H10R15402  -0.010   4.033   9.920  1.0072  2.0271 -1.4108
  141SAPE  H10S15403  -0.074   3.924   9.800  0.1294  1.5410 -0.0034
  141SAPE  C21115404   0.093   4.047   9.741  0.0100 -0.4628 -0.0277
  141SAPE  H11R15405   0.169   4.119   9.774 -2.1181  1.6652  0.4985
  141SAPE  C21215406   0.092   4.022   9.608 -0.9098  0.5234  0.5732
  141SAPE  H12R15407   0.138   4.088   9.533 -1.3533  2.5703  2.0392
  141SAPE  C21315408   0.016   3.912   9.534  0.0564  0.0032  0.4574
  141SAPE  H13R15409  -0.090   3.945   9.536  0.0866  0.4071 -1.8903
  141SAPE  H13S15410   0.023   3.823   9.600  0.7698  1.2289  2.1161
  141SAPE  C21415411   0.069   3.877   9.398 -0.3844  0.0110 -0.1035
  141SAPE  H14R15412   0.171   3.835   9.403  0.5788  2.1268 -0.9567
  141SAPE  C21515413   0.011   3.885   9.279 -0.3543 -0.4704  0.1460
  141SAPE  H15R15414   0.062   3.844   9.191 -0.1971 -1.6529  0.7625
  141SAPE  C21615415  -0.127   3.945   9.274 -0.1288 -0.3710  0.4412
  141SAPE  H16R15416  -0.121   4.044   9.326  0.5819 -0.9091  1.4170
  141SAPE  H16S15417  -0.195   3.884   9.338  0.4296  0.2567  1.6775
  141SAPE  C21715418  -0.181   3.961   9.123 -0.3468  0.5255 -1.2724
  141SAPE  H17R15419  -0.287   3.989   9.139 -0.6600 -0.8305 -0.7986
  141SAPE  H17S15420  -0.172   3.861   9.076  0.7794  0.7792 -1.6467
  141SAPE  C21815421  -0.115   4.065   9.033  0.6557 -0.7803 -0.3951
  141SAPE  H18R15422  -0.018   4.021   9.003 -0.2273 -2.2191 -1.2046
  141SAPE  H18S15423  -0.116   4.163   9.087  2.3203 -0.1795 -1.4017
  141SAPE  C21915424  -0.198   4.107   8.908  0.3868  0.4905  0.1465
  141SAPE  H19R15425  -0.296   4.153   8.936  0.0107  0.0397 -0.4130
  141SAPE  H19S15426  -0.216   4.015   8.849 -1.8139 -0.0541  1.5333
  141SAPE  C22015427  -0.119   4.207   8.829  0.2469  0.6977  0.3283
  141SAPE  H20R15428  -0.019   4.173   8.796 -0.7055 -0.7893 -1.2583
  141SAPE  H20S15429  -0.097   4.301   8.884  0.7895  0.4506  0.5395
  141SAPE  H20T15430  -0.159   4.227   8.727  1.4676  1.4798 -0.0181
  141SAPE   C3315431   0.431   4.617  10.242  0.3106  0.0936  0.4257
  141SAPE   H3X15432   0.393   4.512  10.236  1.7404 -0.3841 -1.2137
  141SAPE   H3Y15433   0.541   4.612  10.224 -0.0121  0.3315 -2.0464
  141SAPE   C3415434   0.371   4.696  10.125  0.1856 -0.4309 -0.0946
  141SAPE   H4X15435   0.407   4.801  10.127  0.0771 -0.4008  0.3779
  141SAPE   H4Y15436   0.261   4.683  10.114  0.1383 -1.7608  1.5834
  141SAPE   C3515437   0.439   4.653   9.991 -0.1558 -0.2423 -0.4651
  141SAPE   H5X15438   0.422   4.543   9.986  0.6336 -0.3155 -2.5515
  141SAPE   H5Y15439   0.545   4.686   9.985 -0.2572  0.6240  1.7620
  141SAPE   C3615440   0.381   4.739   9.874  0.1590  0.2029  0.2318
  141SAPE   H6X15441   0.386   4.846   9.900 -1.9120  0.4361 -0.1668
  141SAPE   H6Y15442   0.275   4.710   9.859 -0.1759  1.8974 -0.8450
  141SAPE   C3715443   0.464   4.708   9.752  1.0531 -0.7578 -0.1037
  141SAPE   H7X15444   0.479   4.600   9.729  2.3059 -0.9992  1.6487
  141SAPE   H7Y15445   0.570   4.733   9.775  1.2185 -0.7432 -0.8621
  141SAPE   C3815446   0.425   4.796   9.629  0.6764  0.2209 -0.4161
  141SAPE   H8X15447   0.439   4.905   9.640  0.7183  0.0385  1.7808
  141SAPE   H8Y15448   0.320   4.767   9.612  0.3960  1.1310 -0.2766
  141SAPE   C3915449   0.508   4.756   9.503 -0.0235 -0.1032  0.6476
  141SAPE   H9X15450   0.479   4.650   9.485 -1.6251  0.2036  1.1972
  141SAPE   H9Y15451   0.615   4.768   9.529  0.4089  1.4608 -1.5893
  141SAPE  C31015452   0.487   4.838   9.377  0.2614 -0.8809 -0.0069
  141SAPE  H10X15453   0.520   4.941   9.402 -0.1582 -0.9148  0.7112
  141SAPE  H10Y15454   0.378   4.842   9.357 -0.3265 -0.5913  2.7851
  141SAPE  C31115455   0.565   4.770   9.264 -0.5456 -0.2500 -0.6925
  141SAPE  H11X15456   0.514   4.674   9.242 -0.3095 -0.4532 -0.3497
  141SAPE  H11Y15457   0.666   4.739   9.297 -0.8190 -0.2609  0.1447
  141SAPE  C31215458   0.568   4.856   9.139 -0.0277  0.9496 -0.7204
  141SAPE  H12X15459   0.661   4.916   9.152  0.1320  0.2442  1.8063
  141SAPE  H12Y15460   0.473   4.912   9.122 -1.5546 -1.5217 -0.7177
  141SAPE  C31315461   0.592   4.759   9.020  0.5389 -1.1700 -0.5737
  141SAPE  H13X15462   0.519   4.679   8.997 -0.2982 -0.5675 -0.0745
  141SAPE  H13Y15463   0.678   4.695   9.049 -1.2198 -2.1420  3.2213
  141SAPE  C31415464   0.631   4.846   8.900  0.0171 -0.0510 -0.3372
  141SAPE  H14X15465   0.680   4.777   8.829  0.5272  0.6018 -0.6264
  141SAPE  H14Y15466   0.707   4.922   8.927  0.6223  0.0637 -2.2643
  141SAPE  C31515467   0.516   4.916   8.825  0.6292 -0.1845 -0.4529
  141SAPE  H15X15468   0.473   4.995   8.891 -0.6435  0.5299 -2.0815
  141SAPE  H15Y15469   0.443   4.835   8.805 -0.6074 -0.3867  3.7352
  141SAPE  C31615470   0.567   4.999   8.709 -0.3036 -0.7435 -0.0040
  141SAPE  H16X15471   0.638   5.082   8.729 -1.1369  0.9103 -3.2701
  141SAPE  H16Y15472   0.473   5.038   8.666 -1.1071 -0.4984  1.9055
  141SAPE  C31715473   0.633   4.900   8.607 -0.0159 -0.6051 -0.2478
  141SAPE  H17X15474   0.564   4.812   8.611 -1.9613  0.8751  0.3157
  141SAPE  H17Y15475   0.731   4.869   8.648 -0.8545  0.5011  2.8946
  141SAPE  C31815476   0.643   4.952   8.464  0.5776  0.2714  0.0376
  141SAPE  H18X15477   0.687   4.866   8.410 -0.1325 -1.7708  2.5292
  141SAPE  H18Y15478   0.720   5.032   8.452  0.0864  1.0586  1.7799
  141SAPE  H18Z15479   0.545   4.983   8.422  0.8525  2.6406  0.9955
  142SAPE     N15480   0.394   2.629  11.320  0.1566 -0.0902  0.1910
  142SAPE   HN115481   0.339   2.687  11.386 -0.0888  0.6306 -0.6350
  142SAPE   HN215482   0.331   2.548  11.306 -1.9466  1.6844 -1.2510
  142SAPE   HN315483   0.481   2.603  11.372  0.3527 -0.6048 -0.3846
  142SAPE   C1215484   0.413   2.710  11.188 -0.7423 -0.6048 -0.2745
  142SAPE  H12A15485   0.445   2.813  11.214 -0.5493 -0.5273 -0.8121
  142SAPE  H12B15486   0.321   2.707  11.125  0.2557  0.9366 -1.8928
  142SAPE   C1115487   0.532   2.651  11.100  0.9337 -0.5794 -0.9435
  142SAPE  H11A15488   0.623   2.702  11.136  1.7760 -0.7929 -2.6816
  142SAPE  H11B15489   0.513   2.683  10.995 -1.7503  0.7262 -0.1741
  142SAPE     P15490   0.456   2.405  11.015 -0.2883  0.7526  0.2111
  142SAPE   O1315491   0.527   2.273  11.035 -0.0810  0.3004 -0.0390
  142SAPE   O1415492   0.315   2.417  11.061 -0.0134 -0.8885 -0.0960
  142SAPE   O1215493   0.542   2.509  11.105 -0.0957 -0.4144  0.5900
  142SAPE   O1115494   0.480   2.457  10.873  0.2538 -0.3490 -0.1569
  142SAPE    C115495   0.602   2.421  10.800  0.2964  0.0589  0.2187
  142SAPE    HA15496   0.683   2.380  10.864  2.4969  3.1316 -0.3707
  142SAPE    HB15497   0.573   2.349  10.721  1.3541  1.6451 -1.7101
  142SAPE    C215498   0.665   2.548  10.725  0.3520 -0.5431 -0.8581
  142SAPE    HS15499   0.664   2.632  10.798  1.7388 -0.6163 -0.7280
  142SAPE   O2115500   0.599   2.568  10.599  0.3696  0.5332 -0.0722
  142SAPE   C2115501   0.618   2.688  10.555  0.9460  0.3927  0.2481
  142SAPE   O2215502   0.675   2.778  10.614  0.5472  0.0546  0.8086
  142SAPE   C2215503   0.546   2.701  10.422  0.6517 -0.3941 -0.0087
  142SAPE   H2R15504   0.614   2.660  10.343  0.0817 -0.3946 -0.5017
  142SAPE   H2S15505   0.459   2.633  10.421  0.3189 -0.1548 -4.0022
  142SAPE    C315506   0.819   2.539  10.696  0.7585  0.2054 -0.4200
  142SAPE    HX15507   0.869   2.513  10.792  0.7591 -0.6778 -0.6522
  142SAPE    HY15508   0.861   2.636  10.663 -0.3316  0.6610 -0.4855
  142SAPE   O3115509   0.836   2.429  10.604 -0.3458  0.1005  0.6561
  142SAPE   C3115510   0.847   2.463  10.473  0.1830 -0.5893  0.0014
  142SAPE   O3215511   0.858   2.579  10.432 -0.5389 -0.5590 -0.3689
  142SAPE   C3215512   0.855   2.329  10.396  0.2623  0.7076 -0.2722
  142SAPE   H2X15513   0.759   2.279  10.417  0.0240  1.8541  1.5360
  142SAPE   H2Y15514   0.928   2.262  10.447  0.1531  0.9570  0.2180
  142SAPE   C2315515   0.488   2.844  10.380 -0.4893  0.7803 -0.5786
  142SAPE   H3R15516   0.559   2.923  10.411 -1.2558  1.6437 -0.9621
  142SAPE   H3S15517   0.397   2.862  10.442 -1.8209 -2.6720 -1.3017
  142SAPE   C2415518   0.443   2.844  10.229  0.3018 -0.1677  0.1747
  142SAPE   H4R15519   0.414   2.948  10.202 -1.2578 -1.3126 -3.0363
  142SAPE   H4S15520   0.358   2.773  10.230 -1.1899  1.5150  1.3172
  142SAPE   C2515521   0.553   2.809  10.140  0.2222  0.5219  0.1932
  142SAPE   H5R15522   0.645   2.796  10.199 -0.9249 -0.0557  1.9308
  142SAPE   C2615523   0.558   2.808  10.004 -0.2127  0.2759  0.0242
  142SAPE   H6R15524   0.649   2.777   9.950 -0.7446  1.1715 -1.4766
  142SAPE   C2715525   0.450   2.848   9.909 -0.0879  0.1452  0.3387
  142SAPE   H7R15526   0.473   2.946   9.862  0.4525 -0.0470  0.2065
  142SAPE   H7S15527   0.359   2.872   9.969  0.1879  0.5553  0.5946
  142SAPE   C2815528   0.426   2.751   9.796  0.2574 -0.0671  0.1359
  142SAPE   H8R15529   0.357   2.677   9.839  1.1348 -0.3510  1.0993
  142SAPE   C2915530   0.472   2.739   9.665  0.9315  0.0349 -0.4788
  142SAPE   H9R15531   0.434   2.657   9.602  0.2505  0.7046 -0.9723
  142SAPE  C21015532   0.576   2.829   9.605  0.3559  0.9035  1.2288
  142SAPE  H10R15533   0.643   2.865   9.687  1.7744 -1.1866  1.0738
  142SAPE  H10S15534   0.531   2.921   9.562  0.5881  1.1634  1.5325
  142SAPE  C21115535   0.660   2.761   9.500  0.3095  0.0327  0.7774
  142SAPE  H11R15536   0.742   2.701   9.542 -0.0968  0.5673  2.4013
  142SAPE  C21215537   0.638   2.767   9.366  0.6166 -0.3141  0.7434
  142SAPE  H12R15538   0.696   2.698   9.303  0.6956  0.0678  0.3941
  142SAPE  C21315539   0.528   2.849   9.298 -0.4348 -0.5633  0.1316
  142SAPE  H13R15540   0.536   2.952   9.338 -0.4560 -0.5505  0.1032
  142SAPE  H13S15541   0.432   2.813   9.339 -0.7881 -0.7708 -0.8542
  142SAPE  C21415542   0.521   2.845   9.147 -0.2921  0.4774  0.5259
  142SAPE  H14R15543   0.584   2.916   9.093 -0.3952  0.3238  0.2024
  142SAPE  C21515544   0.438   2.770   9.066  0.9246  0.1452  0.5726
  142SAPE  H15R15545   0.447   2.774   8.957 -1.9642 -0.1301  0.2584
  142SAPE  C21615546   0.340   2.666   9.115 -0.3528 -0.0192 -0.8327
  142SAPE  H16R15547   0.341   2.658   9.226  3.3850  2.4830 -0.4772
  142SAPE  H16S15548   0.376   2.566   9.082  0.9916  0.9806 -2.6070
  142SAPE  C21715549   0.205   2.698   9.054  0.2339  0.8586 -0.5345
  142SAPE  H17R15550   0.210   2.690   8.943  0.3939 -2.6454 -0.3885
  142SAPE  H17S15551   0.159   2.797   9.073  0.2826  1.3288 -2.6577
  142SAPE  C21815552   0.100   2.595   9.096  0.2074  0.3240 -0.3645
  142SAPE  H18R15553   0.113   2.585   9.206  3.4109  3.4802 -0.2541
  142SAPE  H18S15554   0.117   2.499   9.043  2.6000  0.2577  0.4067
  142SAPE  C21915555  -0.047   2.642   9.072 -0.2972  0.3198  0.3504
  142SAPE  H19R15556  -0.062   2.739   9.124  0.4823  0.0148  1.1780
  142SAPE  H19S15557  -0.112   2.566   9.122  0.6313  0.6949  2.2045
  142SAPE  C22015558  -0.092   2.653   8.922 -0.6177 -0.0500  0.0059
  142SAPE  H20R15559  -0.059   2.745   8.870 -3.9024 -1.0798 -4.5986
  142SAPE  H20S15560  -0.203   2.654   8.927 -0.6551 -2.9212  1.9594
  142SAPE  H20T15561  -0.068   2.560   8.866 -0.9511 -1.0199  1.4156
  142SAPE   C3315562   0.902   2.355  10.247  0.3302 -0.3372 -0.2207
  142SAPE   H3X15563   0.956   2.260  10.228 -0.4241 -0.4695 -1.9223
  142SAPE   H3Y15564   0.974   2.438  10.232  0.2061 -0.3758 -1.0942
  142SAPE   C3415565   0.785   2.373  10.148 -0.5014 -0.1466 -0.5590
  142SAPE   H4X15566   0.728   2.466  10.169 -2.0335 -1.2670  0.4889
  142SAPE   H4Y15567   0.727   2.278  10.149 -1.1753  0.2550  0.3765
  142SAPE   C3515568   0.835   2.394  10.000 -0.1344 -0.0533  0.1703
  142SAPE   H5X15569   0.885   2.303   9.960  0.4608  0.0160  0.7439
  142SAPE   H5Y15570   0.915   2.471   9.996 -0.5370  0.3152 -1.6852
  142SAPE   C3615571   0.713   2.426   9.916 -0.2050  0.3120  0.4488
  142SAPE   H6X15572   0.651   2.504   9.966 -0.6561  0.9537 -1.0560
  142SAPE   H6Y15573   0.651   2.334   9.906 -1.1776  1.0078 -0.1261
  142SAPE   C3715574   0.754   2.470   9.778  0.0106 -0.2110  0.7114
  142SAPE   H7X15575   0.824   2.556   9.792  0.8239 -0.0058 -3.3594
  142SAPE   H7Y15576   0.656   2.508   9.742  1.5371  1.7383 -1.6848
  142SAPE   C3815577   0.824   2.362   9.697 -0.2371 -0.7333  0.2366
  142SAPE   H8X15578   0.759   2.272   9.690  1.1692 -1.8762  1.2968
  142SAPE   H8Y15579   0.918   2.331   9.748 -0.5732  0.5934  1.7643
  142SAPE   C3915580   0.858   2.402   9.548 -0.3325 -0.4753 -0.1178
  142SAPE   H9X15581   0.930   2.330   9.504  2.2093  1.0800  1.2056
  142SAPE   H9Y15582   0.905   2.503   9.549  0.9925 -1.0740  0.0081
  142SAPE  C31015583   0.737   2.412   9.455  1.0021  0.1998  0.4530
  142SAPE  H10X15584   0.670   2.491   9.495 -0.0869 -0.9890  1.0477
  142SAPE  H10Y15585   0.673   2.320   9.460 -0.0882  0.9154  0.0746
  142SAPE  C31115586   0.765   2.441   9.304 -0.5318 -0.0603  0.3296
  142SAPE  H11X15587   0.846   2.371   9.272 -0.2685  0.3457  0.1031
  142SAPE  H11Y15588   0.813   2.540   9.288 -0.5884  0.0661  0.9161
  142SAPE  C31215589   0.643   2.420   9.221  0.5990 -0.2283  0.1831
  142SAPE  H12X15590   0.661   2.457   9.118  1.7760  0.5913  0.6687
  142SAPE  H12Y15591   0.559   2.489   9.242 -0.2253 -0.5219 -1.8380
  142SAPE  C31315592   0.583   2.276   9.210 -0.6210  0.0131 -0.6922
  142SAPE  H13X15593   0.543   2.240   9.307 -1.2893  0.7088 -0.7036
  142SAPE  H13Y15594   0.665   2.208   9.176  0.0269 -0.2452  1.2248
  142SAPE  C31415595   0.472   2.260   9.099  0.3133  0.3066  0.0867
  142SAPE  H14X15596   0.390   2.328   9.130  1.9701  1.6707  1.6736
  142SAPE  H14Y15597   0.439   2.156   9.121  2.6486  0.0851  3.2998
  142SAPE  C31515598   0.518   2.278   8.959  0.3484  0.0177 -0.2867
  142SAPE  H15X15599   0.569   2.184   8.930 -1.5683 -0.6574 -1.6970
  142SAPE  H15Y15600   0.590   2.361   8.941 -1.1141  1.1969 -0.9210
  142SAPE  C31615601   0.397   2.306   8.863 -0.2521 -0.6799 -0.4979
  142SAPE  H16X15602   0.344   2.402   8.882 -0.3020 -0.4513 -1.6980
  142SAPE  H16Y15603   0.325   2.224   8.883  0.9334 -1.7138 -0.3690
  142SAPE  C31715604   0.418   2.289   8.712  0.0665  0.1504  0.7070
  142SAPE  H17X15605   0.427   2.181   8.685 -0.1302  0.1071  0.8089
  142SAPE  H17Y15606   0.510   2.344   8.685 -0.3865 -0.0189 -1.4302
  142SAPE  C31815607   0.301   2.341   8.634 -0.2749  0.1674  0.0094
  142SAPE  H18X15608   0.208   2.282   8.647  0.0332 -0.2903  0.1488
  142SAPE  H18Y15609   0.322   2.326   8.526  0.0506 -0.0463  0.1043
  142SAPE  H18Z15610   0.281   2.450   8.649 -0.1010  0.1520  0.3479
  143SAPE     N15611   4.680   3.199  11.039 -0.5571 -0.1905 -0.0957
  143SAPE   HN115612   4.638   3.283  11.084 -1.7272 -2.0955  2.6292
  143SAPE   HN215613   4.667   3.117  11.101  3.5081  0.8983  2.7020
  143SAPE   HN315614   4.783   3.218  11.038 -0.0287 -2.7034  0.6976
  143SAPE   C1215615   4.624   3.176  10.905  0.2919 -0.4054 -0.4336
  143SAPE  H12A15616   4.659   3.073  10.881 -1.5440 -1.7943  2.2632
  143SAPE  H12B15617   4.663   3.248  10.830  0.6702 -1.6597 -1.4904
  143SAPE   C1115618   4.464   3.179  10.907 -0.7925 -0.3653  0.0543
  143SAPE  H11A15619   4.431   3.164  10.802 -0.6752 -0.6126  0.0508
  143SAPE  H11B15620   4.443   3.287  10.921  0.2362  0.2860 -2.7398
  143SAPE     P15621   4.349   2.953  10.987 -0.1471 -0.1127 -0.1986
  143SAPE   O1315622   4.459   2.861  10.972 -0.1803  0.3338 -0.2966
  143SAPE   O1415623   4.270   2.929  11.111 -0.1368 -0.3461 -0.2916
  143SAPE   O1215624   4.414   3.092  11.008 -0.1687 -0.3891 -0.1924
  143SAPE   O1115625   4.260   2.970  10.858 -0.9190  0.0824  0.1702
  143SAPE    C115626   4.136   3.044  10.853 -0.2582  0.3761 -0.7286
  143SAPE    HA15627   4.079   3.021  10.945  0.3058  1.3823 -0.1125
  143SAPE    HB15628   4.164   3.152  10.854  1.7876 -0.0842 -1.9169
  143SAPE    C215629   4.053   3.012  10.723  0.2792  0.1599 -0.7772
  143SAPE    HS15630   4.018   2.906  10.721 -0.4705  0.3969 -0.6380
  143SAPE   O2115631   4.137   3.043  10.608 -0.0268  0.5317  0.3427
  143SAPE   C2115632   4.210   2.938  10.570  0.6413 -0.7059  0.4156
  143SAPE   O2215633   4.200   2.824  10.611 -0.0873 -0.4382  0.7517
  143SAPE   C2215634   4.298   2.979  10.453 -0.3645 -0.2963  0.1473
  143SAPE   H2R15635   4.240   2.968  10.359  0.1202  2.4949 -0.5757
  143SAPE   H2S15636   4.324   3.086  10.466 -1.4972 -0.1523  1.4709
  143SAPE    C315637   3.925   3.103  10.744 -0.3857  0.3232  1.2261
  143SAPE    HX15638   3.969   3.197  10.783  1.1675 -0.9248  2.6356
  143SAPE    HY15639   3.862   3.055  10.822 -1.6647 -0.8026 -0.4299
  143SAPE   O3115640   3.852   3.116  10.621  0.2827  0.1797 -0.1885
  143SAPE   C3115641   3.832   3.235  10.565  0.4832 -0.3424 -0.3243
  143SAPE   O3215642   3.869   3.346  10.605  0.2517  0.1053 -0.1170
  143SAPE   C3215643   3.732   3.216  10.455  0.0086  0.0480  0.3325
  143SAPE   H2X15644   3.633   3.181  10.490 -0.6798  0.4750 -1.0900
  143SAPE   H2Y15645   3.786   3.142  10.391  2.6054  2.4645 -0.4872
  143SAPE   C2315646   4.431   2.901  10.453  0.3816  0.2468  0.0811
  143SAPE   H3R15647   4.417   2.794  10.428  1.2903  0.4114 -1.2173
  143SAPE   H3S15648   4.473   2.901  10.556 -1.1528  2.6178  0.7753
  143SAPE   C2415649   4.540   2.959  10.359 -0.2512 -0.4845  0.0041
  143SAPE   H4R15650   4.644   2.947  10.395 -0.5632 -3.4610  0.1236
  143SAPE   H4S15651   4.517   3.068  10.359  1.3552 -0.1131 -0.5550
  143SAPE   C2515652   4.522   2.922  10.210 -0.1314 -0.5747  0.1860
  143SAPE   H5R15653   4.437   2.977  10.168  1.5317  1.5017 -0.5917
  143SAPE   C2615654   4.602   2.844  10.129  0.2712 -0.5775  0.1048
  143SAPE   H6R15655   4.555   2.827  10.031  1.0693  2.4882 -0.9181
  143SAPE   C2715656   4.720   2.759  10.162  1.1794 -0.4222  0.1237
  143SAPE   H7R15657   4.785   2.816  10.233  1.6952  0.2912 -0.8978
  143SAPE   H7S15658   4.784   2.752  10.072 -0.0431 -2.0993 -0.6645
  143SAPE   C2815659   4.678   2.628  10.216  0.1475  0.5709 -0.1608
  143SAPE   H8R15660   4.660   2.618  10.324 -0.2361  0.2918 -0.2463
  143SAPE   C2915661   4.680   2.507  10.147 -0.4356 -0.5448  0.1938
  143SAPE   H9R15662   4.652   2.412  10.196  0.5343 -1.0840 -0.2622
  143SAPE  C21015663   4.718   2.500   9.998  0.7113 -0.3357 -0.1474
  143SAPE  H10R15664   4.827   2.526   9.996  0.9824 -1.3151  0.7184
  143SAPE  H10S15665   4.674   2.576   9.931 -0.9469 -2.1853 -1.2384
  143SAPE  C21115666   4.703   2.360   9.943  0.0785 -0.1578  0.1226
  143SAPE  H11R15667   4.705   2.271  10.008 -2.4476 -1.4485 -1.4047
  143SAPE  C21215668   4.709   2.327   9.817 -0.4249  0.3887  0.0609
  143SAPE  H12R15669   4.692   2.224   9.780  0.3019  0.7815 -1.4553
  143SAPE  C21315670   4.734   2.434   9.714 -0.1406  0.1938  0.3919
  143SAPE  H13R15671   4.794   2.516   9.759  1.7311 -1.1249  0.4209
  143SAPE  H13S15672   4.638   2.484   9.691  0.2914 -0.2752 -2.8585
  143SAPE  C21415673   4.805   2.396   9.585 -0.3818  0.5278  0.0341
  143SAPE  H14R15674   4.870   2.307   9.583 -2.7801 -1.3094 -0.8993
  143SAPE  C21515675   4.812   2.471   9.473  0.2842  0.3622 -0.0381
  143SAPE  H15R15676   4.881   2.425   9.400 -1.1631 -2.2580  0.1360
  143SAPE  C21615677   4.744   2.599   9.427 -0.3341 -0.5967 -0.4334
  143SAPE  H16R15678   4.827   2.671   9.408 -1.9112  0.9917 -1.8346
  143SAPE  H16S15679   4.681   2.644   9.507 -1.2422 -3.4853  0.5845
  143SAPE  C21715680   4.664   2.584   9.299 -0.4645  0.5148 -0.3341
  143SAPE  H17R15681   4.589   2.665   9.281 -1.3187 -0.3057 -0.5188
  143SAPE  H17S15682   4.603   2.491   9.300  1.4962 -0.9305  2.9917
  143SAPE  C21815683   4.744   2.590   9.169 -0.1876  0.0279 -0.3347
  143SAPE  H18R15684   4.819   2.509   9.165 -0.8261 -0.6413  0.8879
  143SAPE  H18S15685   4.790   2.691   9.158 -1.0430  0.2522 -2.2330
  143SAPE  C21915686   4.673   2.562   9.040  0.6079  0.0107  0.0447
  143SAPE  H19R15687   4.578   2.619   9.050  0.9979  0.5286  0.9848
  143SAPE  H19S15688   4.647   2.454   9.051 -2.4004  0.4672 -1.3981
  143SAPE  C22015689   4.764   2.599   8.919  0.3193 -0.6234 -0.2947
  143SAPE  H20R15690   4.867   2.556   8.918  0.6537  0.1452 -0.8657
  143SAPE  H20S15691   4.782   2.709   8.911 -1.1462 -0.4203 -1.0683
  143SAPE  H20T15692   4.709   2.571   8.826  0.4367  0.4066 -0.6908
  143SAPE   C3315693   3.717   3.343  10.372  0.3531  0.5181 -0.0719
  143SAPE   H3X15694   3.819   3.386  10.355  0.5114  0.5084  0.7905
  143SAPE   H3Y15695   3.656   3.411  10.435  1.7058 -0.5279  2.5479
  143SAPE   C3415696   3.654   3.314  10.234 -0.1851 -0.1888 -0.3338
  143SAPE   H4X15697   3.604   3.409  10.207 -1.4677 -0.6229  0.4208
  143SAPE   H4Y15698   3.565   3.247  10.231 -0.2882 -0.0866  0.2511
  143SAPE   C3515699   3.752   3.273  10.118  0.2882 -0.9064 -0.0213
  143SAPE   H5X15700   3.760   3.163  10.107  1.5658 -0.7341 -1.1017
  143SAPE   H5Y15701   3.856   3.299  10.147  1.1015 -1.6535 -2.1128
  143SAPE   C3615702   3.723   3.342   9.986 -0.3646  0.2478  0.2186
  143SAPE   H6X15703   3.793   3.427   9.970 -0.7405  0.2194 -1.8033
  143SAPE   H6Y15704   3.617   3.368   9.967 -0.2567 -0.3630 -1.3106
  143SAPE   C3715705   3.756   3.247   9.869 -0.3542  0.1160 -0.0495
  143SAPE   H7X15706   3.681   3.165   9.877 -0.7384  0.2920 -1.5905
  143SAPE   H7Y15707   3.858   3.204   9.883 -0.6381 -0.8113 -0.7644
  143SAPE   C3815708   3.758   3.318   9.733 -0.1972 -0.0756  0.2511
  143SAPE   H8X15709   3.840   3.392   9.740  1.0473 -1.2834 -0.9034
  143SAPE   H8Y15710   3.658   3.364   9.715 -0.6971 -0.8320  0.9843
  143SAPE   C3915711   3.801   3.228   9.611 -0.0818 -0.2465 -0.1986
  143SAPE   H9X15712   3.884   3.156   9.628  1.6934  1.4201 -1.3283
  143SAPE   H9Y15713   3.832   3.291   9.525  0.3921  0.5929  0.5707
  143SAPE  C31015714   3.689   3.138   9.555 -0.2311  0.2572  0.2755
  143SAPE  H10X15715   3.605   3.199   9.517  1.3029  1.1119 -1.9843
  143SAPE  H10Y15716   3.642   3.077   9.635 -0.0923  0.7167  0.7147
  143SAPE  C31115717   3.718   3.046   9.429  0.2669 -0.1152  0.0221
  143SAPE  H11X15718   3.799   2.972   9.448 -0.1269 -0.0426  2.4044
  143SAPE  H11Y15719   3.754   3.120   9.355 -1.7910  1.4094  0.4688
  143SAPE  C31215720   3.592   2.982   9.378  0.5209 -0.6089  0.5047
  143SAPE  H12X15721   3.507   3.052   9.390  0.4051  0.1339 -3.4467
  143SAPE  H12Y15722   3.575   2.888   9.435  1.3237 -1.3421 -0.4305
  143SAPE  C31315723   3.596   2.966   9.226  0.5808 -0.1420 -0.2618
  143SAPE  H13X15724   3.619   3.055   9.165  0.6992  0.3551  0.4870
  143SAPE  H13Y15725   3.493   2.945   9.192 -0.0390  4.1470 -1.6098
  143SAPE  C31415726   3.674   2.841   9.180 -0.0177 -0.2204 -0.2189
  143SAPE  H14X15727   3.637   2.742   9.213  2.6004 -1.1305  0.1956
  143SAPE  H14Y15728   3.776   2.838   9.222  0.0916  0.6055 -0.4174
  143SAPE  C31515729   3.704   2.847   9.029 -0.3964  0.1989  0.4261
  143SAPE  H15X15730   3.752   2.942   8.997 -1.2142  0.4073 -0.1994
  143SAPE  H15Y15731   3.610   2.836   8.970  1.3606 -0.6574 -2.4183
  143SAPE  C31615732   3.809   2.737   8.991  0.4075  0.3836 -0.0365
  143SAPE  H16X15733   3.784   2.632   9.016 -1.1580  0.5100 -0.9834
  143SAPE  H16Y15734   3.897   2.762   9.055 -0.8173 -1.4985  2.5504
  143SAPE  C31715735   3.855   2.743   8.844 -0.1575 -0.4214  0.2321
  143SAPE  H17X15736   3.929   2.661   8.831 -0.1329  0.0310 -3.4013
  143SAPE  H17Y15737   3.896   2.845   8.831 -1.7259  0.3041  0.8169
  143SAPE  C31815738   3.740   2.717   8.742  0.2174 -0.6497 -0.3298
  143SAPE  H18X15739   3.707   2.611   8.742 -1.5366 -0.1595 -1.7572
  143SAPE  H18Y15740   3.773   2.743   8.639 -0.5440  2.6561  0.1449
  143SAPE  H18Z15741   3.653   2.778   8.775  2.3903  1.9218  1.0100
  144SAPE     N15742   6.066   2.011  11.165 -1.5654  0.3594 -0.4440
  144SAPE   HN115743   6.045   2.080  11.090  0.1632  1.5461  0.1157
  144SAPE   HN215744   6.000   2.031  11.243 -0.6296 -2.6349  1.2547
  144SAPE   HN315745   6.162   2.024  11.202 -2.2323  1.8649  0.8884
  144SAPE   C1215746   6.047   1.865  11.110 -0.8306 -0.6151  0.1585
  144SAPE  H12A15747   6.039   1.800  11.201 -0.3287 -1.4333 -0.3670
  144SAPE  H12B15748   6.139   1.834  11.057 -2.3334 -1.0372 -2.3370
  144SAPE   C1115749   5.927   1.858  11.016 -0.8564 -0.0723 -0.3120
  144SAPE  H11A15750   5.922   1.761  10.963  0.6753 -1.3339  1.7013
  144SAPE  H11B15751   5.944   1.941  10.944  3.3268  2.3076  2.9077
  144SAPE     P15752   5.722   1.997  11.107 -0.3214 -0.1603  0.3617
  144SAPE   O1315753   5.631   1.975  11.221 -1.2213 -0.4278  0.0172
  144SAPE   O1415754   5.817   2.113  11.114 -0.0841 -0.1798  0.0250
  144SAPE   O1215755   5.810   1.871  11.092 -0.3007  0.1212  0.2879
  144SAPE   O1115756   5.632   1.995  10.974 -0.6586  0.5684 -0.0705
  144SAPE    C115757   5.570   1.863  10.950 -0.1524  0.2125 -0.7599
  144SAPE    HA15758   5.652   1.787  10.949 -0.0499  0.2662  0.7211
  144SAPE    HB15759   5.496   1.831  11.026 -0.0742 -1.4117 -1.3213
  144SAPE    C215760   5.498   1.852  10.805 -0.0994 -0.1451  0.0392
  144SAPE    HS15761   5.491   1.742  10.789  0.5352 -0.7905  3.2984
  144SAPE   O2115762   5.575   1.915  10.702 -0.1894 -0.3659 -0.0297
  144SAPE   C2115763   5.696   1.870  10.681  0.2536 -0.2840 -0.3262
  144SAPE   O2215764   5.743   1.775  10.741  0.1906 -0.6190 -0.3385
  144SAPE   C2215765   5.770   1.951  10.576 -0.1606  0.0577  0.5176
  144SAPE   H2R15766   5.697   1.987  10.500  0.0387 -1.6018 -0.5151
  144SAPE   H2S15767   5.798   2.040  10.637  1.1937  2.2560 -2.9588
  144SAPE    C315768   5.358   1.920  10.807  0.4298  0.5130  0.3173
  144SAPE    HX15769   5.379   2.020  10.850 -0.0526  0.1792  1.3843
  144SAPE    HY15770   5.290   1.866  10.877  0.3437  2.0075  1.4441
  144SAPE   O3115771   5.303   1.942  10.675 -0.4175  0.3269  0.1148
  144SAPE   C3115772   5.268   1.830  10.613 -0.1084 -0.7164  0.3322
  144SAPE   O3215773   5.273   1.716  10.652 -0.6399  0.1805  0.0218
  144SAPE   C3215774   5.229   1.870  10.468 -0.0939 -0.2730  0.0690
  144SAPE   H2X15775   5.215   1.981  10.464  0.4255  0.1378  4.4780
  144SAPE   H2Y15776   5.128   1.829  10.444 -1.3864  1.8061  1.5354
  144SAPE   C2315777   5.904   1.872  10.533  0.0916  0.2562 -0.0517
  144SAPE   H3R15778   5.974   1.846  10.615  0.6118  2.8583  0.4091
  144SAPE   H3S15779   5.954   1.931  10.453  1.2224  0.7861  1.0273
  144SAPE   C2415780   5.873   1.730  10.462 -0.4862  0.2590 -0.2288
  144SAPE   H4R15781   5.774   1.748  10.414 -0.9702 -0.2928  0.5403
  144SAPE   H4S15782   5.853   1.652  10.538 -2.9524  2.8398  2.0004
  144SAPE   C2515783   5.978   1.676  10.365  0.0469  0.4899  0.6650
  144SAPE   H5R15784   6.084   1.687  10.393 -0.2117 -0.7617  2.2873
  144SAPE   C2615785   5.950   1.629  10.242 -0.8607  0.0386 -0.3901
  144SAPE   H6R15786   6.042   1.593  10.194 -0.9095 -3.0825  1.5557
  144SAPE   C2715787   5.817   1.603  10.173  0.0908  0.4891 -0.2184
  144SAPE   H7R15788   5.736   1.655  10.228  1.0550  2.0767 -0.2460
  144SAPE   H7S15789   5.791   1.495  10.175  0.1599  0.4067 -2.2076
  144SAPE   C2815790   5.809   1.661  10.037  0.2311 -0.0035 -0.0839
  144SAPE   H8R15791   5.719   1.722  10.027  1.0491  1.2784  0.0982
  144SAPE   C2915792   5.881   1.629   9.931 -0.6011 -0.0894  0.3109
  144SAPE   H9R15793   5.852   1.687   9.842 -2.1677 -2.0603 -0.5528
  144SAPE  C21015794   6.001   1.537   9.919  0.1837  0.5068 -0.0545
  144SAPE  H10R15795   5.980   1.441   9.867  0.8635 -0.3361  1.1828
  144SAPE  H10S15796   6.024   1.500  10.022 -0.1388 -0.0200 -0.1667
  144SAPE  C21115797   6.125   1.593   9.859 -1.2089 -0.3923 -0.8096
  144SAPE  H11R15798   6.189   1.632   9.941 -0.8840 -2.5686  0.0263
  144SAPE  C21215799   6.169   1.591   9.730  0.5256  0.1033  0.1342
  144SAPE  H12R15800   6.268   1.638   9.717  1.7052 -0.6099  4.7694
  144SAPE  C21315801   6.100   1.544   9.606  0.4654  0.5509 -0.1590
  144SAPE  H13R15802   6.022   1.470   9.635  0.0356  0.4978 -1.3683
  144SAPE  H13S15803   6.155   1.481   9.532 -2.0318 -1.7856 -0.1899
  144SAPE  C21415804   6.014   1.649   9.545 -0.8678 -0.1760 -0.1599
  144SAPE  H14R15805   5.930   1.667   9.613  1.2104  0.5192  2.4270
  144SAPE  C21515806   6.035   1.730   9.438 -0.0683  0.1282 -0.1860
  144SAPE  H15R15807   5.969   1.813   9.408 -0.4894 -0.2943 -0.4373
  144SAPE  C21615808   6.158   1.722   9.348  0.1350  0.3828  0.0051
  144SAPE  H16R15809   6.240   1.670   9.401 -0.2407  0.3110  0.5305
  144SAPE  H16S15810   6.194   1.826   9.333 -0.1850  0.2560 -1.8694
  144SAPE  C21715811   6.164   1.647   9.208 -0.7364 -0.3803  0.0602
  144SAPE  H17R15812   6.269   1.656   9.173 -0.4766  4.0202  1.4182
  144SAPE  H17S15813   6.098   1.692   9.132 -1.8054  1.1424  1.8203
  144SAPE  C21815814   6.127   1.499   9.229 -0.5784  0.0560  0.4225
  144SAPE  H18R15815   6.024   1.486   9.268 -0.0975 -1.1396  1.3474
  144SAPE  H18S15816   6.196   1.457   9.305  0.2147  1.1282  0.3176
  144SAPE  C21915817   6.156   1.400   9.111 -0.0535 -0.1023  0.4898
  144SAPE  H19R15818   6.105   1.441   9.022 -2.3915 -0.0820  1.7505
  144SAPE  H19S15819   6.091   1.312   9.130 -0.6274 -0.1035 -1.3309
  144SAPE  C22015820   6.300   1.374   9.079 -0.5301 -0.2499 -0.7831
  144SAPE  H20R15821   6.362   1.465   9.064  0.5284 -0.6976  0.6489
  144SAPE  H20S15822   6.324   1.311   8.991  0.4073 -0.0345 -0.6961
  144SAPE  H20T15823   6.345   1.328   9.169 -2.8283 -1.6193 -0.2478
  144SAPE   C3315824   5.332   1.808  10.363 -0.3675 -0.3105  0.0920
  144SAPE   H3X15825   5.353   1.704  10.396  1.5198  0.1542  0.4684
  144SAPE   H3Y15826   5.422   1.872  10.361 -0.8752  0.3986 -1.6471
  144SAPE   C3415827   5.282   1.808  10.218  0.7468 -0.7615 -0.4255
  144SAPE   H4X15828   5.300   1.909  10.175  1.4195  0.0175  1.5585
  144SAPE   H4Y15829   5.176   1.775  10.217 -0.0133  1.2566  2.2270
  144SAPE   C3515830   5.374   1.721  10.131  0.5174  0.1558 -0.7586
  144SAPE   H5X15831   5.412   1.635  10.190  1.9790  2.3214  1.6716
  144SAPE   H5Y15832   5.465   1.776  10.100  0.9355  1.0656  1.8692
  144SAPE   C3615833   5.308   1.674   9.999 -0.3785  0.2922 -0.1587
  144SAPE   H6X15834   5.274   1.753   9.928 -1.2599 -1.6905 -2.0693
  144SAPE   H6Y15835   5.214   1.615  10.012 -0.1198  0.1948  1.4765
  144SAPE   C3715836   5.409   1.594   9.912 -0.1823  0.3513 -0.4777
  144SAPE   H7X15837   5.405   1.486   9.936  1.8922  0.0404 -1.3160
  144SAPE   H7Y15838   5.516   1.622   9.917  0.0805 -0.8620  1.6283
  144SAPE   C3815839   5.372   1.594   9.759  0.5249 -0.5419 -0.5635
  144SAPE   H8X15840   5.354   1.702   9.743  1.8038 -0.0296  1.1710
  144SAPE   H8Y15841   5.275   1.553   9.724 -0.0942  0.6026 -0.2330
  144SAPE   C3915842   5.486   1.544   9.665  0.4294  0.2048  0.0321
  144SAPE   H9X15843   5.508   1.435   9.674 -1.7999 -0.2688  0.1891
  144SAPE   H9Y15844   5.578   1.601   9.692  1.1876 -1.1558  0.4585
  144SAPE  C31015845   5.454   1.576   9.523  0.3888  1.0106 -0.3519
  144SAPE  H10X15846   5.436   1.686   9.516 -1.2623  0.7510 -0.4472
  144SAPE  H10Y15847   5.364   1.519   9.493  2.2896 -1.2126 -2.2010
  144SAPE  C31115848   5.568   1.529   9.424  0.1774 -0.3534  0.0832
  144SAPE  H11X15849   5.579   1.418   9.430 -0.3695 -0.3844  0.6441
  144SAPE  H11Y15850   5.655   1.578   9.473 -0.4764 -0.3213  1.2455
  144SAPE  C31215851   5.549   1.578   9.283  0.6694  0.4145  0.0541
  144SAPE  H12X15852   5.515   1.683   9.270  0.4917  0.0758 -3.0750
  144SAPE  H12Y15853   5.465   1.521   9.237 -1.4167  2.5106  1.0477
  144SAPE  C31315854   5.684   1.557   9.209 -0.2598  0.0024  0.2953
  144SAPE  H13X15855   5.719   1.451   9.203 -1.4264 -0.4248  0.6949
  144SAPE  H13Y15856   5.761   1.604   9.273  1.2242  1.2869 -2.2883
  144SAPE  C31415857   5.689   1.630   9.074 -0.2845 -0.2515 -0.5656
  144SAPE  H14X15858   5.798   1.634   9.053 -0.2209  0.6249 -0.1086
  144SAPE  H14Y15859   5.640   1.730   9.070 -1.7532 -0.9863 -1.8087
  144SAPE  C31515860   5.620   1.555   8.957  0.0100  0.5988 -0.5114
  144SAPE  H15X15861   5.525   1.518   8.999  0.8975  0.5175  1.5311
  144SAPE  H15Y15862   5.680   1.462   8.952 -0.1411  0.3458  1.5672
  144SAPE  C31615863   5.609   1.645   8.833 -0.7025 -0.2696 -0.2308
  144SAPE  H16X15864   5.560   1.743   8.849  2.5043  1.8620 -2.2204
  144SAPE  H16Y15865   5.545   1.585   8.765 -1.4034  1.0088 -0.7303
  144SAPE  C31715866   5.749   1.672   8.765  0.7252  0.6205 -0.0966
  144SAPE  H17X15867   5.820   1.731   8.827  1.1592 -1.2720  1.2924
  144SAPE  H17Y15868   5.725   1.735   8.676  1.9676  1.4839  0.1503
  144SAPE  C31815869   5.825   1.545   8.722  0.5392 -0.0183 -0.2080
  144SAPE  H18X15870   5.749   1.481   8.672 -1.1713  0.6099  1.4434
  144SAPE  H18Y15871   5.853   1.490   8.814 -0.2127  1.8916  1.2412
  144SAPE  H18Z15872   5.915   1.574   8.664  1.1741 -1.9284 -0.2274
  145SAPE     N15873   3.594   2.644  11.475  0.3576 -0.1000  0.0379
  145SAPE   HN115874   3.641   2.552  11.487  0.0353 -0.3206 -0.3576
  145SAPE   HN215875   3.624   2.718  11.542 -0.4474 -1.5455  2.1377
  145SAPE   HN315876   3.492   2.641  11.498  0.2797 -1.1926 -0.4024
  145SAPE   C1215877   3.611   2.700  11.337 -0.2289  0.4075  0.5139
  145SAPE  H12A15878   3.634   2.609  11.277  1.1839  0.7270  0.5404
  145SAPE  H12B15879   3.701   2.764  11.324 -1.1502  1.5547 -0.3884
  145SAPE   C1115880   3.494   2.785  11.291 -0.7585  0.1528  0.3098
  145SAPE  H11A15881   3.496   2.811  11.183  0.8348 -0.6224  0.1322
  145SAPE  H11B15882   3.501   2.883  11.343  0.7049  0.3885 -0.2833
  145SAPE     P15883   3.288   2.612  11.231 -0.1220  0.5070 -0.3560
  145SAPE   O1315884   3.327   2.479  11.286 -0.1928 -0.1200 -0.8542
  145SAPE   O1415885   3.145   2.639  11.235  0.6964 -0.3731  0.2390
  145SAPE   O1215886   3.367   2.722  11.324 -0.1927  0.0086 -0.1681
  145SAPE   O1115887   3.346   2.636  11.096  0.7355 -1.2861 -0.2174
  145SAPE    C115888   3.296   2.747  11.013  0.2020  0.1213  0.6600
  145SAPE    HA15889   3.252   2.833  11.067 -0.6404 -0.0328  0.2387
  145SAPE    HB15890   3.382   2.784  10.954 -0.0396 -0.6960 -0.2483
  145SAPE    C215891   3.186   2.699  10.917  0.4004 -0.2416 -0.7151
  145SAPE    HS15892   3.103   2.691  10.990  0.8955  0.1962 -0.0955
  145SAPE   O2115893   3.218   2.572  10.860 -0.1044  0.0129  0.2606
  145SAPE   C2115894   3.106   2.498  10.839 -0.2713 -1.3983  1.1078
  145SAPE   O2215895   2.993   2.538  10.848 -0.1001 -0.2517 -0.1954
  145SAPE   C2215896   3.138   2.357  10.805 -0.4167  1.1788 -1.0404
  145SAPE   H2R15897   3.239   2.328  10.838 -1.1611 -0.1085  0.2143
  145SAPE   H2S15898   3.074   2.292  10.869  1.2782 -0.2843 -0.7396
  145SAPE    C315899   3.147   2.803  10.808  0.6418 -0.0853  0.9064
  145SAPE    HX15900   3.123   2.901  10.855 -1.2120  0.1284 -0.3749
  145SAPE    HY15901   3.053   2.777  10.755 -0.2769  2.7065  0.9712
  145SAPE   O3115902   3.258   2.809  10.707  0.4139  0.3837  0.0832
  145SAPE   C3115903   3.307   2.928  10.683 -0.4594  0.5073 -0.0084
  145SAPE   O3215904   3.256   3.032  10.726  0.4838 -0.3346  0.0979
  145SAPE   C3215905   3.435   2.928  10.602 -0.4027 -0.2380  0.5859
  145SAPE   H2X15906   3.522   2.920  10.671 -0.1718  0.7454  0.4313
  145SAPE   H2Y15907   3.448   3.034  10.571  0.2501 -0.0437  1.4727
  145SAPE   C2315908   3.110   2.315  10.657  0.4412  0.1806  0.6901
  145SAPE   H3R15909   3.001   2.330  10.640  0.6522  0.8001 -0.2148
  145SAPE   H3S15910   3.150   2.213  10.644 -0.3611 -0.3102  1.8929
  145SAPE   C2415911   3.196   2.388  10.552 -0.6943  0.3563 -0.4222
  145SAPE   H4R15912   3.183   2.320  10.465 -0.5459  0.2080 -0.3291
  145SAPE   H4S15913   3.296   2.372  10.597 -1.2690  1.2646  1.2872
  145SAPE   C2515914   3.180   2.535  10.533  0.1164 -0.0720  0.3990
  145SAPE   H5R15915   3.259   2.598  10.577  0.0914  0.0063  0.3321
  145SAPE   C2615916   3.078   2.583  10.457 -0.6249  0.3798 -0.6416
  145SAPE   H6R15917   3.062   2.691  10.448  1.8761  0.8204 -0.5961
  145SAPE   C2715918   2.976   2.493  10.404 -0.2059  0.3724 -0.1255
  145SAPE   H7R15919   2.877   2.541  10.418 -0.8963 -1.2883  1.1066
  145SAPE   H7S15920   2.978   2.391  10.449  4.2131  0.1355 -0.4039
  145SAPE   C2815921   2.994   2.486  10.254  0.0744  0.2311 -0.1597
  145SAPE   H8R15922   3.096   2.470  10.215  0.0312  1.1730 -0.6980
  145SAPE   C2915923   2.901   2.495  10.159  0.1240 -0.2136  0.1619
  145SAPE   H9R15924   2.930   2.496  10.053  1.5523 -3.5451  0.3974
  145SAPE  C21015925   2.751   2.520  10.183 -0.2428 -0.6450  0.2071
  145SAPE  H10R15926   2.732   2.611  10.122  0.0052  0.2801  1.4725
  145SAPE  H10S15927   2.732   2.551  10.288  2.0904 -0.1327  0.5171
  145SAPE  C21115928   2.671   2.403  10.152  0.0857 -0.2724 -0.4536
  145SAPE  H11R15929   2.612   2.366  10.238  0.8994  2.9415  1.6602
  145SAPE  C21215930   2.643   2.350  10.034 -0.0224  0.3685  0.3837
  145SAPE  H12R15931   2.572   2.266  10.025  2.9163 -2.6538  2.9565
  145SAPE  C21315932   2.686   2.398   9.899 -0.3762 -0.3825  0.8567
  145SAPE  H13R15933   2.729   2.309   9.849  1.4941  0.8691  0.1322
  145SAPE  H13S15934   2.767   2.474   9.909 -0.7699 -0.1855  3.3719
  145SAPE  C21415935   2.569   2.451   9.821 -0.2688  0.1683  0.0652
  145SAPE  H14R15936   2.485   2.476   9.887 -0.8691 -1.4141 -0.0449
  145SAPE  C21515937   2.557   2.453   9.693  0.1799  0.0936  0.1320
  145SAPE  H15R15938   2.464   2.493   9.650  0.7927  1.0751 -0.3000
  145SAPE  C21615939   2.657   2.426   9.592  0.3424  0.3049  0.0187
  145SAPE  H16R15940   2.754   2.464   9.630  0.1298 -0.2087  1.1205
  145SAPE  H16S15941   2.629   2.498   9.512 -0.6826  0.6183  0.6337
  145SAPE  C21715942   2.650   2.281   9.529 -0.3907  0.2888 -0.0942
  145SAPE  H17R15943   2.626   2.208   9.610 -0.8751  1.9697  1.3202
  145SAPE  H17S15944   2.750   2.261   9.485 -0.2748 -0.3105  0.4170
  145SAPE  C21815945   2.560   2.267   9.408 -0.4154 -0.5459 -0.8598
  145SAPE  H18R15946   2.464   2.321   9.425  1.1562  2.0153  0.6204
  145SAPE  H18S15947   2.537   2.159   9.405  0.0071 -0.6257 -3.4674
  145SAPE  C21915948   2.630   2.282   9.270  0.8439 -0.3540 -0.2263
  145SAPE  H19R15949   2.550   2.265   9.195 -0.3845  0.8335  0.7472
  145SAPE  H19S15950   2.699   2.199   9.247 -0.3639 -1.6934  0.7764
  145SAPE  C22015951   2.700   2.414   9.252 -0.0425  0.5801  0.1895
  145SAPE  H20R15952   2.631   2.500   9.238  0.0769  1.5062  4.0313
  145SAPE  H20S15953   2.769   2.404   9.166 -0.3094 -1.0023  0.1328
  145SAPE  H20T15954   2.765   2.430   9.341  0.3760  1.3355 -0.2467
  145SAPE   C3315955   3.433   2.842  10.480  0.6565  0.2501  0.5053
  145SAPE   H3X15956   3.401   2.737  10.497  1.4025 -0.4443 -1.9464
  145SAPE   H3Y15957   3.534   2.847  10.434  1.5905 -0.1271  2.4230
  145SAPE   C3415958   3.341   2.886  10.366  0.3004  0.1024 -0.2914
  145SAPE   H4X15959   3.355   2.991  10.333  0.4094  0.3665  0.5665
  145SAPE   H4Y15960   3.238   2.883  10.409  0.1924  0.0438 -0.5509
  145SAPE   C3515961   3.344   2.792  10.244 -0.3238  0.4132 -0.3382
  145SAPE   H5X15962   3.341   2.686  10.275 -0.1854 -0.1871 -2.2125
  145SAPE   H5Y15963   3.440   2.810  10.191  0.1605 -2.4294 -0.5899
  145SAPE   C3615964   3.219   2.816  10.146  0.0999  0.1157  0.0962
  145SAPE   H6X15965   3.198   2.925  10.143 -1.9479 -0.2522 -1.1795
  145SAPE   H6Y15966   3.129   2.771  10.193  1.2697 -2.1471  0.3241
  145SAPE   C3715967   3.258   2.764  10.007 -0.1528 -0.1585 -0.5100
  145SAPE   H7X15968   3.335   2.829   9.962 -2.9386  1.0841 -3.9531
  145SAPE   H7Y15969   3.164   2.781   9.950 -1.0797 -2.6593  0.1008
  145SAPE   C3815970   3.308   2.618  10.004  0.1881  0.1768 -0.2352
  145SAPE   H8X15971   3.221   2.549  10.006 -1.8111  2.5308 -1.0708
  145SAPE   H8Y15972   3.384   2.593  10.081  0.1739 -1.6991 -0.7681
  145SAPE   C3915973   3.379   2.587   9.872  0.4308 -0.2139 -0.2935
  145SAPE   H9X15974   3.416   2.482   9.869 -1.3697 -0.8803 -0.6161
  145SAPE   H9Y15975   3.464   2.658   9.868 -0.5773  1.0062 -0.7209
  145SAPE  C31015976   3.292   2.609   9.746  0.3338 -0.3992  0.6331
  145SAPE  H10X15977   3.256   2.714   9.751 -1.0761 -0.8778  1.2173
  145SAPE  H10Y15978   3.204   2.541   9.743 -0.6723  0.8554  0.7432
  145SAPE  C31115979   3.368   2.591   9.619 -0.8328  0.3714  0.2657
  145SAPE  H11X15980   3.366   2.484   9.591 -2.5923 -0.3904  2.9225
  145SAPE  H11Y15981   3.468   2.638   9.628 -0.9379  1.1438 -1.8459
  145SAPE  C31215982   3.301   2.664   9.499  0.0482  0.3560 -0.5109
  145SAPE  H12X15983   3.311   2.769   9.533  3.0424 -0.1378  0.4079
  145SAPE  H12Y15984   3.195   2.634   9.484  0.6607 -1.0899 -2.5118
  145SAPE  C31315985   3.381   2.635   9.363 -0.0839 -0.2533 -0.3651
  145SAPE  H13X15986   3.380   2.526   9.344  2.8336 -0.2799 -0.7119
  145SAPE  H13Y15987   3.482   2.681   9.360 -0.2174 -0.0142 -1.9635
  145SAPE  C31415988   3.296   2.700   9.249  0.3288 -0.0538 -0.6937
  145SAPE  H14X15989   3.310   2.810   9.258 -0.0210  0.0707 -1.6508
  145SAPE  H14Y15990   3.191   2.666   9.259  0.5860 -0.7377 -0.1944
  145SAPE  C31515991   3.351   2.647   9.117 -0.1655  0.5248  0.1396
  145SAPE  H15X15992   3.352   2.536   9.123  1.4757  0.4064 -1.5374
  145SAPE  H15Y15993   3.459   2.670   9.105  0.3949 -2.1304 -0.5576
  145SAPE  C31615994   3.265   2.686   8.992  0.1109  0.1935  0.7523
  145SAPE  H16X15995   3.270   2.796   8.978  1.7675  0.3236  2.0148
  145SAPE  H16Y15996   3.161   2.648   8.994 -0.5346  1.8426 -0.0701
  145SAPE  C31715997   3.332   2.635   8.866 -0.0869 -0.3416 -0.4166
  145SAPE  H17X15998   3.431   2.684   8.853  1.6161 -3.2876  0.5252
  145SAPE  H17Y15999   3.279   2.659   8.772  0.1990 -3.3557 -1.4873
  145SAPE  C31816000   3.345   2.481   8.867 -0.0251 -0.3868 -0.5294
  145SAPE  H18X16001   3.254   2.429   8.904 -2.9268  3.2955 -1.8220
  145SAPE  H18Y16002   3.437   2.455   8.924 -0.7166 -2.1629 -0.1535
  145SAPE  H18Z16003   3.374   2.444   8.766  1.1645  0.5883 -0.5760
  146SAPE     N16004   0.796   1.682  10.893 -0.4555 -0.0969 -0.3842
  146SAPE   HN116005   0.717   1.660  10.957  1.7816  0.3026  2.7357
  146SAPE   HN216006   0.875   1.614  10.901 -1.7935 -1.6885 -0.0318
  146SAPE   HN316007   0.846   1.769  10.921  2.3132 -1.7883  0.2855
  146SAPE   C1216008   0.746   1.672  10.750 -0.0974  0.6550  0.2992
  146SAPE  H12A16009   0.725   1.568  10.718  1.4114 -0.1732  1.9140
  146SAPE  H12B16010   0.837   1.705  10.696 -0.8374  1.3197 -0.5913
  146SAPE   C1116011   0.635   1.767  10.741 -0.1029  0.0491 -0.2032
  146SAPE  H11A16012   0.587   1.754  10.642 -1.1026 -1.3731  0.4421
  146SAPE  H11B16013   0.686   1.866  10.734  0.5088 -0.2527 -0.1211
  146SAPE     P16014   0.408   1.851  10.858  0.5237 -0.0525 -0.1183
  146SAPE   O1316015   0.304   1.750  10.877  0.1151  0.0239 -0.0110
  146SAPE   O1416016   0.417   1.949  10.966  0.1076 -0.0408  0.5313
  146SAPE   O1216017   0.545   1.780  10.845  0.0844 -0.4231 -0.3849
  146SAPE   O1116018   0.388   1.929  10.720 -0.5109  0.1463  0.0588
  146SAPE    C116019   0.263   1.938  10.658 -0.3714 -0.6729 -0.2942
  146SAPE    HA16020   0.273   1.930  10.548 -1.3026 -0.0391 -0.4462
  146SAPE    HB16021   0.204   1.849  10.688  0.5766 -0.8393  1.1642
  146SAPE    C216022   0.200   2.077  10.679  0.3340 -0.7665  0.1519
  146SAPE    HS16023   0.175   2.079  10.787 -0.2152 -0.6031  0.0242
  146SAPE   O2116024   0.093   2.090  10.577 -0.8840  0.4453 -0.4009
  146SAPE   C2116025  -0.003   2.180  10.600 -0.7293  0.3663 -0.2762
  146SAPE   O2216026   0.001   2.254  10.695 -0.4690 -0.6284 -0.1358
  146SAPE   C2216027  -0.111   2.163  10.499  0.6782  0.4392  0.2315
  146SAPE   H2R16028  -0.067   2.154  10.398  0.7107  1.6691  0.1194
  146SAPE   H2S16029  -0.159   2.063  10.512 -0.1638  0.6082 -1.3437
  146SAPE    C316030   0.304   2.193  10.656 -0.4500 -0.2646  0.3433
  146SAPE    HX16031   0.386   2.164  10.726 -1.2965 -0.1551  1.4012
  146SAPE    HY16032   0.276   2.290  10.701 -0.1613 -0.2438  0.4857
  146SAPE   O3116033   0.375   2.201  10.531  0.0978  0.1777  0.0584
  146SAPE   C3116034   0.326   2.285  10.440  0.3731 -0.6190 -0.1353
  146SAPE   O3216035   0.229   2.362  10.457  0.0033 -0.0536  0.1689
  146SAPE   C3216036   0.398   2.260  10.310 -0.2754  0.0030  0.6662
  146SAPE   H2X16037   0.391   2.153  10.284 -2.4431  0.3044 -0.1984
  146SAPE   H2Y16038   0.507   2.286  10.310 -0.8217  2.7506 -0.8518
  146SAPE   C2316039  -0.229   2.261  10.499  0.1415  0.7353  0.6721
  146SAPE   H3R16040  -0.252   2.284  10.606 -1.2780 -1.4134  0.8966
  146SAPE   H3S16041  -0.313   2.210  10.447  0.7980  1.7292 -1.4820
  146SAPE   C2416042  -0.183   2.383  10.414  0.0390  0.3296  0.3562
  146SAPE   H4R16043  -0.149   2.349  10.314  2.0814  0.1149  1.0835
  146SAPE   H4S16044  -0.089   2.436  10.443  0.1531  1.5496 -2.0056
  146SAPE   C2516045  -0.302   2.478  10.411  1.0200  0.1245 -0.4579
  146SAPE   H5R16046  -0.325   2.518  10.511  3.1165 -0.4370  0.3029
  146SAPE   C2616047  -0.380   2.511  10.307 -0.1220 -0.3351  0.0217
  146SAPE   H6R16048  -0.471   2.570  10.323 -0.2287 -0.1813 -1.0924
  146SAPE   C2716049  -0.382   2.460  10.164  0.7283  0.0693  0.3659
  146SAPE   H7R16050  -0.397   2.350  10.162  2.6732 -0.2114 -0.8803
  146SAPE   H7S16051  -0.277   2.478  10.132  1.9218 -1.3706  3.1265
  146SAPE   C2816052  -0.480   2.527  10.066  0.2059 -0.4818 -0.3867
  146SAPE   H8R16053  -0.542   2.612  10.099 -0.8836 -1.4210  0.0841
  146SAPE   C2916054  -0.495   2.493   9.940  0.0826  0.6571  0.7553
  146SAPE   H9R16055  -0.551   2.560   9.872  0.1764  0.4005  0.4228
  146SAPE  C21016056  -0.411   2.392   9.865  0.4038  0.1116 -0.5945
  146SAPE  H10R16057  -0.482   2.315   9.828 -1.2699  0.4453  1.6886
  146SAPE  H10S16058  -0.348   2.338   9.939  1.1083  1.7689  0.0528
  146SAPE  C21116059  -0.330   2.450   9.755  0.1150  0.2623 -0.1107
  146SAPE  H11R16060  -0.223   2.463   9.778  0.1813 -2.4346  1.6413
  146SAPE  C21216061  -0.368   2.477   9.631  0.8020  0.1579  0.1606
  146SAPE  H12R16062  -0.284   2.508   9.567  0.2971 -2.2600 -1.8564
  146SAPE  C21316063  -0.495   2.457   9.548 -0.5840 -0.8833 -0.3771
  146SAPE  H13R16064  -0.581   2.496   9.606 -0.6631 -0.0556 -1.0276
  146SAPE  H13S16065  -0.515   2.350   9.526  2.4149 -2.7088  4.3050
  146SAPE  C21416066  -0.492   2.543   9.426 -0.0329  0.7736 -0.1808
  146SAPE  H14R16067  -0.551   2.636   9.426 -1.1918  0.0542 -0.0324
  146SAPE  C21516068  -0.435   2.506   9.312  0.0759  0.1143 -0.3467
  146SAPE  H15R16069  -0.435   2.585   9.235 -2.0098  1.4207  0.9011
  146SAPE  C21616070  -0.368   2.380   9.285 -0.2479 -0.1617  0.9831
  146SAPE  H16R16071  -0.351   2.315   9.374 -1.6040 -0.7682  0.8131
  146SAPE  H16S16072  -0.266   2.406   9.249 -0.4581  0.9312  1.1596
  146SAPE  C21716073  -0.432   2.297   9.176 -0.0691 -0.0788 -0.5783
  146SAPE  H17R16074  -0.535   2.283   9.216  0.3009 -1.0812  0.0810
  146SAPE  H17S16075  -0.386   2.196   9.186 -0.6706 -0.2490  0.6993
  146SAPE  C21816076  -0.433   2.357   9.030 -0.4831 -0.4136 -0.3562
  146SAPE  H18R16077  -0.327   2.386   9.014 -0.5104 -0.5000 -0.6916
  146SAPE  H18S16078  -0.497   2.447   9.039  1.7324  1.1789  0.6290
  146SAPE  C21916079  -0.482   2.258   8.931  0.6891  0.5708  0.9649
  146SAPE  H19R16080  -0.416   2.169   8.931  0.0575  0.0976  0.0274
  146SAPE  H19S16081  -0.473   2.295   8.827 -0.6981  0.6667  0.8524
  146SAPE  C22016082  -0.632   2.225   8.953 -0.0596  0.8354 -0.4568
  146SAPE  H20R16083  -0.689   2.181   8.867  0.5290 -0.3167 -0.2787
  146SAPE  H20S16084  -0.689   2.313   8.989 -0.8743 -0.9723  3.1547
  146SAPE  H20T16085  -0.641   2.153   9.037 -1.0667  1.6547  0.1619
  146SAPE   C3316086   0.329   2.333  10.201  0.9123  0.0498 -0.1281
  146SAPE   H3X16087   0.311   2.441  10.220 -1.9813 -0.2403 -0.9010
  146SAPE   H3Y16088   0.229   2.286  10.210  0.9097 -0.2053 -1.3521
  146SAPE   C3416089   0.398   2.318  10.064  0.1143 -0.7545 -0.5763
  146SAPE   H4X16090   0.431   2.213  10.047 -2.1269 -2.1306  2.6054
  146SAPE   H4Y16091   0.494   2.373  10.068 -0.5813  0.7323 -2.7139
  146SAPE   C3516092   0.308   2.365   9.956  0.0328 -0.2048  0.0735
  146SAPE   H5X16093   0.295   2.475   9.969 -0.5945 -0.3974  1.1990
  146SAPE   H5Y16094   0.212   2.311   9.972  0.6896 -0.8638  2.1208
  146SAPE   C3616095   0.359   2.344   9.814 -0.1258  0.0469 -0.1475
  146SAPE   H6X16096   0.364   2.235   9.789  3.0559 -0.0349  0.3793
  146SAPE   H6Y16097   0.459   2.390   9.801 -0.8215  1.7159  0.2709
  146SAPE   C3716098   0.264   2.383   9.706 -0.1699 -0.4265 -0.5758
  146SAPE   H7X16099   0.307   2.354   9.608 -2.8570 -0.8239 -1.7204
  146SAPE   H7Y16100   0.266   2.494   9.696 -1.8500 -0.3606 -0.5716
  146SAPE   C3816101   0.125   2.323   9.712 -0.3651  0.5639 -0.2863
  146SAPE   H8X16102   0.063   2.365   9.794  0.8477  3.0532 -0.5398
  146SAPE   H8Y16103   0.137   2.214   9.730 -2.0934 -0.0897 -2.6921
  146SAPE   C3916104   0.048   2.339   9.584 -0.2164 -0.0992 -0.4949
  146SAPE   H9X16105   0.056   2.445   9.552 -0.7793  0.5990  1.5413
  146SAPE   H9Y16106  -0.060   2.314   9.596 -0.1673 -1.6166 -2.6375
  146SAPE  C31016107   0.091   2.243   9.465  0.0750 -0.1596  0.0513
  146SAPE  H10X16108   0.094   2.135   9.491  1.2079 -0.1695 -0.0916
  146SAPE  H10Y16109   0.194   2.275   9.438  1.1927 -1.6845  2.2339
  146SAPE  C31116110   0.002   2.279   9.336  0.1730 -0.0455 -0.3786
  146SAPE  H11X16111  -0.005   2.388   9.320 -1.6205 -0.2014 -0.9351
  146SAPE  H11Y16112  -0.097   2.241   9.369  0.8122  0.6274  2.6307
  146SAPE  C31216113   0.051   2.208   9.210 -0.5042  0.2542 -0.0981
  146SAPE  H12X16114   0.069   2.101   9.232 -0.6986  0.0183 -1.0171
  146SAPE  H12Y16115   0.149   2.256   9.186 -0.4100  0.9820  1.6306
  146SAPE  C31316116  -0.032   2.237   9.080 -0.2023 -0.9688  0.0802
  146SAPE  H13X16117  -0.026   2.342   9.046 -1.7713 -0.9295 -0.1889
  146SAPE  H13Y16118  -0.141   2.217   9.091 -0.2268 -0.5139  0.6637
  146SAPE  C31416119   0.006   2.141   8.964 -0.6157 -0.4869 -0.0597
  146SAPE  H14X16120   0.015   2.036   8.998  0.9500 -0.3248  0.1373
  146SAPE  H14Y16121   0.106   2.174   8.928 -0.6861 -0.8128 -0.5622
  146SAPE  C31516122  -0.090   2.132   8.838  0.1358 -0.2398 -0.0536
  146SAPE  H15X16123  -0.190   2.113   8.883 -0.5073  1.3958 -0.7128
  146SAPE  H15Y16124  -0.092   2.039   8.775 -0.7175 -1.0731  1.1507
  146SAPE  C31616125  -0.116   2.263   8.762 -1.0519 -0.2123 -0.4801
  146SAPE  H16X16126  -0.022   2.296   8.713 -1.7881 -0.9180 -2.4534
  146SAPE  H16Y16127  -0.154   2.346   8.824  3.5331  2.1038 -0.2975
  146SAPE  C31716128  -0.191   2.245   8.629  0.4459 -0.3660 -0.3599
  146SAPE  H17X16129  -0.283   2.185   8.646 -0.5750  1.0537 -0.6478
  146SAPE  H17Y16130  -0.127   2.181   8.566  0.9886  0.2182 -0.4081
  146SAPE  C31816131  -0.231   2.379   8.564  0.7869  0.4554  0.1177
  146SAPE  H18X16132  -0.286   2.443   8.636 -1.3316  0.6273 -1.5209
  146SAPE  H18Y16133  -0.303   2.371   8.479 -0.9543  0.3256  1.5356
  146SAPE  H18Z16134  -0.135   2.429   8.538 -0.5039  2.4503 -1.1004
  147SAPE     N16135   3.547   0.573   6.476  0.1635  0.0228  0.0122
  147SAPE   HN116136   3.548   0.677   6.479  0.2870  0.0897 -1.5581
  147SAPE   HN216137   3.515   0.540   6.570  1.3116 -0.7135  0.1723
  147SAPE   HN316138   3.644   0.535   6.466  0.0991 -0.2374  0.3433
  147SAPE   C1216139   3.466   0.518   6.366  0.9827  0.1885  0.0237
  147SAPE  H12A16140   3.446   0.413   6.396 -1.7164  0.5398 -0.2276
  147SAPE  H12B16141   3.528   0.535   6.276  1.5061  1.4245  0.5986
  147SAPE   C1116142   3.326   0.574   6.350  0.5770 -0.0970 -0.5159
  147SAPE  H11A16143   3.261   0.521   6.278 -0.6555  1.4524 -0.5808
  147SAPE  H11B16144   3.338   0.678   6.314  0.2832 -0.2862 -1.1678
  147SAPE     P16145   3.135   0.483   6.508 -0.1191 -0.0904  0.1287
  147SAPE   O1316146   3.009   0.557   6.483  0.0543  0.3728  0.7086
  147SAPE   O1416147   3.161   0.360   6.432 -0.5555 -0.8395  0.4606
  147SAPE   O1216148   3.258   0.574   6.481 -0.4641 -1.1477 -0.1394
  147SAPE   O1116149   3.130   0.446   6.662 -0.5924  0.1861 -0.9421
  147SAPE    C116150   3.253   0.434   6.738  0.9260 -1.1873  0.0592
  147SAPE    HA16151   3.260   0.331   6.781  0.5358 -0.4606  1.9512
  147SAPE    HB16152   3.340   0.448   6.670 -0.3925  0.1527 -1.4498
  147SAPE    C216153   3.280   0.555   6.829  0.3716  0.4085 -0.3065
  147SAPE    HS16154   3.312   0.641   6.766 -0.8015 -0.1664 -1.7572
  147SAPE   O2116155   3.391   0.520   6.914  0.3287  0.3361  0.7289
  147SAPE   C2116156   3.507   0.491   6.863  0.1845 -0.3894 -0.5692
  147SAPE   O2216157   3.537   0.517   6.748 -0.0920  0.0017  0.0902
  147SAPE   C2216158   3.599   0.417   6.968 -0.7144  0.5697 -0.5455
  147SAPE   H2R16159   3.678   0.369   6.906  0.5312  0.3240  1.1546
  147SAPE   H2S16160   3.655   0.486   7.034  1.7953 -1.6037 -0.1987
  147SAPE    C316161   3.150   0.591   6.912  0.2627  0.7707  0.5314
  147SAPE    HX16162   3.089   0.498   6.910 -0.5449  1.3018 -0.9532
  147SAPE    HY16163   3.083   0.667   6.868 -1.8494  0.8577  3.5647
  147SAPE   O3116164   3.171   0.637   7.044  0.4055 -0.3252  0.2776
  147SAPE   C3116165   3.227   0.754   7.062 -0.2480 -0.9871  0.2457
  147SAPE   O3216166   3.242   0.840   6.979  0.5088  0.1277 -0.0031
  147SAPE   C3216167   3.266   0.763   7.208  0.3864  0.0927 -0.2068
  147SAPE   H2X16168   3.367   0.721   7.227  0.3490 -0.3894 -1.0422
  147SAPE   H2Y16169   3.199   0.708   7.278  1.6192  0.3557  1.2329
  147SAPE   C2316170   3.525   0.313   7.049  0.5943  0.0313 -0.1856
  147SAPE   H3R16171   3.472   0.242   6.981 -0.2388  0.9631 -0.5287
  147SAPE   H3S16172   3.447   0.370   7.103  0.5231  0.6851 -0.9648
  147SAPE   C2416173   3.621   0.242   7.144  0.4994 -0.5539 -0.0264
  147SAPE   H4R16174   3.679   0.320   7.199 -0.0727  0.3534 -0.6783
  147SAPE   H4S16175   3.694   0.176   7.093  1.0169  0.5537 -0.7852
  147SAPE   C2516176   3.532   0.154   7.224  1.0731 -0.1662 -0.1491
  147SAPE   H5R16177   3.477   0.073   7.174 -1.7817  1.4256  0.1908
  147SAPE   C2616178   3.518   0.170   7.363  0.3239  0.1144 -0.0733
  147SAPE   H6R16179   3.454   0.102   7.420 -0.1157 -0.1496 -0.8611
  147SAPE   C2716180   3.577   0.274   7.453 -0.4756  0.3266 -0.5124
  147SAPE   H7R16181   3.636   0.354   7.403 -0.3833  0.8183  0.3634
  147SAPE   H7S16182   3.652   0.226   7.520 -1.5426  2.8691  2.7640
  147SAPE   C2816183   3.481   0.330   7.546  0.2874  0.1190 -0.4706
  147SAPE   H8R16184   3.444   0.428   7.510 -0.5192 -0.0659 -0.1700
  147SAPE   C2916185   3.448   0.271   7.661  0.3702 -0.9306 -0.7825
  147SAPE   H9R16186   3.370   0.321   7.720  1.8465  0.3588  0.1385
  147SAPE  C21016187   3.478   0.134   7.725  0.3809 -0.4627  0.1511
  147SAPE  H10R16188   3.492   0.061   7.643 -0.6786  0.5252 -0.9436
  147SAPE  H10S16189   3.391   0.098   7.783  0.0167  0.4348  0.1756
  147SAPE  C21116190   3.592   0.135   7.820  0.3995 -0.0235 -0.8894
  147SAPE  H11R16191   3.690   0.114   7.774 -0.4593 -1.8983 -2.0159
  147SAPE  C21216192   3.583   0.147   7.954  0.1850 -0.5786 -0.4830
  147SAPE  H12R16193   3.675   0.137   8.015 -0.7074  2.1755  1.5248
  147SAPE  C21316194   3.459   0.165   8.045 -0.6997  0.1922 -0.2655
  147SAPE  H13R16195   3.444   0.076   8.110  1.2243  0.7203  0.9825
  147SAPE  H13S16196   3.375   0.155   7.972 -0.8815 -0.0639 -0.0225
  147SAPE  C21416197   3.429   0.288   8.123  0.2709  0.0259 -0.6515
  147SAPE  H14R16198   3.395   0.379   8.072  0.2963  0.2970 -0.1955
  147SAPE  C21516199   3.439   0.301   8.258  0.3539  0.4045 -0.0420
  147SAPE  H15R16200   3.439   0.398   8.308 -0.0273  0.5809 -0.3810
  147SAPE  C21616201   3.481   0.189   8.352 -0.3046 -0.3681  0.7783
  147SAPE  H16R16202   3.574   0.216   8.405 -0.4970  2.0065 -0.0029
  147SAPE  H16S16203   3.493   0.092   8.298  2.3522  0.2693  0.0613
  147SAPE  C21716204   3.354   0.168   8.443 -0.3410  0.3250  0.0644
  147SAPE  H17R16205   3.269   0.146   8.376  1.4062  0.9686 -2.4992
  147SAPE  H17S16206   3.338   0.255   8.511  0.1449  0.2656  0.2618
  147SAPE  C21816207   3.366   0.042   8.528  1.4586  0.5641  0.0310
  147SAPE  H18R16208   3.455   0.058   8.594  1.6157  1.5112 -0.3891
  147SAPE  H18S16209   3.373  -0.057   8.479 -0.4684  1.3559 -1.9889
  147SAPE  C21916210   3.246   0.026   8.632  0.4844  0.0798 -0.3809
  147SAPE  H19R16211   3.267  -0.068   8.687  2.4083  0.6667 -0.0349
  147SAPE  H19S16212   3.145   0.007   8.590  0.5149 -1.0281  0.0067
  147SAPE  C22016213   3.243   0.135   8.734  0.7568  0.0623 -0.4473
  147SAPE  H20R16214   3.199   0.102   8.831 -1.0328 -1.2709 -1.6443
  147SAPE  H20S16215   3.197   0.231   8.701  0.1443  0.0084  0.2086
  147SAPE  H20T16216   3.345   0.172   8.759 -0.7485  2.6124  2.5947
  147SAPE   C3316217   3.261   0.918   7.257  0.0394  0.0272 -0.2802
  147SAPE   H3X16218   3.171   0.965   7.211  0.4519  1.2829  0.1673
  147SAPE   H3Y16219   3.350   0.981   7.233 -0.5855  0.9438 -0.2655
  147SAPE   C3416220   3.243   0.926   7.407 -0.1130 -0.0393  0.5813
  147SAPE   H4X16221   3.343   0.888   7.439  1.3544  3.2984  0.4455
  147SAPE   H4Y16222   3.161   0.863   7.448  0.4088  0.0649  1.8380
  147SAPE   C3516223   3.242   1.079   7.449 -0.2346 -0.0323  0.3081
  147SAPE   H5X16224   3.156   1.125   7.395  0.1311  0.9160  0.5157
  147SAPE   H5Y16225   3.333   1.133   7.414 -0.5245  0.6774  0.6321
  147SAPE   C3616226   3.230   1.105   7.598 -0.5406 -0.2864  0.1517
  147SAPE   H6X16227   3.130   1.072   7.634  0.5596 -1.4423  2.3164
  147SAPE   H6Y16228   3.240   1.216   7.608  0.9244 -0.4679  0.8693
  147SAPE   C3716229   3.339   1.025   7.673 -1.2874  0.3734  0.4218
  147SAPE   H7X16230   3.437   1.073   7.655  0.0870 -1.2277  3.0507
  147SAPE   H7Y16231   3.339   0.920   7.638 -1.9400  0.9622 -1.4199
  147SAPE   C3816232   3.336   1.008   7.821  0.4147  0.5920 -0.2426
  147SAPE   H8X16233   3.423   0.955   7.864  1.6728  1.8543 -1.1301
  147SAPE   H8Y16234   3.249   0.939   7.825  0.9159 -0.0581 -0.5661
  147SAPE   C3916235   3.317   1.131   7.907 -0.3357 -0.0295 -0.8575
  147SAPE   H9X16236   3.213   1.169   7.911 -0.3268 -0.1165  0.7694
  147SAPE   H9Y16237   3.384   1.208   7.865  0.4622 -0.1166  0.2002
  147SAPE  C31016238   3.350   1.104   8.056  0.4589  0.6476 -0.0467
  147SAPE  H10X16239   3.455   1.069   8.070  0.3425 -1.2203 -2.8854
  147SAPE  H10Y16240   3.302   1.006   8.076  1.7099 -0.2932 -1.3459
  147SAPE  C31116241   3.323   1.215   8.155  0.0256 -0.1332  0.3168
  147SAPE  H11X16242   3.221   1.259   8.148  1.5770  3.8559  0.1832
  147SAPE  H11Y16243   3.405   1.287   8.131 -0.2826  0.1336  0.0549
  147SAPE  C31216244   3.338   1.163   8.300  0.8750 -0.9097  0.0793
  147SAPE  H12X16245   3.429   1.099   8.302  1.3594 -0.2489 -0.3200
  147SAPE  H12Y16246   3.251   1.096   8.318 -1.7894  2.2710  0.0092
  147SAPE  C31316247   3.328   1.263   8.409 -0.1374  0.0728 -0.3078
  147SAPE  H13X16248   3.243   1.334   8.392 -0.0309  0.0650 -0.8895
  147SAPE  H13Y16249   3.420   1.325   8.402  1.4163 -2.1013 -0.0536
  147SAPE  C31416250   3.307   1.197   8.543 -0.4044 -0.6207  0.7762
  147SAPE  H14X16251   3.400   1.147   8.580 -0.0292 -0.2491  0.3551
  147SAPE  H14Y16252   3.223   1.125   8.545  0.4611 -1.6506  0.6152
  147SAPE  C31516253   3.272   1.316   8.641 -0.1435  0.7366  0.2482
  147SAPE  H15X16254   3.179   1.365   8.607 -1.3076 -0.3352  1.7141
  147SAPE  H15Y16255   3.347   1.397   8.638  2.4774 -1.5373 -2.5784
  147SAPE  C31616256   3.239   1.270   8.782 -0.4604 -0.2831  0.2830
  147SAPE  H16X16257   3.328   1.234   8.839 -2.9083 -2.0198  3.3312
  147SAPE  H16Y16258   3.159   1.193   8.782 -0.9418  0.1734 -1.3257
  147SAPE  C31716259   3.181   1.389   8.864  0.4805 -1.1057 -0.7145
  147SAPE  H17X16260   3.079   1.416   8.830  0.0306 -0.2947  1.1418
  147SAPE  H17Y16261   3.246   1.476   8.843 -0.5050 -0.1178  0.1871
  147SAPE  C31816262   3.173   1.360   9.013 -0.3759 -0.1402 -0.5520
  147SAPE  H18X16263   3.114   1.267   9.024  0.1790 -0.3876  0.4575
  147SAPE  H18Y16264   3.124   1.434   9.080 -0.6247 -1.4369  0.7498
  147SAPE  H18Z16265   3.275   1.347   9.056 -0.0262  0.8757 -1.0429
  148SAPE     N16266   4.522   5.789   6.486  0.1961  0.6809 -0.3088
  148SAPE   HN116267   4.502   5.875   6.540 -1.2569  0.3145 -0.2260
  148SAPE   HN216268   4.610   5.736   6.502 -0.3030 -0.8465 -2.1495
  148SAPE   HN316269   4.516   5.819   6.386 -2.2733  0.8067 -0.1954
  148SAPE   C1216270   4.406   5.695   6.528  0.5101  0.5743  0.0169
  148SAPE  H12A16271   4.444   5.592   6.511  0.7179  0.2332  2.1956
  148SAPE  H12B16272   4.315   5.730   6.475  0.1361 -1.8892 -1.1004
  148SAPE   C1116273   4.385   5.708   6.683  0.2543 -0.7795  0.1525
  148SAPE  H11A16274   4.475   5.664   6.731  2.3263 -0.2102 -2.9382
  148SAPE  H11B16275   4.310   5.628   6.701  1.3432 -2.0305 -0.6884
  148SAPE     P16276   4.231   5.915   6.674  0.1983  0.2283  0.3765
  148SAPE   O1316277   4.267   5.989   6.555 -0.3637  0.0181  0.0213
  148SAPE   O1416278   4.122   5.814   6.667  0.4095  0.3824  0.5158
  148SAPE   O1216279   4.359   5.838   6.735 -0.0041 -0.2917 -0.5000
  148SAPE   O1116280   4.188   6.028   6.770 -0.1488 -0.1998  0.1736
  148SAPE    C116281   4.221   6.041   6.909  0.4066  0.0835  0.5160
  148SAPE    HA16282   4.164   5.971   6.973  0.0201 -0.2603 -0.1836
  148SAPE    HB16283   4.327   6.011   6.926  0.5877 -0.6968 -1.6692
  148SAPE    C216284   4.196   6.195   6.950  0.5011  0.7551 -0.6219
  148SAPE    HS16285   4.262   6.248   6.878  0.4818  0.4394 -0.8748
  148SAPE   O2116286   4.251   6.209   7.082 -0.2447 -0.1367 -0.4771
  148SAPE   C2116287   4.306   6.327   7.100 -0.1440  0.0044 -0.1819
  148SAPE   O2216288   4.325   6.410   7.013  0.0767 -0.3052  0.4016
  148SAPE   C2216289   4.346   6.336   7.248  0.2010 -0.4196 -0.9042
  148SAPE   H2R16290   4.359   6.232   7.285 -1.0894 -1.1159 -2.3196
  148SAPE   H2S16291   4.448   6.377   7.265 -0.2007  0.4650 -0.5792
  148SAPE    C316292   4.049   6.244   6.922 -0.8576 -0.1216 -0.1927
  148SAPE    HX16293   3.977   6.173   6.969  0.0398 -0.9433 -0.0453
  148SAPE    HY16294   4.024   6.248   6.813 -1.0147  1.6915 -0.1199
  148SAPE   O3116295   4.030   6.368   6.986 -0.2502  0.0160 -0.1929
  148SAPE   C3116296   3.958   6.457   6.924  0.0183 -0.4730  0.1194
  148SAPE   O3216297   3.877   6.437   6.836 -0.1861  0.3496  0.3790
  148SAPE   C3216298   4.009   6.594   6.963 -0.9989  0.2584  0.4447
  148SAPE   H2X16299   4.013   6.658   6.873  2.9970  0.6394  0.7003
  148SAPE   H2Y16300   4.111   6.582   7.004 -0.3560 -1.4947 -1.5115
  148SAPE   C2316301   4.237   6.404   7.335  0.1023  0.3183  0.3073
  148SAPE   H3R16302   4.145   6.343   7.335 -0.7287  1.5288  0.6929
  148SAPE   H3S16303   4.223   6.508   7.296 -0.6555  0.7274  1.6085
  148SAPE   C2416304   4.300   6.423   7.475  0.0956  0.6160 -0.2969
  148SAPE   H4R16305   4.232   6.498   7.520 -1.2469 -0.2691 -0.7655
  148SAPE   H4S16306   4.398   6.472   7.456  1.0954 -0.5567  1.5289
  148SAPE   C2516307   4.310   6.293   7.555 -0.5058  0.3447 -0.4902
  148SAPE   H5R16308   4.276   6.199   7.509  2.3017 -1.2235  0.3349
  148SAPE   C2616309   4.367   6.287   7.680  0.5835  0.5454 -0.2662
  148SAPE   H6R16310   4.373   6.187   7.727 -1.2724  0.1174 -0.8369
  148SAPE   C2716311   4.418   6.398   7.768 -0.6356  0.0365  0.5876
  148SAPE   H7R16312   4.408   6.498   7.722  2.9519  0.3654  0.2224
  148SAPE   H7S16313   4.527   6.381   7.786 -0.9360 -0.3311  2.2333
  148SAPE   C2816314   4.340   6.381   7.898 -0.3997  0.7295  0.1109
  148SAPE   H8R16315   4.237   6.418   7.898 -1.5238 -1.8297 -3.4110
  148SAPE   C2916316   4.399   6.346   8.014 -0.1702 -0.0289  0.2155
  148SAPE   H9R16317   4.344   6.326   8.107 -0.3341 -1.8411 -0.2239
  148SAPE  C21016318   4.544   6.307   8.035  0.2173 -0.4918 -0.0010
  148SAPE  H10R16319   4.604   6.302   7.941  0.6613  0.2632  0.2387
  148SAPE  H10S16320   4.562   6.202   8.068  1.1438  0.0557  1.3185
  148SAPE  C21116321   4.620   6.406   8.126 -0.6555 -0.8431 -0.7947
  148SAPE  H11R16322   4.644   6.502   8.078 -4.6951  1.0881  0.5586
  148SAPE  C21216323   4.660   6.386   8.259  0.6277  0.4102  0.2045
  148SAPE  H12R16324   4.727   6.456   8.311  0.4547  0.1982  0.7200
  148SAPE  C21316325   4.627   6.253   8.325  0.0757 -0.0824  0.7026
  148SAPE  H13R16326   4.715   6.186   8.314 -0.4727 -0.5117 -1.6179
  148SAPE  H13S16327   4.532   6.215   8.281 -0.3658  1.4642  0.2470
  148SAPE  C21416328   4.594   6.275   8.471  0.2603 -0.0192  1.1641
  148SAPE  H14R16329   4.515   6.351   8.486 -1.0170 -0.8989 -0.7682
  148SAPE  C21516330   4.661   6.234   8.581 -0.0573  0.0605 -0.3484
  148SAPE  H15R16331   4.634   6.275   8.679 -0.4201 -0.0248 -0.4126
  148SAPE  C21616332   4.798   6.160   8.588  0.6293  0.2140  0.4028
  148SAPE  H16R16333   4.813   6.100   8.496 -1.2181  0.3087  0.0154
  148SAPE  H16S16334   4.806   6.095   8.678  0.7863 -1.2504 -0.6142
  148SAPE  C21716335   4.912   6.256   8.578  0.0255  0.1192 -0.1337
  148SAPE  H17R16336   4.906   6.337   8.654  0.9726  0.7368 -0.6999
  148SAPE  H17S16337   4.897   6.308   8.481 -1.1033  0.2991  0.1197
  148SAPE  C21816338   5.056   6.196   8.590 -1.0145 -0.2562 -0.3958
  148SAPE  H18R16339   5.074   6.111   8.520 -0.7155  0.2304 -0.9219
  148SAPE  H18S16340   5.068   6.148   8.690  2.1857 -0.4527 -0.7505
  148SAPE  C21916341   5.168   6.306   8.582  0.4867  0.3894 -0.0615
  148SAPE  H19R16342   5.152   6.369   8.493 -0.5337 -1.1973 -1.0550
  148SAPE  H19S16343   5.267   6.254   8.576  1.3161  1.9393 -0.2389
  148SAPE  C22016344   5.182   6.402   8.701 -0.3177  0.2711  0.4424
  148SAPE  H20R16345   5.188   6.343   8.795 -0.0938 -1.1342 -0.4349
  148SAPE  H20S16346   5.098   6.474   8.699  0.2438  0.9929  1.5443
  148SAPE  H20T16347   5.273   6.465   8.690 -1.7220  2.0160 -2.2992
  148SAPE   C3316348   3.924   6.648   7.078  0.2946  0.6528 -0.7505
  148SAPE   H3X16349   3.920   6.568   7.155  0.9539  1.0151 -0.3267
  148SAPE   H3Y16350   3.819   6.641   7.042  0.3817 -2.5476 -0.5850
  148SAPE   C3416351   3.971   6.777   7.132  0.0532 -0.8260 -0.1544
  148SAPE   H4X16352   3.939   6.854   7.058 -1.7365 -1.4939 -0.1190
  148SAPE   H4Y16353   4.082   6.785   7.142 -0.0813  1.4168  0.1132
  148SAPE   C3516354   3.912   6.812   7.275 -0.1343  0.0674  0.0785
  148SAPE   H5X16355   3.802   6.799   7.268 -0.1405  0.7282 -1.5045
  148SAPE   H5Y16356   3.949   6.916   7.286  1.1853 -0.2775 -0.8316
  148SAPE   C3616357   3.958   6.721   7.396 -0.1187  0.6469 -0.0405
  148SAPE   H6X16358   4.069   6.710   7.392 -0.1761 -0.3152  0.8560
  148SAPE   H6Y16359   3.915   6.622   7.373  1.6858  0.1815 -1.8052
  148SAPE   C3716360   3.927   6.776   7.535  0.4455 -0.1262  0.6111
  148SAPE   H7X16361   3.817   6.794   7.541  0.1623 -1.7049  0.4577
  148SAPE   H7Y16362   3.971   6.878   7.536  0.1314  0.0098  1.0632
  148SAPE   C3816363   3.978   6.690   7.651 -0.1450 -0.1164  0.0354
  148SAPE   H8X16364   4.078   6.652   7.621  0.7538  0.9524  1.5854
  148SAPE   H8Y16365   3.906   6.607   7.668  1.0297 -1.7273 -2.3108
  148SAPE   C3916366   3.998   6.758   7.785  0.0322  0.3974  0.6928
  148SAPE   H9X16367   3.897   6.795   7.811 -0.9176 -3.1477  2.7946
  148SAPE   H9Y16368   4.057   6.852   7.785  0.2666  0.2722 -0.8690
  148SAPE  C31016369   4.037   6.666   7.895 -0.1283 -0.2214  0.5161
  148SAPE  H10X16370   4.135   6.625   7.862 -1.7584 -2.5187 -1.8251
  148SAPE  H10Y16371   3.966   6.581   7.898 -0.0891 -0.2766  0.0037
  148SAPE  C31116372   4.062   6.737   8.031  0.0045 -0.2497 -0.5003
  148SAPE  H11X16373   3.970   6.778   8.077  0.6707 -1.7865  2.4813
  148SAPE  H11Y16374   4.123   6.828   8.012 -0.0505  0.9253  3.8989
  148SAPE  C31216375   4.156   6.653   8.121  0.1550 -0.1509  0.2545
  148SAPE  H12X16376   4.254   6.645   8.069  0.1756  1.6231 -0.0642
  148SAPE  H12Y16377   4.093   6.565   8.145  1.2754 -0.8546  0.6886
  148SAPE  C31316378   4.186   6.724   8.259  0.5350  0.1266  0.0079
  148SAPE  H13X16379   4.090   6.766   8.297  0.2578  2.1419 -2.6052
  148SAPE  H13Y16380   4.253   6.812   8.245  0.3024  0.2942 -0.0741
  148SAPE  C31416381   4.252   6.640   8.368 -0.6103  0.8257 -0.2790
  148SAPE  H14X16382   4.347   6.593   8.334 -1.4461 -1.1319 -0.0761
  148SAPE  H14Y16383   4.182   6.554   8.381  1.7634 -1.3137 -0.8453
  148SAPE  C31516384   4.280   6.719   8.500 -0.3330  0.2335 -0.1181
  148SAPE  H15X16385   4.185   6.775   8.516  0.8615  2.4187 -0.2902
  148SAPE  H15Y16386   4.356   6.799   8.484 -1.1781  1.7653  2.7019
  148SAPE  C31616387   4.321   6.633   8.615 -0.3403 -0.2825  0.0798
  148SAPE  H16X16388   4.349   6.709   8.691  0.3542 -1.3214  0.8970
  148SAPE  H16Y16389   4.414   6.573   8.604  0.3355  0.5043  1.2507
  148SAPE  C31716390   4.202   6.547   8.669  0.0301 -0.4744  0.4537
  148SAPE  H17X16391   4.177   6.479   8.585  1.6028 -1.6601  0.9089
  148SAPE  H17Y16392   4.126   6.623   8.699 -0.9039 -0.6693 -1.2979
  148SAPE  C31816393   4.246   6.464   8.788  0.5485  0.0743  0.5581
  148SAPE  H18X16394   4.315   6.384   8.751 -0.1226  0.8751 -2.7456
  148SAPE  H18Y16395   4.156   6.411   8.825  0.4256 -1.5385 -1.8233
  148SAPE  H18Z16396   4.286   6.519   8.876  1.1525 -0.0034  0.3351
  149SAPE     N16397   3.094   0.126   6.309  0.2329  0.2419  0.1214
  149SAPE   HN116398   3.097   0.217   6.360 -2.9050  1.0439 -0.9405
  149SAPE   HN216399   3.013   0.121   6.245 -0.3167 -1.5711  0.8835
  149SAPE   HN316400   3.080   0.042   6.369 -1.2506 -1.8144 -2.8785
  149SAPE   C1216401   3.220   0.111   6.224 -0.1968 -0.5133  0.5795
  149SAPE  H12A16402   3.227   0.206   6.166  0.2059 -0.7522  0.2392
  149SAPE  H12B16403   3.216   0.021   6.160  1.8348  0.2268 -0.6750
  149SAPE   C1116404   3.340   0.109   6.320 -0.1455 -0.1442  0.5404
  149SAPE  H11A16405   3.337   0.201   6.382  0.4622 -0.4984  1.1080
  149SAPE  H11B16406   3.432   0.116   6.258 -0.7278  0.2572 -0.3008
  149SAPE     P16407   3.473  -0.071   6.453 -0.8357  0.3006  0.2658
  149SAPE   O1316408   3.501  -0.194   6.377 -0.0818  0.2149  0.5015
  149SAPE   O1416409   3.585   0.027   6.447 -0.2930  0.3778 -0.5264
  149SAPE   O1216410   3.339  -0.004   6.404 -0.2269  0.0679 -0.3066
  149SAPE   O1116411   3.446  -0.110   6.603  0.2979 -0.0014 -0.4362
  149SAPE    C116412   3.357  -0.040   6.689 -0.3338  0.0930 -0.6305
  149SAPE    HA16413   3.339   0.068   6.670 -2.6855  0.0540  0.9369
  149SAPE    HB16414   3.252  -0.077   6.683 -0.4910  0.6320 -1.4122
  149SAPE    C216415   3.408  -0.057   6.835 -0.9385  0.5344 -0.3249
  149SAPE    HS16416   3.387   0.026   6.905  0.7153 -0.2009  1.1327
  149SAPE   O2116417   3.560  -0.065   6.838  0.6457 -0.2380 -0.5322
  149SAPE   C2116418   3.607   0.040   6.783  0.1108  0.1642 -0.4336
  149SAPE   O2216419   3.559   0.151   6.772  0.0931 -0.3039 -0.4282
  149SAPE   C2216420   3.754   0.015   6.742  0.3579 -0.0709 -0.0992
  149SAPE   H2R16421   3.799  -0.064   6.806 -1.4265  0.1528  1.5135
  149SAPE   H2S16422   3.748  -0.015   6.634 -2.6389 -0.4017  0.0670
  149SAPE    C316423   3.348  -0.194   6.880  0.7710  0.7056 -0.4110
  149SAPE    HX16424   3.366  -0.277   6.808 -1.4867 -1.9878  1.8976
  149SAPE    HY16425   3.237  -0.192   6.878  0.6540 -0.4730  1.7094
  149SAPE   O3116426   3.389  -0.235   7.007  0.8110  0.0326 -0.1465
  149SAPE   C3116427   3.518  -0.283   7.015  0.1045 -0.1424  0.5497
  149SAPE   O3216428   3.574  -0.338   6.923  0.4033 -0.2490 -0.3787
  149SAPE   C3216429   3.576  -0.244   7.147 -0.3267 -0.0671 -0.1713
  149SAPE   H2X16430   3.596  -0.136   7.132 -2.0867  0.2156 -0.7766
  149SAPE   H2Y16431   3.671  -0.302   7.152 -1.0956 -1.2555  1.5984
  149SAPE   C2316432   3.839   0.141   6.762 -0.4483 -0.3471  0.1034
  149SAPE   H3R16433   3.852   0.169   6.869  0.4901  1.5323 -0.4398
  149SAPE   H3S16434   3.801   0.229   6.706 -0.2927 -1.3816 -1.6934
  149SAPE   C2416435   3.984   0.109   6.712 -0.0023  0.3606  0.0184
  149SAPE   H4R16436   3.956   0.088   6.606  2.0621  0.0965 -0.5192
  149SAPE   H4S16437   4.028   0.015   6.753  0.9856 -0.0128 -1.7915
  149SAPE   C2516438   4.083   0.223   6.735  0.1757  0.3766 -0.6366
  149SAPE   H5R16439   4.059   0.323   6.696  2.9624  1.1150 -0.6631
  149SAPE   C2616440   4.197   0.223   6.804  0.0858  0.3346 -0.7569
  149SAPE   H6R16441   4.257   0.315   6.793 -2.2863  2.0525  0.0044
  149SAPE   C2716442   4.257   0.109   6.875 -0.3470  0.0763  0.2540
  149SAPE   H7R16443   4.179   0.039   6.913 -1.6559  1.3097 -0.0493
  149SAPE   H7S16444   4.297   0.154   6.968 -1.9747  0.8834  0.6002
  149SAPE   C2816445   4.367   0.029   6.797  0.1642  0.8361 -1.5075
  149SAPE   H8R16446   4.355   0.034   6.688  1.0352  2.1823 -1.5648
  149SAPE   C2916447   4.487  -0.019   6.845 -0.0457  0.0901  0.2953
  149SAPE   H9R16448   4.555  -0.054   6.766 -0.9970  0.8912 -0.9114
  149SAPE  C21016449   4.535  -0.008   6.985 -0.4239  0.3579  0.4640
  149SAPE  H10R16450   4.539   0.101   7.006  0.2863  0.0745  1.9337
  149SAPE  H10S16451   4.637  -0.048   7.001  0.0756  0.9063 -1.1190
  149SAPE  C21116452   4.450  -0.083   7.096  0.4121 -0.6802 -0.3475
  149SAPE  H11R16453   4.401  -0.178   7.069 -1.3954  0.5082 -1.4702
  149SAPE  C21216454   4.428  -0.037   7.221  0.3518 -0.4482 -0.3831
  149SAPE  H12R16455   4.375  -0.099   7.295 -0.4716 -0.7930 -1.2424
  149SAPE  C21316456   4.474   0.096   7.278  0.0494 -0.1201 -0.0967
  149SAPE  H13R16457   4.484   0.166   7.192 -3.2097 -1.3962 -1.6755
  149SAPE  H13S16458   4.578   0.093   7.317  0.6447  0.6048 -1.5325
  149SAPE  C21416459   4.376   0.159   7.380  0.2274  0.4804  0.0595
  149SAPE  H14R16460   4.319   0.246   7.345 -0.0599  1.1077  1.9686
  149SAPE  C21516461   4.338   0.110   7.500 -0.1234 -0.8151 -0.0296
  149SAPE  H15R16462   4.266   0.171   7.556 -1.6137 -1.2988 -1.3694
  149SAPE  C21616463   4.381  -0.014   7.568  0.1424  0.0474  0.0152
  149SAPE  H16R16464   4.458  -0.067   7.509  1.3873 -0.9265  2.3636
  149SAPE  H16S16465   4.298  -0.087   7.584  1.5205 -1.4754  0.3944
  149SAPE  C21716466   4.442   0.002   7.707 -0.3558  0.0352 -0.1305
  149SAPE  H17R16467   4.553   0.004   7.697 -0.4957  0.0453 -1.9976
  149SAPE  H17S16468   4.415  -0.090   7.764 -0.8122  0.1407 -0.1731
  149SAPE  C21816469   4.396   0.124   7.787  0.4444  0.1990 -0.7051
  149SAPE  H18R16470   4.286   0.116   7.797  0.3752  2.3673  1.2550
  149SAPE  H18S16471   4.411   0.222   7.737 -0.2351  0.8655  0.3559
  149SAPE  C21916472   4.462   0.120   7.922  0.1028 -0.3943 -0.6037
  149SAPE  H19R16473   4.571   0.141   7.915  0.0269  0.1787 -0.1516
  149SAPE  H19S16474   4.444   0.023   7.974  2.7019 -0.3233  0.5992
  149SAPE  C22016475   4.416   0.239   8.014 -0.0213  0.8231 -0.1002
  149SAPE  H20R16476   4.324   0.286   7.974 -0.3425  3.2696  3.0923
  149SAPE  H20S16477   4.497   0.314   8.023 -0.3069  0.9340  2.1200
  149SAPE  H20T16478   4.380   0.214   8.116  0.7708  0.9283  0.2181
  149SAPE   C3316479   3.495  -0.281   7.276  0.0782 -0.6084 -0.5451
  149SAPE   H3X16480   3.492  -0.392   7.284 -0.2331 -0.6922 -1.7691
  149SAPE   H3Y16481   3.391  -0.242   7.272  0.6413  1.0854  0.3156
  149SAPE   C3416482   3.568  -0.239   7.407 -0.2831 -0.6533  0.1261
  149SAPE   H4X16483   3.596  -0.132   7.402 -3.6561  0.3427  0.5258
  149SAPE   H4Y16484   3.662  -0.298   7.396 -0.7505 -1.2317 -0.9361
  149SAPE   C3516485   3.487  -0.284   7.529 -0.4127  0.0003 -0.1338
  149SAPE   H5X16486   3.453  -0.387   7.507  0.6762  0.0456 -2.3242
  149SAPE   H5Y16487   3.403  -0.210   7.535  1.6131  2.3208  1.8208
  149SAPE   C3616488   3.578  -0.273   7.657  0.2105 -0.3612  0.3723
  149SAPE   H6X16489   3.581  -0.166   7.686 -2.1546 -1.0509  3.7732
  149SAPE   H6Y16490   3.680  -0.280   7.613  0.0669 -1.1051  0.1382
  149SAPE   C3716491   3.546  -0.355   7.781  0.4648  0.4530 -0.2020
  149SAPE   H7X16492   3.582  -0.456   7.753  1.9180  0.5608  1.1580
  149SAPE   H7Y16493   3.435  -0.355   7.791  0.6216  1.0087  2.1816
  149SAPE   C3816494   3.633  -0.310   7.897 -0.4293 -0.5333 -0.8739
  149SAPE   H8X16495   3.606  -0.204   7.912  1.7186  0.2924 -2.3714
  149SAPE   H8Y16496   3.743  -0.304   7.879 -0.8115 -0.5573 -3.4608
  149SAPE   C3916497   3.610  -0.381   8.024 -0.1998 -0.2176 -0.5524
  149SAPE   H9X16498   3.615  -0.491   8.009 -0.2738 -0.1284 -1.2579
  149SAPE   H9Y16499   3.509  -0.365   8.067  0.0060 -3.7699  1.6971
  149SAPE  C31016500   3.712  -0.346   8.134 -0.7794 -0.1711  0.4504
  149SAPE  H10X16501   3.809  -0.385   8.096 -1.4951 -0.4184 -1.2358
  149SAPE  H10Y16502   3.690  -0.398   8.229 -1.5186  0.3561  0.5784
  149SAPE  C31116503   3.727  -0.199   8.169  0.0189  0.2187  0.5038
  149SAPE  H11X16504   3.627  -0.154   8.154 -0.5960 -0.5893  1.9687
  149SAPE  H11Y16505   3.787  -0.151   8.088 -2.0952  3.0590  0.4999
  149SAPE  C31216506   3.785  -0.167   8.305 -0.0455  0.3965 -0.3396
  149SAPE  H12X16507   3.887  -0.208   8.323 -0.6421  0.2426  3.6313
  149SAPE  H12Y16508   3.718  -0.201   8.387  0.2443  0.3160 -0.1329
  149SAPE  C31316509   3.800  -0.013   8.325  0.4708  0.1156  0.3079
  149SAPE  H13X16510   3.703   0.027   8.289  1.1085  0.2144 -1.4012
  149SAPE  H13Y16511   3.874   0.029   8.253  0.1455  0.8155  0.3754
  149SAPE  C31416512   3.827   0.036   8.465 -0.0867  0.2584  0.4750
  149SAPE  H14X16513   3.811   0.146   8.466  0.5500  0.3955 -1.4713
  149SAPE  H14Y16514   3.938   0.026   8.473 -0.0402 -2.2799 -1.7873
  149SAPE  C31516515   3.771  -0.028   8.593  0.0401 -0.1882 -0.6734
  149SAPE  H15X16516   3.816  -0.129   8.600  1.6736  0.5416 -0.1056
  149SAPE  H15Y16517   3.662  -0.045   8.590  0.0898 -0.8522  0.7598
  149SAPE  C31616518   3.801   0.062   8.722  0.1688 -0.4896 -0.4035
  149SAPE  H16X16519   3.910   0.081   8.730 -0.0630  0.5666  0.3997
  149SAPE  H16Y16520   3.766   0.002   8.808  0.4931  0.8973  0.7246
  149SAPE  C31716521   3.745   0.211   8.729  0.1880  0.1999 -0.4327
  149SAPE  H17X16522   3.636   0.206   8.709  0.0552  1.8069 -0.2119
  149SAPE  H17Y16523   3.791   0.269   8.647  1.1733  0.9558  0.6325
  149SAPE  C31816524   3.771   0.281   8.862 -0.1066  0.2409  1.3094
  149SAPE  H18X16525   3.740   0.226   8.953  0.8362  0.0694  1.5295
  149SAPE  H18Y16526   3.731   0.385   8.851  0.4621  0.2988 -0.5097
  149SAPE  H18Z16527   3.879   0.302   8.876  0.0742 -1.3411  2.4876
  150SAPE     N16528   1.442   1.042   6.515  0.1887 -0.1675  0.2730
  150SAPE   HN116529   1.477   0.973   6.446 -0.3173 -0.0806 -0.0714
  150SAPE   HN216530   1.448   0.994   6.607 -2.5249 -0.7110  0.2487
  150SAPE   HN316531   1.350   1.084   6.492  1.2374  0.8539 -2.4757
  150SAPE   C1216532   1.538   1.155   6.518 -0.1709  0.1352 -0.7194
  150SAPE  H12A16533   1.599   1.143   6.610  0.3822  0.1416 -1.0812
  150SAPE  H12B16534   1.486   1.253   6.523 -2.6240 -1.1490  1.7303
  150SAPE   C1116535   1.629   1.143   6.396 -0.4110  0.2342  0.1055
  150SAPE  H11A16536   1.695   1.231   6.378  2.1071 -1.6865 -0.6354
  150SAPE  H11B16537   1.567   1.137   6.304 -1.8022  0.2081  1.0002
  150SAPE     P16538   1.857   1.006   6.358  0.0309 -0.3002 -0.3139
  150SAPE   O1316539   1.856   1.000   6.205 -0.1311 -0.1242  0.4260
  150SAPE   O1416540   1.950   1.099   6.430 -0.0606  0.5239  0.2539
  150SAPE   O1216541   1.709   1.018   6.403  0.3941 -0.4375  0.6897
  150SAPE   O1116542   1.890   0.860   6.420 -0.6736 -0.2033  0.0935
  150SAPE    C116543   1.796   0.778   6.493 -0.0102  0.4088 -0.2139
  150SAPE    HA16544   1.694   0.781   6.450 -1.1790 -0.1670  2.3547
  150SAPE    HB16545   1.824   0.671   6.486  1.1488  0.6947 -0.1682
  150SAPE    C216546   1.798   0.805   6.644  0.0762 -0.2764  0.0475
  150SAPE    HS16547   1.773   0.913   6.659  0.0875 -0.4727  1.7106
  150SAPE   O2116548   1.925   0.771   6.696 -0.0119  0.2211 -0.5342
  150SAPE   C2116549   1.950   0.828   6.815  0.7674 -0.0524  0.1035
  150SAPE   O2216550   1.894   0.931   6.855  0.0073  0.5051 -0.2641
  150SAPE   C2216551   2.077   0.773   6.880 -0.3621  0.8772  0.1774
  150SAPE   H2R16552   2.060   0.663   6.874  1.2609  0.6824 -2.9466
  150SAPE   H2S16553   2.158   0.811   6.814 -2.1345  1.8286 -1.5514
  150SAPE    C316554   1.688   0.719   6.714 -0.2399  0.2335  0.5844
  150SAPE    HX16555   1.733   0.618   6.721 -0.9753 -0.2088 -0.7917
  150SAPE    HY16556   1.598   0.709   6.649  0.1781  0.7373 -0.0739
  150SAPE   O3116557   1.654   0.764   6.852  0.6198  0.4724  0.1938
  150SAPE   C3116558   1.573   0.866   6.853  0.0991 -0.2927 -0.7244
  150SAPE   O3216559   1.521   0.920   6.758  0.7084  0.6138 -0.0844
  150SAPE   C3216560   1.562   0.922   6.994  0.0712 -0.3281 -0.4290
  150SAPE   H2X16561   1.636   1.005   6.996  0.7200 -0.8258 -2.3019
  150SAPE   H2Y16562   1.595   0.854   7.076  1.1853  1.3561  0.5880
  150SAPE   C2316563   2.070   0.812   7.030 -0.3057 -0.9467  0.5023
  150SAPE   H3R16564   1.980   0.782   7.088 -0.5162  1.0132  1.2906
  150SAPE   H3S16565   2.066   0.923   7.021 -0.3222 -1.0950 -2.1219
  150SAPE   C2416566   2.201   0.775   7.096  0.4261  0.3285 -0.0174
  150SAPE   H4R16567   2.206   0.850   7.178 -0.5798  0.8832 -0.4443
  150SAPE   H4S16568   2.282   0.806   7.026  2.5959 -0.5818  1.9391
  150SAPE   C2516569   2.221   0.627   7.135 -0.2777  0.6852  0.3301
  150SAPE   H5R16570   2.225   0.560   7.048 -1.6374  0.6579  0.2690
  150SAPE   C2616571   2.228   0.587   7.267 -0.2661  0.5474  0.8135
  150SAPE   H6R16572   2.249   0.481   7.286  1.3545  0.8348  0.8269
  150SAPE   C2716573   2.226   0.672   7.395 -0.9868 -0.8180 -0.0981
  150SAPE   H7R16574   2.252   0.779   7.382  0.9934 -1.0424  1.5421
  150SAPE   H7S16575   2.299   0.630   7.467 -0.1110  0.7727 -0.0094
  150SAPE   C2816576   2.089   0.650   7.448 -0.2706 -0.2281 -0.2662
  150SAPE   H8R16577   2.000   0.655   7.382 -1.0970 -3.1423  0.4801
  150SAPE   C2916578   2.053   0.647   7.577 -0.2358 -0.8708 -1.0380
  150SAPE   H9R16579   1.944   0.643   7.596 -0.2012  1.4225 -0.0691
  150SAPE  C21016580   2.142   0.662   7.699  0.5716  0.0800 -0.0502
  150SAPE  H10R16581   2.117   0.765   7.730  0.2697  0.2545 -0.8520
  150SAPE  H10S16582   2.252   0.662   7.684  0.8604 -0.9812  1.7529
  150SAPE  C21116583   2.112   0.563   7.809 -0.5498  1.4423  0.5845
  150SAPE  H11R16584   2.057   0.473   7.780 -2.1343  2.4266  0.4403
  150SAPE  C21216585   2.137   0.568   7.936 -0.1379  0.4646 -0.3355
  150SAPE  H12R16586   2.121   0.479   7.998  1.1259 -1.1335 -2.1831
  150SAPE  C21316587   2.224   0.670   8.008  0.5414 -0.1063  0.2630
  150SAPE  H13R16588   2.196   0.773   7.977  1.8297  0.3917  0.6950
  150SAPE  H13S16589   2.330   0.647   7.983  0.4032 -0.8412  0.3266
  150SAPE  C21416590   2.216   0.661   8.162  0.0921 -0.4730  0.4201
  150SAPE  H14R16591   2.208   0.561   8.205  1.7121 -0.1635  1.5007
  150SAPE  C21516592   2.203   0.762   8.251 -1.0384  0.5673 -0.6345
  150SAPE  H15R16593   2.185   0.731   8.354 -2.0952  0.4134 -0.8601
  150SAPE  C21616594   2.202   0.912   8.222 -0.8100  0.1409  0.3077
  150SAPE  H16R16595   2.109   0.962   8.258 -1.4457 -0.2160 -0.8181
  150SAPE  H16S16596   2.202   0.930   8.113  2.2137 -1.2740 -0.0384
  150SAPE  C21716597   2.326   0.992   8.278  0.1093 -0.3151  0.8542
  150SAPE  H17R16598   2.333   1.092   8.231  1.2885 -0.2045  1.2386
  150SAPE  H17S16599   2.413   0.934   8.241 -0.7667 -0.2121 -1.6024
  150SAPE  C21816600   2.334   1.006   8.431 -0.4660 -0.5280 -0.0419
  150SAPE  H18R16601   2.313   0.922   8.501 -1.5810  1.2167  1.8170
  150SAPE  H18S16602   2.261   1.086   8.456 -0.8728 -0.8849 -0.0714
  150SAPE  C21916603   2.468   1.049   8.490 -0.7876  0.5946  0.5719
  150SAPE  H19R16604   2.487   1.147   8.442 -0.1868  1.1635  1.9228
  150SAPE  H19S16605   2.541   0.980   8.443 -0.3135  0.1882  1.8542
  150SAPE  C22016606   2.473   1.059   8.645 -0.2998  0.6135 -0.2265
  150SAPE  H20R16607   2.557   1.128   8.668  1.8742 -2.1112  0.5240
  150SAPE  H20S16608   2.495   0.963   8.694 -1.4333  0.6819  0.4613
  150SAPE  H20T16609   2.372   1.098   8.670 -2.0624 -1.9098 -2.7389
  150SAPE   C3316610   1.413   0.962   7.018 -0.4655  0.3526 -0.8826
  150SAPE   H3X16611   1.347   0.873   7.025  1.0062 -0.6551  0.6556
  150SAPE   H3Y16612   1.386   1.031   6.934  1.0419  2.0453 -0.0351
  150SAPE   C3416613   1.393   1.035   7.152  0.2281  0.3099  0.2117
  150SAPE   H4X16614   1.287   1.067   7.166 -0.1124 -1.4276  2.2555
  150SAPE   H4Y16615   1.458   1.124   7.158  1.6380 -0.6376 -0.5314
  150SAPE   C3516616   1.407   0.944   7.279  0.4588  0.0571  0.1469
  150SAPE   H5X16617   1.514   0.915   7.284  0.1793 -0.8783  1.0236
  150SAPE   H5Y16618   1.351   0.851   7.257  3.5305 -1.2323 -3.3504
  150SAPE   C3616619   1.363   1.026   7.403  0.0784  0.1639 -0.9302
  150SAPE   H6X16620   1.252   1.033   7.402  0.1509  1.8372 -0.7810
  150SAPE   H6Y16621   1.412   1.125   7.397 -0.2758  0.4006 -0.0764
  150SAPE   C3716622   1.415   0.972   7.540  0.6537  0.0066  0.2061
  150SAPE   H7X16623   1.525   0.983   7.533  0.5836  1.7409  1.4090
  150SAPE   H7Y16624   1.382   0.867   7.555 -0.5533  0.3291 -0.0572
  150SAPE   C3816625   1.369   1.048   7.659  0.1482 -0.2192 -0.2795
  150SAPE   H8X16626   1.259   1.056   7.657  0.1375 -0.5161 -2.2144
  150SAPE   H8Y16627   1.413   1.151   7.663 -0.9100  0.2793 -1.1471
  150SAPE   C3916628   1.416   0.982   7.789 -0.4120  0.0743  0.2442
  150SAPE   H9X16629   1.520   0.946   7.776 -0.8313 -0.9593 -0.3840
  150SAPE   H9Y16630   1.357   0.888   7.796  0.7999 -1.1066 -3.2485
  150SAPE  C31016631   1.418   1.068   7.915  0.1904 -0.2179  0.4251
  150SAPE  H10X16632   1.313   1.101   7.937 -0.1428 -2.0156  1.7642
  150SAPE  H10Y16633   1.457   1.168   7.887 -0.2444 -0.4462 -1.0630
  150SAPE  C31116634   1.483   1.011   8.037  0.2695 -0.4907 -0.3672
  150SAPE  H11X16635   1.588   0.998   8.003  1.6262 -0.4860  3.3630
  150SAPE  H11Y16636   1.428   0.916   8.055  0.0593 -0.1826  0.7243
  150SAPE  C31216637   1.463   1.113   8.156  0.2416 -0.1556 -0.3986
  150SAPE  H12X16638   1.359   1.140   8.182  0.4333 -0.8298  1.1896
  150SAPE  H12Y16639   1.509   1.207   8.117 -1.7310  0.5462 -1.1891
  150SAPE  C31316640   1.534   1.061   8.287  0.0719  0.4343 -0.3394
  150SAPE  H13X16641   1.631   1.023   8.248 -0.6438 -2.3684  0.4019
  150SAPE  H13Y16642   1.479   0.974   8.327  0.2595 -0.4509 -1.9339
  150SAPE  C31416643   1.545   1.161   8.404  0.5710 -0.2742 -0.6828
  150SAPE  H14X16644   1.453   1.222   8.409 -0.7458 -2.2538  1.3773
  150SAPE  H14Y16645   1.628   1.230   8.382 -0.7881  1.0015 -2.0707
  150SAPE  C31516646   1.566   1.096   8.540 -0.1986 -0.1319  0.0022
  150SAPE  H15X16647   1.671   1.061   8.551  0.7413  2.4706 -0.0643
  150SAPE  H15Y16648   1.505   1.004   8.555  0.2940 -0.4416  0.1765
  150SAPE  C31616649   1.544   1.181   8.669 -0.1380  0.0723  0.1587
  150SAPE  H16X16650   1.593   1.279   8.650 -0.6531 -0.2296 -3.3129
  150SAPE  H16Y16651   1.595   1.133   8.755  2.4953  0.9240 -0.8344
  150SAPE  C31716652   1.392   1.201   8.696  0.6579  0.7438 -0.4086
  150SAPE  H17X16653   1.364   1.099   8.729  2.2829 -0.0483 -1.3468
  150SAPE  H17Y16654   1.338   1.214   8.600 -1.3752 -5.0985 -0.4762
  150SAPE  C31816655   1.370   1.321   8.791  0.1727  0.2701  0.3598
  150SAPE  H18X16656   1.439   1.395   8.745 -0.6300  1.9576  1.7596
  150SAPE  H18Y16657   1.385   1.291   8.897 -0.4951 -2.5188 -0.2344
  150SAPE  H18Z16658   1.263   1.352   8.781  0.3266  0.2996 -1.4518
  151SAPE     N16659   5.430   4.668   6.228  0.1777  0.5097  1.0363
  151SAPE   HN116660   5.427   4.579   6.282 -2.0463  0.3094  0.6806
  151SAPE   HN216661   5.487   4.742   6.274 -0.5374  2.1482 -0.5976
  151SAPE   HN316662   5.336   4.713   6.232 -0.0037  0.1424  0.8842
  151SAPE   C1216663   5.477   4.648   6.093 -0.4208 -0.4191 -0.2907
  151SAPE  H12A16664   5.476   4.751   6.051 -0.1934  0.0140  0.7454
  151SAPE  H12B16665   5.412   4.587   6.027 -0.6119  0.6593 -1.1437
  151SAPE   C1116666   5.620   4.608   6.097  0.3210  0.0043  0.4106
  151SAPE  H11A16667   5.652   4.598   5.991  0.8866  2.1220  0.3462
  151SAPE  H11B16668   5.623   4.511   6.152 -2.1519  0.2625  1.0944
  151SAPE     P16669   5.841   4.731   6.105  0.1581  0.5415  0.5153
  151SAPE   O1316670   5.911   4.604   6.083  0.0255 -0.4985  0.0517
  151SAPE   O1416671   5.843   4.835   6.002  0.3920 -0.1737  0.5239
  151SAPE   O1216672   5.692   4.707   6.160  0.0022 -0.4303  0.2421
  151SAPE   O1116673   5.905   4.800   6.232  0.0889  0.5696  0.1819
  151SAPE    C116674   5.915   4.941   6.254  0.1779 -0.2697  0.0043
  151SAPE    HA16675   5.950   4.999   6.167  0.7968 -1.7457 -0.7589
  151SAPE    HB16676   5.819   4.991   6.282  0.1539 -0.3923  0.1461
  151SAPE    C216677   6.020   4.968   6.362 -0.1988 -0.1414 -0.3066
  151SAPE    HS16678   6.110   4.905   6.345  0.2232  0.7697 -1.6344
  151SAPE   O2116679   5.959   4.925   6.487  0.0202 -0.7917 -0.0367
  151SAPE   C2116680   6.050   4.931   6.589  0.0855  0.4511 -0.5121
  151SAPE   O2216681   6.173   4.944   6.581  1.0236  0.2174 -0.5864
  151SAPE   C2216682   5.980   4.933   6.720 -0.5695  0.3660  0.3199
  151SAPE   H2R16683   5.921   5.027   6.718  0.8942  1.3660  1.5274
  151SAPE   H2S16684   5.908   4.849   6.728  0.2005 -0.2063  1.3879
  151SAPE    C316685   6.059   5.118   6.366  0.0106  0.2501  0.1462
  151SAPE    HX16686   6.104   5.152   6.270 -0.5921 -1.2116 -0.6981
  151SAPE    HY16687   6.136   5.129   6.445 -0.8694 -0.9418  1.2041
  151SAPE   O3116688   5.945   5.189   6.404  0.0575 -0.3838  0.5139
  151SAPE   C3116689   5.932   5.250   6.522 -0.4638  0.0676  0.3905
  151SAPE   O3216690   6.014   5.257   6.612  0.0468 -0.6856  0.5607
  151SAPE   C3216691   5.793   5.316   6.516 -0.1121 -0.5545 -0.0694
  151SAPE   H2X16692   5.719   5.264   6.451 -0.7778  0.4983 -0.1939
  151SAPE   H2Y16693   5.809   5.416   6.469 -1.1869  0.0755  0.8331
  151SAPE   C2316694   6.082   4.925   6.838 -0.6720  0.4557  0.2018
  151SAPE   H3R16695   6.033   4.959   6.931  1.0992  2.4379  0.4806
  151SAPE   H3S16696   6.164   4.996   6.818 -1.8508  3.0957  3.6797
  151SAPE   C2416697   6.129   4.774   6.857  0.1226  0.1387 -0.1322
  151SAPE   H4R16698   6.226   4.782   6.911 -0.5719  3.0145  0.8264
  151SAPE   H4S16699   6.142   4.719   6.762 -1.5692 -2.8743  1.2058
  151SAPE   C2516700   6.019   4.698   6.932  0.1701  0.3011  0.2707
  151SAPE   H5R16701   5.949   4.647   6.863 -1.0880  1.6267  0.5086
  151SAPE   C2616702   5.987   4.698   7.058  0.8000  0.2614 -0.6386
  151SAPE   H6R16703   5.910   4.631   7.099  1.8223 -0.3155  0.3639
  151SAPE   C2716704   6.066   4.780   7.160  0.0596 -0.3706 -0.2198
  151SAPE   H7R16705   6.009   4.796   7.254  0.0980 -1.4312 -0.0031
  151SAPE   H7S16706   6.089   4.880   7.117  0.3202 -0.1106  0.5117
  151SAPE   C2816707   6.197   4.725   7.199 -0.1809  0.3249  0.0209
  151SAPE   H8R16708   6.265   4.718   7.113  0.7010  0.5257  0.6837
  151SAPE   C2916709   6.238   4.682   7.319  0.1691  0.3638 -0.0884
  151SAPE   H9R16710   6.340   4.643   7.328  0.1027  0.5121  1.9285
  151SAPE  C21016711   6.156   4.678   7.453 -0.4546 -0.6929 -0.0063
  151SAPE  H10R16712   6.120   4.573   7.449 -0.6508 -0.6183 -3.7618
  151SAPE  H10S16713   6.065   4.741   7.465 -1.4049 -2.2354  1.3645
  151SAPE  C21116714   6.249   4.693   7.572  0.1848 -0.0164  0.2194
  151SAPE  H11R16715   6.349   4.732   7.551  0.7113 -0.6404  1.4641
  151SAPE  C21216716   6.214   4.680   7.698  1.2881  0.4879  0.1692
  151SAPE  H12R16717   6.292   4.705   7.772  1.2867 -1.4375  0.9077
  151SAPE  C21316718   6.074   4.635   7.735 -0.3598  0.4996  0.0795
  151SAPE  H13R16719   6.095   4.536   7.781 -1.0578  0.2142 -0.2030
  151SAPE  H13S16720   6.018   4.624   7.640  0.0863  2.5113 -0.4506
  151SAPE  C21416721   5.982   4.709   7.829  0.2264  0.0166  0.0781
  151SAPE  H14R16722   5.911   4.765   7.765 -0.5340 -1.1915 -0.1691
  151SAPE  C21516723   5.976   4.716   7.961  0.3620  0.1038  0.4964
  151SAPE  H15R16724   5.900   4.786   7.999 -2.9160 -2.2210 -1.3111
  151SAPE  C21616725   6.066   4.652   8.060  0.4505  0.0198 -0.3077
  151SAPE  H16R16726   6.154   4.606   8.009 -1.1562 -1.2610 -2.1210
  151SAPE  H16S16727   6.002   4.579   8.115 -0.0352  1.1246  0.6374
  151SAPE  C21716728   6.124   4.753   8.164 -0.2463  0.3888  0.2841
  151SAPE  H17R16729   6.153   4.691   8.251  0.7769  0.9514  0.3528
  151SAPE  H17S16730   6.049   4.829   8.195  0.5727  0.9277  0.9620
  151SAPE  C21816731   6.254   4.808   8.114  0.1282 -0.1939 -0.0664
  151SAPE  H18R16732   6.243   4.856   8.014  0.4800 -0.5487 -0.2756
  151SAPE  H18S16733   6.331   4.729   8.106  2.6606  2.0771  0.2943
  151SAPE  C21916734   6.325   4.898   8.220 -0.1424  0.2644 -0.6483
  151SAPE  H19R16735   6.429   4.926   8.190 -0.0246  0.9288  0.3475
  151SAPE  H19S16736   6.327   4.827   8.305  0.4153  1.3828  0.2944
  151SAPE  C22016737   6.254   5.028   8.273 -0.3068 -0.2212  0.3655
  151SAPE  H20R16738   6.236   5.092   8.183 -0.5076 -1.1062 -0.2334
  151SAPE  H20S16739   6.160   4.996   8.323 -0.7594  0.6060  0.0660
  151SAPE  H20T16740   6.313   5.078   8.353  1.0098  0.6679 -1.1036
  151SAPE   C3316741   5.728   5.332   6.655 -0.5157  1.2085  0.8430
  151SAPE   H3X16742   5.787   5.398   6.721 -0.9283  1.3092  1.1144
  151SAPE   H3Y16743   5.720   5.231   6.700  2.6841  0.7988  0.7233
  151SAPE   C3416744   5.594   5.399   6.660  0.1172  0.5572  0.3889
  151SAPE   H4X16745   5.532   5.354   6.580  1.9687 -2.0364  0.2917
  151SAPE   H4Y16746   5.609   5.507   6.637  2.0528 -0.1885 -2.3140
  151SAPE   C3516747   5.520   5.389   6.795  0.4446  0.1248  0.1405
  151SAPE   H5X16748   5.498   5.281   6.812  0.7513  0.0087 -0.1858
  151SAPE   H5Y16749   5.417   5.429   6.780 -0.7972 -3.4972 -2.4673
  151SAPE   C3616750   5.582   5.454   6.911 -0.2741 -0.2700  0.3385
  151SAPE   H6X16751   5.586   5.565   6.911  0.6213 -0.2908 -0.1112
  151SAPE   H6Y16752   5.687   5.421   6.924  1.3036  1.6947 -4.8728
  151SAPE   C3716753   5.502   5.436   7.042 -0.2838 -0.6769  0.4253
  151SAPE   H7X16754   5.500   5.328   7.068  2.8214 -1.1115 -0.7001
  151SAPE   H7Y16755   5.395   5.463   7.026 -0.7923 -0.9724  2.9821
  151SAPE   C3816756   5.560   5.522   7.161  0.2523  0.3578  0.1989
  151SAPE   H8X16757   5.543   5.629   7.134  0.3159  0.3709  0.2126
  151SAPE   H8Y16758   5.669   5.500   7.167  0.2028  0.4358  1.5911
  151SAPE   C3916759   5.496   5.486   7.299  0.1705 -0.5001 -0.5085
  151SAPE   H9X16760   5.503   5.375   7.305  0.0831 -0.4595  0.5779
  151SAPE   H9Y16761   5.393   5.526   7.281  1.1044  0.9789 -3.2265
  151SAPE  C31016762   5.565   5.557   7.417  0.4196  0.3390  0.1716
  151SAPE  H10X16763   5.556   5.668   7.407 -0.6006  0.2558  0.0992
  151SAPE  H10Y16764   5.674   5.534   7.417  0.8011  2.0136  0.3883
  151SAPE  C31116765   5.486   5.528   7.543 -0.3521 -0.0368 -0.2961
  151SAPE  H11X16766   5.505   5.419   7.554  1.0236 -0.2109 -3.3597
  151SAPE  H11Y16767   5.378   5.553   7.529 -0.0078  0.5626 -2.2985
  151SAPE  C31216768   5.541   5.612   7.666  1.0424  0.3109  0.1732
  151SAPE  H12X16769   5.460   5.599   7.741  0.0079 -0.5895 -1.0611
  151SAPE  H12Y16770   5.533   5.716   7.626 -4.6973 -0.2801 -1.0441
  151SAPE  C31316771   5.682   5.570   7.725  0.3019 -0.3373  0.5839
  151SAPE  H13X16772   5.767   5.588   7.656  0.8725  0.6081  1.5088
  151SAPE  H13Y16773   5.684   5.460   7.743 -3.0861 -0.8761 -1.3787
  151SAPE  C31416774   5.724   5.648   7.856  0.7038 -0.1551 -0.0318
  151SAPE  H14X16775   5.818   5.607   7.899  0.2534 -0.3365  0.7843
  151SAPE  H14Y16776   5.642   5.632   7.930  0.4946  0.7095 -0.0635
  151SAPE  C31516777   5.771   5.788   7.833 -0.0271 -0.1474 -0.1278
  151SAPE  H15X16778   5.701   5.850   7.772 -0.2826  0.0674  0.3834
  151SAPE  H15Y16779   5.860   5.775   7.768 -0.5317 -0.9886 -0.6771
  151SAPE  C31616780   5.812   5.858   7.962 -0.1971  0.3768  0.2863
  151SAPE  H16X16781   5.897   5.809   8.015  2.0621  1.9192 -1.7470
  151SAPE  H16Y16782   5.726   5.857   8.032 -1.1578  1.4702 -0.8454
  151SAPE  C31716783   5.857   6.001   7.932  0.5566  0.5494 -0.1826
  151SAPE  H17X16784   5.907   6.019   7.835  2.2367 -2.9177 -0.1053
  151SAPE  H17Y16785   5.926   6.040   8.010  2.9297 -3.2396 -0.1538
  151SAPE  C31816786   5.741   6.099   7.936  0.1447 -0.2005  0.3688
  151SAPE  H18X16787   5.688   6.102   8.033 -2.4849 -1.4572 -0.9091
  151SAPE  H18Y16788   5.656   6.069   7.870 -0.2273  1.1250  0.2326
  151SAPE  H18Z16789   5.772   6.202   7.909 -2.1470 -0.0540 -2.1335
  152SAPE     N16790   2.070   1.440   6.256  0.5108  0.2674 -0.5376
  152SAPE   HN116791   2.116   1.359   6.210  1.6963  0.4695  0.2462
  152SAPE   HN216792   2.074   1.419   6.357  0.1482 -1.4422 -0.8525
  152SAPE   HN316793   1.969   1.431   6.234 -0.1263 -0.3827  2.2994
  152SAPE   C1216794   2.137   1.564   6.209  0.1503  0.5502 -0.6237
  152SAPE  H12A16795   2.122   1.580   6.100  0.1934 -0.7650 -0.8483
  152SAPE  H12B16796   2.245   1.543   6.227 -0.3848 -0.0470  2.4626
  152SAPE   C1116797   2.079   1.681   6.295  0.6117  0.2436 -0.2443
  152SAPE  H11A16798   2.139   1.774   6.285  0.3819  0.7250  2.1837
  152SAPE  H11B16799   2.083   1.664   6.405 -1.4632  1.7391  0.1142
  152SAPE     P16800   1.874   1.849   6.269  0.1060 -0.0489  0.0124
  152SAPE   O1316801   1.904   1.924   6.147 -0.2326  0.2626  0.0977
  152SAPE   O1416802   1.729   1.818   6.289 -0.4071  0.7877  0.1287
  152SAPE   O1216803   1.943   1.705   6.262 -0.1480 -0.1565 -0.3887
  152SAPE   O1116804   1.940   1.915   6.396  0.3388  0.1260  0.1628
  152SAPE    C116805   1.910   1.864   6.527 -0.1394  0.1833 -0.0576
  152SAPE    HA16806   1.807   1.898   6.552 -0.6038 -1.9618  1.1289
  152SAPE    HB16807   1.920   1.754   6.525  1.5509  0.2805 -3.2937
  152SAPE    C216808   2.012   1.911   6.630 -0.2059  0.2569  0.0440
  152SAPE    HS16809   2.107   1.866   6.593 -0.2491 -1.4040  1.8190
  152SAPE   O2116810   1.971   1.863   6.756 -0.2950  0.3681  0.1869
  152SAPE   C2116811   2.051   1.819   6.844  0.0940 -0.0393  0.2480
  152SAPE   O2216812   2.171   1.807   6.838  0.1457 -0.2419 -0.6761
  152SAPE   C2216813   1.970   1.794   6.977  0.0310 -0.6375 -0.3854
  152SAPE   H2R16814   1.899   1.877   6.999  1.2366  0.1723  0.5914
  152SAPE   H2S16815   1.917   1.701   6.948  1.0638 -1.1867 -0.5237
  152SAPE    C316816   2.031   2.063   6.637  0.3056 -0.6898 -0.9963
  152SAPE    HX16817   1.933   2.115   6.650  1.5013  1.0318  1.8705
  152SAPE    HY16818   2.078   2.102   6.544 -0.0283  0.3787 -0.7372
  152SAPE   O3116819   2.120   2.091   6.748 -0.0325  0.2060  0.3520
  152SAPE   C3116820   2.074   2.191   6.833  0.6115  0.2295 -0.6085
  152SAPE   O3216821   1.967   2.248   6.833 -0.1006 -0.5391 -0.7612
  152SAPE   C3216822   2.180   2.220   6.933 -0.5065 -0.0311 -0.0343
  152SAPE   H2X16823   2.268   2.276   6.896 -0.7107 -0.0255 -0.5202
  152SAPE   H2Y16824   2.220   2.126   6.977  0.8640  0.4789 -0.1674
  152SAPE   C2316825   2.059   1.775   7.101 -0.1921 -0.1228  0.5397
  152SAPE   H3R16826   2.115   1.869   7.118  1.1191 -0.5694 -1.0921
  152SAPE   H3S16827   2.130   1.696   7.069  0.4173  0.0237  1.5195
  152SAPE   C2416828   1.992   1.712   7.223 -0.1290 -0.5323  0.1156
  152SAPE   H4R16829   2.073   1.667   7.284  1.7199  1.4263 -0.7562
  152SAPE   H4S16830   1.925   1.630   7.188  1.2781 -2.1131  0.9858
  152SAPE   C2516831   1.911   1.811   7.304 -0.4211  0.0131 -0.3412
  152SAPE   H5R16832   1.813   1.840   7.263 -0.2703  1.0420 -0.0155
  152SAPE   C2616833   1.943   1.870   7.426 -0.2568  0.8435 -0.0597
  152SAPE   H6R16834   1.870   1.937   7.474 -0.2876  0.6977  0.0986
  152SAPE   C2716835   2.068   1.844   7.510 -0.3127 -0.4997  0.5881
  152SAPE   H7R16836   2.077   1.930   7.579 -3.1576 -0.2059  0.7154
  152SAPE   H7S16837   2.153   1.860   7.440 -1.8768 -0.4231 -1.4134
  152SAPE   C2816838   2.061   1.716   7.581  0.2703  0.5645  0.1499
  152SAPE   H8R16839   2.062   1.626   7.516 -1.8601 -0.9431  2.0489
  152SAPE   C2916840   2.062   1.699   7.711 -0.1567 -0.7334 -0.3022
  152SAPE   H9R16841   2.089   1.602   7.755  3.4558 -0.1821 -1.0329
  152SAPE  C21016842   2.066   1.802   7.817  0.3622 -0.9251 -1.4136
  152SAPE  H10R16843   2.158   1.864   7.815 -0.6331  0.8748  1.6406
  152SAPE  H10S16844   2.075   1.737   7.906  1.9725 -0.1693 -0.9960
  152SAPE  C21116845   1.943   1.890   7.833  0.2066  0.1223  0.2003
  152SAPE  H11R16846   1.893   1.906   7.736  3.0342 -0.2102 -1.4534
  152SAPE  C21216847   1.883   1.933   7.948 -0.3426  0.0868 -0.3520
  152SAPE  H12R16848   1.814   2.018   7.936 -1.2478 -0.8903 -3.0379
  152SAPE  C21316849   1.934   1.896   8.085  0.2712 -0.2669  0.7092
  152SAPE  H13R16850   1.991   1.985   8.119  2.4216 -0.5563 -1.8270
  152SAPE  H13S16851   2.001   1.807   8.085  0.2278 -0.3391 -0.8459
  152SAPE  C21416852   1.821   1.875   8.187  0.1776  0.1463  0.7035
  152SAPE  H14R16853   1.726   1.916   8.151 -0.0832 -0.6360  0.4832
  152SAPE  C21516854   1.829   1.819   8.312 -0.3745 -0.0416  0.0920
  152SAPE  H15R16855   1.741   1.798   8.375 -0.6265  0.3862 -0.1186
  152SAPE  C21616856   1.947   1.760   8.383 -0.5183 -0.3859 -0.3707
  152SAPE  H16R16857   2.036   1.741   8.319  0.8755  1.4651  0.9092
  152SAPE  H16S16858   1.919   1.655   8.406 -1.0451 -0.5928 -1.8333
  152SAPE  C21716859   1.988   1.830   8.512 -0.9618  0.7227 -0.1986
  152SAPE  H17R16860   1.906   1.819   8.587  0.2444  0.5056  1.1514
  152SAPE  H17S16861   2.013   1.936   8.491  1.0774  0.2658 -0.2443
  152SAPE  C21816862   2.108   1.773   8.578  0.5244  0.2066 -0.4291
  152SAPE  H18R16863   2.191   1.768   8.504 -0.5638  2.1707 -1.8645
  152SAPE  H18S16864   2.088   1.669   8.613  2.1687  0.2019  0.5952
  152SAPE  C21916865   2.160   1.858   8.696 -0.4320 -0.0047  0.3347
  152SAPE  H19R16866   2.233   1.804   8.760  1.8963  2.3658 -0.1612
  152SAPE  H19S16867   2.073   1.888   8.758 -1.5524  0.7652 -1.5395
  152SAPE  C22016868   2.236   1.990   8.664  0.0397  0.4168  1.0499
  152SAPE  H20R16869   2.316   1.984   8.587 -0.5407  2.5481  0.2141
  152SAPE  H20S16870   2.281   2.046   8.749 -0.1086 -1.2165  2.2497
  152SAPE  H20T16871   2.162   2.057   8.616 -0.4516  0.3399  1.6865
  152SAPE   C3316872   2.126   2.305   7.055 -0.4758  0.1845 -1.1344
  152SAPE   H3X16873   2.038   2.242   7.082 -0.2535 -0.5710 -2.1142
  152SAPE   H3Y16874   2.086   2.406   7.031 -2.6943 -0.2866  0.2316
  152SAPE   C3416875   2.211   2.302   7.182  0.1505 -0.0157  0.2838
  152SAPE   H4X16876   2.281   2.388   7.183 -0.4334  0.4773  1.1759
  152SAPE   H4Y16877   2.276   2.214   7.197 -1.2015 -0.9966  0.6526
  152SAPE   C3516878   2.125   2.304   7.312  0.6245 -0.1258  0.0862
  152SAPE   H5X16879   2.085   2.201   7.325  1.5768 -0.3604  1.3057
  152SAPE   H5Y16880   2.033   2.366   7.304 -0.1401 -1.4352 -2.5037
  152SAPE   C3616881   2.199   2.332   7.443  0.7163  0.1864 -0.2709
  152SAPE   H6X16882   2.253   2.429   7.443 -0.8880  1.1202  1.3414
  152SAPE   H6Y16883   2.277   2.253   7.451  0.4529 -0.1642 -1.0318
  152SAPE   C3716884   2.103   2.333   7.563 -0.3654 -0.6449  0.0911
  152SAPE   H7X16885   2.065   2.229   7.572  0.9063 -1.1144  0.2316
  152SAPE   H7Y16886   2.020   2.403   7.542  0.9064  0.8093 -0.3315
  152SAPE   C3816887   2.169   2.359   7.692  0.2043 -0.0814  0.2163
  152SAPE   H8X16888   2.189   2.466   7.711  0.4438 -0.0927  0.0291
  152SAPE   H8Y16889   2.264   2.302   7.680 -0.4013 -0.9884 -0.3914
  152SAPE   C3916890   2.096   2.315   7.820 -0.3390  0.0012 -0.0365
  152SAPE   H9X16891   2.114   2.205   7.822 -0.6486 -0.0630 -0.5911
  152SAPE   H9Y16892   1.988   2.338   7.805 -0.6830 -1.3214  0.2811
  152SAPE  C31016893   2.159   2.373   7.948  0.8176 -0.3112  0.7137
  152SAPE  H10X16894   2.131   2.480   7.956 -1.5762 -0.5753 -2.3076
  152SAPE  H10Y16895   2.270   2.381   7.939  0.8824  4.4633  2.7563
  152SAPE  C31116896   2.107   2.295   8.069 -0.6307 -0.3710  0.0996
  152SAPE  H11X16897   2.159   2.349   8.151  1.8301 -1.1264 -0.8754
  152SAPE  H11Y16898   2.139   2.190   8.053 -3.7280 -1.2564 -1.0451
  152SAPE  C31216899   1.957   2.309   8.095  0.5504 -0.3018  0.1001
  152SAPE  H12X16900   1.908   2.238   8.025 -0.8831  0.9096 -0.1702
  152SAPE  H12Y16901   1.930   2.413   8.066  0.4833  0.4580  2.6436
  152SAPE  C31316902   1.909   2.279   8.234 -0.7213  0.0666 -0.9934
  152SAPE  H13X16903   1.936   2.172   8.247 -1.2339 -0.0086 -0.4959
  152SAPE  H13Y16904   1.798   2.276   8.234 -0.8210 -0.6189  2.7100
  152SAPE  C31416905   1.958   2.375   8.341  0.2663 -0.3849  0.2019
  152SAPE  H14X16906   1.948   2.473   8.291  0.8667 -0.1759  0.4763
  152SAPE  H14Y16907   2.066   2.352   8.354  0.8831  1.0675 -1.9046
  152SAPE  C31516908   1.887   2.374   8.478  1.3829  0.2450 -0.5525
  152SAPE  H15X16909   1.783   2.412   8.475  0.4136 -2.2417 -1.6397
  152SAPE  H15Y16910   1.948   2.437   8.546 -0.6465  1.4521  0.2211
  152SAPE  C31616911   1.887   2.226   8.528 -0.1149  0.4113 -0.7092
  152SAPE  H16X16912   1.985   2.181   8.502 -1.0530 -2.5945  0.5963
  152SAPE  H16Y16913   1.823   2.153   8.475  1.6262 -1.6197 -0.1391
  152SAPE  C31716914   1.864   2.230   8.681 -0.6337  0.4175  0.2849
  152SAPE  H17X16915   1.864   2.124   8.714  1.2654  0.9487  2.1903
  152SAPE  H17Y16916   1.766   2.270   8.713  0.5552  1.7186  2.5604
  152SAPE  C31816917   1.968   2.294   8.781  0.0530  0.6789  0.4619
  152SAPE  H18X16918   1.938   2.290   8.888 -0.0380  0.7024  0.4384
  152SAPE  H18Y16919   1.986   2.402   8.760  0.1225  0.8338  1.3081
  152SAPE  H18Z16920   2.063   2.236   8.781 -0.4194 -0.1152 -0.4915
  153SAPE     N16921   6.040   1.996   6.177 -0.2845  0.2295 -0.3136
  153SAPE   HN116922   6.122   2.028   6.121 -1.1667  0.7607 -1.3273
  153SAPE   HN216923   5.974   1.933   6.129  1.5424 -0.3022 -2.2852
  153SAPE   HN316924   5.983   2.083   6.188 -1.8385 -0.7102 -0.6835
  153SAPE   C1216925   6.096   1.930   6.302 -0.5112  0.0037 -0.4357
  153SAPE  H12A16926   6.143   1.833   6.275 -0.4593  0.2566 -1.2603
  153SAPE  H12B16927   6.004   1.923   6.364 -0.3800 -0.6435 -0.3072
  153SAPE   C1116928   6.223   2.002   6.356 -0.4048  0.3738 -0.2232
  153SAPE  H11A16929   6.308   1.992   6.286 -1.5014 -3.1185 -1.2709
  153SAPE  H11B16930   6.254   1.942   6.444 -4.0393 -1.7196 -0.1408
  153SAPE     P16931   6.256   2.271   6.348 -0.4344  0.1260  0.1528
  153SAPE   O1316932   6.402   2.272   6.354  0.4802  0.0009  0.0430
  153SAPE   O1416933   6.205   2.304   6.216  0.0452  0.2877  0.6493
  153SAPE   O1216934   6.189   2.135   6.400 -0.7758  0.2315 -0.1711
  153SAPE   O1116935   6.211   2.375   6.452 -0.0578  0.3831 -0.0321
  153SAPE    C116936   6.227   2.345   6.591  0.4504  0.4311  1.4750
  153SAPE    HA16937   6.128   2.312   6.631  0.4012 -0.3633  0.7251
  153SAPE    HB16938   6.299   2.265   6.616 -0.8566 -0.9421  1.0129
  153SAPE    C216939   6.267   2.464   6.673 -0.0081  0.2610 -0.0289
  153SAPE    HS16940   6.337   2.519   6.606 -0.4864  0.9875  0.0629
  153SAPE   O2116941   6.339   2.424   6.789 -0.1310 -0.0287  0.5500
  153SAPE   C2116942   6.404   2.533   6.838  0.2665  0.5856  0.1029
  153SAPE   O2216943   6.405   2.643   6.783 -0.3746  0.1012  0.6331
  153SAPE   C2216944   6.485   2.499   6.968 -0.1051  0.4059 -0.0162
  153SAPE   H2R16945   6.419   2.455   7.046 -0.4515  0.1192 -0.4709
  153SAPE   H2S16946   6.546   2.412   6.936  0.5289  0.0707  1.9343
  153SAPE    C316947   6.147   2.565   6.694  0.0052 -0.0410  0.2669
  153SAPE    HX16948   6.094   2.572   6.597 -0.8792  1.4037  0.8413
  153SAPE    HY16949   6.177   2.668   6.719 -1.4361  0.1045  1.5477
  153SAPE   O3116950   6.050   2.508   6.784  0.1503  0.3235  0.2816
  153SAPE   C3116951   6.057   2.546   6.905  0.9411 -1.3146  0.2266
  153SAPE   O3216952   6.130   2.634   6.949  0.2336 -0.0466 -0.2147
  153SAPE   C3216953   5.945   2.492   6.993 -0.1825 -0.3166  0.3521
  153SAPE   H2X16954   5.947   2.382   6.985 -2.8944 -0.5643  1.9298
  153SAPE   H2Y16955   5.857   2.524   6.933 -2.1877 -2.7329  1.8357
  153SAPE   C2316956   6.560   2.623   7.029 -0.1015 -0.4814  0.9012
  153SAPE   H3R16957   6.610   2.673   6.943 -2.2259 -0.7804 -0.6110
  153SAPE   H3S16958   6.630   2.592   7.109 -0.5613  1.5375  2.1831
  153SAPE   C2416959   6.467   2.727   7.107  0.2857  0.2784  0.0817
  153SAPE   H4R16960   6.387   2.773   7.044 -1.9048 -0.0789  2.4241
  153SAPE   H4S16961   6.523   2.812   7.151  1.0960  0.2717 -0.9121
  153SAPE   C2516962   6.401   2.650   7.220  0.5082 -1.5414 -0.2222
  153SAPE   H5R16963   6.314   2.587   7.197 -1.3399  0.9017 -0.2618
  153SAPE   C2616964   6.427   2.678   7.350 -0.6918 -0.3294  0.0808
  153SAPE   H6R16965   6.371   2.618   7.423 -1.2801  0.1385  0.0188
  153SAPE   C2716966   6.513   2.779   7.421  0.2802  0.1950  0.1825
  153SAPE   H7R16967   6.448   2.868   7.439  2.7384  2.0192  0.6272
  153SAPE   H7S16968   6.599   2.821   7.365 -0.2986  3.2505  1.3648
  153SAPE   C2816969   6.572   2.727   7.548 -0.2940 -0.2041 -0.4410
  153SAPE   H8R16970   6.613   2.626   7.542 -2.2185 -1.0513 -0.1172
  153SAPE   C2916971   6.579   2.793   7.665  0.0601  0.2175  0.1115
  153SAPE   H9R16972   6.625   2.748   7.755 -2.9576  0.2818  1.7999
  153SAPE  C21016973   6.524   2.930   7.689  0.1390 -0.4281  0.4112
  153SAPE  H10R16974   6.474   2.932   7.788  0.0170  1.3283  0.3483
  153SAPE  H10S16975   6.450   2.959   7.611  0.7822 -0.5333 -0.2605
  153SAPE  C21116976   6.629   3.037   7.683 -0.3840  0.2023  0.0202
  153SAPE  H11R16977   6.628   3.096   7.590  1.1819 -0.9372 -0.7602
  153SAPE  C21216978   6.721   3.075   7.778 -0.4504 -0.0728  0.0183
  153SAPE  H12R16979   6.795   3.151   7.750 -2.1450  1.3783 -0.7045
  153SAPE  C21316980   6.737   3.010   7.910 -0.0866 -0.3967 -0.1657
  153SAPE  H13R16981   6.661   2.930   7.923 -0.9332  0.2591 -0.9577
  153SAPE  H13S16982   6.733   3.081   7.995 -0.9692 -1.2110  0.4910
  153SAPE  C21416983   6.866   2.942   7.930 -0.3939 -1.1702  1.0279
  153SAPE  H14R16984   6.935   2.926   7.846 -1.3686  0.0741 -0.0530
  153SAPE  C21516985   6.915   2.904   8.050  0.6371 -0.3450 -0.6558
  153SAPE  H15R16986   7.017   2.865   8.059  0.6469  0.1146  2.5182
  153SAPE  C21616987   6.847   2.929   8.186 -0.1658  0.0572  0.7097
  153SAPE  H16R16988   6.736   2.934   8.188 -0.2436 -0.9550 -0.1194
  153SAPE  H16S16989   6.877   3.031   8.218 -3.3723  0.8482  1.5414
  153SAPE  C21716990   6.867   2.822   8.295  0.0452 -0.4556 -0.9593
  153SAPE  H17R16991   6.977   2.813   8.308  0.0568 -0.0498 -0.7435
  153SAPE  H17S16992   6.824   2.729   8.253  0.1333 -0.5500 -0.8381
  153SAPE  C21816993   6.797   2.852   8.433  0.8384 -0.1643  0.6577
  153SAPE  H18R16994   6.689   2.868   8.413  0.4745 -2.3901  0.5274
  153SAPE  H18S16995   6.833   2.947   8.478  0.7448  0.0155  0.3479
  153SAPE  C21916996   6.809   2.735   8.532  1.1315 -0.3566 -0.6196
  153SAPE  H19R16997   6.823   2.642   8.474 -3.8778 -0.9769 -1.2299
  153SAPE  H19S16998   6.710   2.728   8.581  0.3391 -0.2576 -2.1672
  153SAPE  C22016999   6.911   2.767   8.639 -0.1342 -1.1559  0.2406
  153SAPE  H20R17000   6.942   2.680   8.702 -0.7968 -1.3396  0.3191
  153SAPE  H20S17001   6.873   2.837   8.716  2.4899  1.2663 -0.4735
  153SAPE  H20T17002   6.992   2.816   8.581 -0.6075 -1.9290 -1.1044
  153SAPE   C3317003   5.951   2.546   7.135 -0.1594  0.0923  0.0306
  153SAPE   H3X17004   5.937   2.656   7.139  1.1995  0.3995 -2.0433
  153SAPE   H3Y17005   6.054   2.530   7.173 -0.5239  0.1863  1.0871
  153SAPE   C3417006   5.844   2.474   7.229  0.0304 -0.0813 -0.4887
  153SAPE   H4X17007   5.882   2.370   7.239  0.5955 -0.0209 -1.7832
  153SAPE   H4Y17008   5.747   2.479   7.175  0.2030 -1.3202 -0.9432
  153SAPE   C3517009   5.826   2.536   7.366 -0.2032 -0.0353 -0.2974
  153SAPE   H5X17010   5.793   2.640   7.351  0.5769  0.5572  1.7187
  153SAPE   H5Y17011   5.920   2.541   7.425  0.4488  1.4475 -1.4202
  153SAPE   C3617012   5.737   2.451   7.458 -0.1799  0.0800 -0.2440
  153SAPE   H6X17013   5.783   2.351   7.465 -0.3668  0.1047  2.3967
  153SAPE   H6Y17014   5.640   2.434   7.407 -0.2151 -0.4328 -0.0074
  153SAPE   C3717015   5.725   2.521   7.591 -0.7108 -0.4152  0.0740
  153SAPE   H7X17016   5.668   2.615   7.579 -0.0864 -0.0127  0.1663
  153SAPE   H7Y17017   5.825   2.544   7.635 -0.7142  1.2634 -0.7041
  153SAPE   C3817018   5.651   2.440   7.702  0.0239 -0.4871  0.3757
  153SAPE   H8X17019   5.545   2.418   7.678 -1.3184  3.4594  1.9735
  153SAPE   H8Y17020   5.657   2.519   7.779 -0.6239 -2.1139  2.1671
  153SAPE   C3917021   5.717   2.311   7.761 -0.3732 -0.2647 -0.0560
  153SAPE   H9X17022   5.823   2.342   7.771 -0.1825 -1.0830  0.5870
  153SAPE   H9Y17023   5.703   2.226   7.690  2.7908  0.7972 -2.1269
  153SAPE  C31017024   5.660   2.283   7.904 -0.1180  0.5299 -0.6716
  153SAPE  H10X17025   5.602   2.192   7.876  1.5063 -1.1385  1.0696
  153SAPE  H10Y17026   5.607   2.373   7.940  0.4086 -0.1212  1.9285
  153SAPE  C31117027   5.760   2.246   8.011  0.4761  0.2357 -0.4361
  153SAPE  H11X17028   5.846   2.317   8.017  0.6324  0.1547 -1.5980
  153SAPE  H11Y17029   5.812   2.153   7.981  0.4802 -0.3148  1.1715
  153SAPE  C31217030   5.702   2.207   8.153 -0.9196  0.1780 -0.3002
  153SAPE  H12X17031   5.628   2.124   8.154 -0.1031 -0.5527  0.2677
  153SAPE  H12Y17032   5.652   2.305   8.169  1.9074  2.0362 -2.0203
  153SAPE  C31317033   5.817   2.179   8.257 -0.6631 -0.3077 -0.0645
  153SAPE  H13X17034   5.900   2.250   8.240 -1.4628  0.3955 -1.1084
  153SAPE  H13Y17035   5.853   2.077   8.231 -0.5647  0.3501 -2.8478
  153SAPE  C31417036   5.768   2.186   8.403 -0.3693 -0.1289  0.1696
  153SAPE  H14X17037   5.692   2.111   8.433  0.0473 -0.5620  0.1561
  153SAPE  H14Y17038   5.733   2.291   8.417  0.0376  0.7641 -3.9739
  153SAPE  C31517039   5.891   2.163   8.504  1.2282  1.0928  0.3869
  153SAPE  H15X17040   5.933   2.061   8.490  1.4969  1.1616  0.6863
  153SAPE  H15Y17041   5.830   2.170   8.596 -0.0112  2.7119 -0.5063
  153SAPE  C31617042   6.014   2.261   8.502 -0.2129 -0.1182 -0.3303
  153SAPE  H16X17043   6.056   2.268   8.399  0.6858  2.4096  0.1230
  153SAPE  H16Y17044   6.085   2.213   8.573 -0.0373  1.4979  0.6388
  153SAPE  C31717045   5.969   2.396   8.558 -1.0616 -0.2316  0.2723
  153SAPE  H17X17046   5.911   2.386   8.652 -0.1153  1.2866  1.0489
  153SAPE  H17Y17047   5.901   2.443   8.484  1.0368  1.3047 -0.7625
  153SAPE  C31817048   6.093   2.471   8.600  0.4289  0.2622 -0.0080
  153SAPE  H18X17049   6.176   2.421   8.655  0.8463  0.2997 -0.5923
  153SAPE  H18Y17050   6.063   2.548   8.675  0.8390 -0.4264  0.8809
  153SAPE  H18Z17051   6.152   2.513   8.516  3.3958 -0.4473  1.5788
  154SAPE     N17052   3.635   1.469   6.196  0.1914  0.5204 -0.0654
  154SAPE   HN117053   3.634   1.571   6.215 -0.8499  0.4532  0.3124
  154SAPE   HN217054   3.577   1.435   6.276 -0.0894 -0.3733 -0.6390
  154SAPE   HN317055   3.735   1.438   6.203  0.4980  1.2312 -1.1538
  154SAPE   C1217056   3.570   1.446   6.060  1.0080  0.3302 -0.3560
  154SAPE  H12A17057   3.539   1.340   6.054 -0.0660  0.4389  2.0431
  154SAPE  H12B17058   3.642   1.480   5.983 -2.6765  0.9015 -3.8614
  154SAPE   C1117059   3.441   1.529   6.052  0.0312 -0.1184 -0.1054
  154SAPE  H11A17060   3.383   1.487   6.137  0.5382  0.3578  0.4828
  154SAPE  H11B17061   3.383   1.504   5.960 -1.1834  0.6795  0.4172
  154SAPE     P17062   3.351   1.763   6.108 -0.4202 -0.2413 -0.4924
  154SAPE   O1317063   3.408   1.901   6.096  0.7394 -0.1543  0.6488
  154SAPE   O1417064   3.236   1.732   6.029  0.2904 -0.2616 -0.1600
  154SAPE   O1217065   3.470   1.667   6.072 -0.0573  0.2540  0.4344
  154SAPE   O1117066   3.329   1.729   6.263 -0.3556  0.6359 -0.1927
  154SAPE    C117067   3.442   1.735   6.347  0.5912 -0.4539 -0.2610
  154SAPE    HA17068   3.485   1.636   6.373  1.4285  0.3603  1.6464
  154SAPE    HB17069   3.528   1.780   6.294  0.5012  0.2312  0.1715
  154SAPE    C217070   3.410   1.816   6.477 -0.1629 -0.1331  0.0337
  154SAPE    HS17071   3.364   1.907   6.434  0.1861 -0.0243 -0.1160
  154SAPE   O2117072   3.546   1.842   6.531 -0.2093  0.3525  0.3081
  154SAPE   C2117073   3.557   1.954   6.594 -0.1422  0.0504  0.1497
  154SAPE   O2217074   3.464   2.034   6.608 -0.5025 -0.2234 -0.0671
  154SAPE   C2217075   3.696   1.979   6.648 -0.1752 -0.1127  0.0822
  154SAPE   H2R17076   3.766   1.988   6.562 -1.4814 -0.7532 -1.1009
  154SAPE   H2S17077   3.705   2.079   6.696  2.0975  0.4734 -1.3813
  154SAPE    C317078   3.312   1.733   6.559 -0.5392  0.0498 -0.7505
  154SAPE    HX17079   3.322   1.624   6.540  0.9369  0.3967 -2.2734
  154SAPE    HY17080   3.211   1.759   6.522 -0.9113 -1.0302 -0.5193
  154SAPE   O3117081   3.324   1.762   6.703  0.5728 -0.0912  0.7186
  154SAPE   C3117082   3.218   1.798   6.773  0.0940  0.0233  0.3101
  154SAPE   O3217083   3.100   1.795   6.736 -0.1461  0.2749 -0.5912
  154SAPE   C3217084   3.265   1.851   6.899 -0.3127 -0.1276  0.1948
  154SAPE   H2X17085   3.314   1.950   6.889  0.4228 -0.4252  0.6908
  154SAPE   H2Y17086   3.338   1.779   6.943  0.0749  0.9815  1.4313
  154SAPE   C2317087   3.749   1.882   6.760  0.3061  0.4809 -0.6322
  154SAPE   H3R17088   3.856   1.902   6.781  0.8816 -0.7029 -2.1876
  154SAPE   H3S17089   3.756   1.784   6.709  1.0272  1.4517 -2.4967
  154SAPE   C2417090   3.655   1.878   6.885  0.0460 -0.3418 -0.1535
  154SAPE   H4R17091   3.704   1.813   6.961  1.6354  1.8261  0.7992
  154SAPE   H4S17092   3.568   1.819   6.849  0.1268 -0.9779  0.6616
  154SAPE   C2517093   3.613   2.002   6.956 -0.4528  0.1192 -0.2957
  154SAPE   H5R17094   3.603   2.097   6.901 -0.0125 -0.4095 -1.3124
  154SAPE   C2617095   3.584   2.015   7.086  0.8442  0.4325  0.6554
  154SAPE   H6R17096   3.548   2.112   7.124  0.8002  1.4008 -1.6999
  154SAPE   C2717097   3.575   1.905   7.187  0.2636 -0.1052 -0.2832
  154SAPE   H7R17098   3.537   1.814   7.136  2.9690 -0.4771 -1.8081
  154SAPE   H7S17099   3.491   1.932   7.254 -2.6145 -1.3450 -3.1048
  154SAPE   C2817100   3.699   1.877   7.263 -0.4669  0.1892  0.0759
  154SAPE   H8R17101   3.789   1.887   7.201  0.4492  0.3279  1.3968
  154SAPE   C2917102   3.714   1.848   7.391  0.1895 -0.1146 -0.1168
  154SAPE   H9R17103   3.814   1.838   7.435  0.0930  0.3146  0.2145
  154SAPE  C21017104   3.592   1.829   7.485  0.4593 -0.6191  0.0016
  154SAPE  H10R17105   3.514   1.787   7.419 -1.2605  1.1376  0.8190
  154SAPE  H10S17106   3.552   1.924   7.526 -0.0182 -1.1294  0.7622
  154SAPE  C21117107   3.628   1.726   7.585  0.3179  0.1234 -0.0183
  154SAPE  H11R17108   3.624   1.625   7.541 -1.7138  1.4609 -3.2439
  154SAPE  C21217109   3.671   1.750   7.707  0.0850  0.4282 -0.5983
  154SAPE  H12R17110   3.699   1.665   7.770  1.5236  0.2619 -1.4027
  154SAPE  C21317111   3.685   1.890   7.768 -0.0424  0.6186 -0.4954
  154SAPE  H13R17112   3.591   1.914   7.823  0.1820 -2.2014  1.3259
  154SAPE  H13S17113   3.682   1.972   7.693  0.1714  1.2953  0.2184
  154SAPE  C21417114   3.804   1.889   7.857  0.1369  0.0312  0.5335
  154SAPE  H14R17115   3.893   1.849   7.806 -0.1863 -2.0955  1.4902
  154SAPE  C21517116   3.803   1.926   7.987 -0.4982  0.7556 -0.0850
  154SAPE  H15R17117   3.896   1.918   8.045 -0.1077 -1.2657 -0.9080
  154SAPE  C21617118   3.696   1.985   8.080  0.0175  0.5223 -0.0218
  154SAPE  H16R17119   3.611   1.975   8.008  0.2458 -2.1216 -0.0386
  154SAPE  H16S17120   3.708   2.092   8.107  0.8674  0.7387 -1.1865
  154SAPE  C21717121   3.664   1.892   8.198 -0.1756 -0.6616 -0.2342
  154SAPE  H17R17122   3.757   1.859   8.249 -1.0392  1.2520  2.7791
  154SAPE  H17S17123   3.598   1.812   8.158  0.0686  0.5394 -3.2848
  154SAPE  C21817124   3.589   1.974   8.304 -0.3211  0.1025 -0.0175
  154SAPE  H18R17125   3.498   2.014   8.256 -0.9030  0.2385  1.1604
  154SAPE  H18S17126   3.643   2.064   8.339 -2.0385  0.9005  0.6733
  154SAPE  C21917127   3.541   1.900   8.423  0.5421  0.1277 -0.2688
  154SAPE  H19R17128   3.493   1.806   8.387 -0.1709 -1.1669  3.6000
  154SAPE  H19S17129   3.454   1.951   8.469 -0.9839 -1.3121 -1.4154
  154SAPE  C22017130   3.650   1.872   8.520 -0.4320 -0.2519 -0.1258
  154SAPE  H20R17131   3.697   1.970   8.544 -0.4687 -0.3874  0.4938
  154SAPE  H20S17132   3.725   1.798   8.483  0.3145 -0.4981  1.7535
  154SAPE  H20T17133   3.589   1.832   8.603 -4.1924  0.8350 -2.1372
  154SAPE   C3317134   3.152   1.881   6.992  0.3833 -0.7262  0.0117
  154SAPE   H3X17135   3.088   1.794   7.018  1.1529 -0.7334  2.0886
  154SAPE   H3Y17136   3.081   1.953   6.948 -1.5640 -1.5226  1.6781
  154SAPE   C3417137   3.197   1.948   7.123 -0.1632  0.3005  0.7476
  154SAPE   H4X17138   3.253   2.043   7.107  2.0516 -1.3461 -2.3665
  154SAPE   H4Y17139   3.270   1.882   7.173 -0.2432 -1.4732 -1.3239
  154SAPE   C3517140   3.072   1.976   7.211 -0.2958 -0.5163 -0.5710
  154SAPE   H5X17141   3.022   1.877   7.221  0.2938 -0.7746 -0.0781
  154SAPE   H5Y17142   3.003   2.038   7.151 -1.1281  0.5395  1.3972
  154SAPE   C3617143   3.107   2.038   7.348  0.0251  0.3144 -1.0656
  154SAPE   H6X17144   3.142   2.142   7.329 -1.5418  1.5761  2.1130
  154SAPE   H6Y17145   3.184   1.981   7.405 -0.0927  0.9872 -0.2214
  154SAPE   C3717146   2.981   2.061   7.431 -0.2594  0.1891 -0.0436
  154SAPE   H7X17147   2.932   1.962   7.435  0.2627 -0.3837 -4.0511
  154SAPE   H7Y17148   2.902   2.125   7.387 -1.7078 -1.0056  0.7634
  154SAPE   C3817149   3.022   2.104   7.573 -0.0791  0.0329 -0.0369
  154SAPE   H8X17150   2.929   2.145   7.617  0.9420 -0.4479  2.8298
  154SAPE   H8Y17151   3.098   2.186   7.567  1.6027 -1.5719 -2.1763
  154SAPE   C3917152   3.088   1.996   7.656 -0.8525  0.0808  0.3508
  154SAPE   H9X17153   3.188   1.990   7.609 -0.5908 -0.9044  1.0046
  154SAPE   H9Y17154   3.042   1.896   7.649 -0.5990 -0.0303  0.2868
  154SAPE  C31017155   3.122   2.033   7.802  0.4970 -0.1926 -0.3204
  154SAPE  H10X17156   3.179   2.128   7.807  0.9026 -0.4836  1.1239
  154SAPE  H10Y17157   3.189   1.952   7.839  1.6781  0.6500 -0.5898
  154SAPE  C31117158   2.996   2.034   7.885  0.1224  0.2661  0.5024
  154SAPE  H11X17159   2.938   1.940   7.877 -1.2782  1.0976  0.5358
  154SAPE  H11Y17160   2.923   2.109   7.849  0.9610  1.4222  1.1507
  154SAPE  C31217161   3.020   2.045   8.039  0.1305 -0.5406 -0.5535
  154SAPE  H12X17162   3.073   2.140   8.060 -1.6851  0.5214 -0.5479
  154SAPE  H12Y17163   3.084   1.962   8.076  1.8669  0.8000 -0.4263
  154SAPE  C31317164   2.886   2.036   8.110 -0.2570  0.2712  0.3816
  154SAPE  H13X17165   2.822   1.957   8.064 -0.5279  1.2177 -0.9424
  154SAPE  H13Y17166   2.837   2.133   8.088  1.9255  1.9282  2.3323
  154SAPE  C31417167   2.894   2.032   8.265 -0.3194 -0.0301 -0.2197
  154SAPE  H14X17168   2.945   1.936   8.289  0.8161  0.0259 -2.1909
  154SAPE  H14Y17169   2.790   2.037   8.303 -1.4394 -0.1541 -3.0412
  154SAPE  C31517170   2.988   2.146   8.324  0.1094 -0.6812 -0.2747
  154SAPE  H15X17171   2.954   2.243   8.283 -1.1765 -0.0170  2.1540
  154SAPE  H15Y17172   3.093   2.125   8.295  0.8173  1.5577  0.4440
  154SAPE  C31617173   2.991   2.163   8.480  0.3864  1.2676  0.0693
  154SAPE  H16X17174   2.996   2.058   8.515  1.6356  1.4929  0.6207
  154SAPE  H16Y17175   2.896   2.206   8.517 -1.6418 -2.4096 -0.4024
  154SAPE  C31717176   3.110   2.248   8.527  0.4004  0.1767 -0.2840
  154SAPE  H17X17177   3.193   2.191   8.480 -1.3941 -3.5441  0.6728
  154SAPE  H17Y17178   3.121   2.247   8.637 -0.7844 -0.7834 -0.1421
  154SAPE  C31817179   3.105   2.403   8.485  0.1350 -0.1404  0.0599
  154SAPE  H18X17180   3.082   2.411   8.377 -0.8373 -2.1023  0.0816
  154SAPE  H18Y17181   3.192   2.459   8.528 -1.1459 -0.0528  2.7855
  154SAPE  H18Z17182   3.021   2.453   8.539  1.2360  1.6570  0.2179
  155SAPE     N17183   4.369   3.823   6.543 -0.0100  0.3759  0.2482
  155SAPE   HN117184   4.332   3.894   6.478  0.1847 -1.0872 -1.5459
  155SAPE   HN217185   4.452   3.860   6.594  0.8363  0.7850 -1.3529
  155SAPE   HN317186   4.417   3.741   6.500 -0.2107  0.0569  0.6228
  155SAPE   C1217187   4.266   3.768   6.641  0.3267 -0.3734  0.1230
  155SAPE  H12A17188   4.171   3.742   6.589 -0.8525  1.0512  1.4733
  155SAPE  H12B17189   4.243   3.852   6.710  0.7514 -0.1777  0.0273
  155SAPE   C1117190   4.313   3.648   6.724 -0.5921 -0.6609 -0.2895
  155SAPE  H11A17191   4.239   3.624   6.804  1.2756 -3.4080  0.7756
  155SAPE  H11B17192   4.399   3.677   6.788 -1.2844  0.1335  0.3039
  155SAPE     P17193   4.280   3.412   6.631 -0.0218  0.2821 -0.1733
  155SAPE   O1317194   4.147   3.428   6.564  0.0551 -0.2888  0.0550
  155SAPE   O1417195   4.371   3.311   6.577  0.0346 -0.1057  0.1231
  155SAPE   O1217196   4.356   3.544   6.643  0.2509  1.1894  0.4476
  155SAPE   O1117197   4.245   3.378   6.784 -0.1849  0.3563 -0.3616
  155SAPE    C117198   4.355   3.344   6.870 -0.0900 -0.2751 -0.1707
  155SAPE    HA17199   4.445   3.400   6.837 -1.1126  0.7508 -1.3287
  155SAPE    HB17200   4.340   3.378   6.975 -2.6931 -4.1319  0.9164
  155SAPE    C217201   4.375   3.194   6.876 -0.6922  0.6957 -0.3346
  155SAPE    HS17202   4.400   3.166   6.771  1.1989  0.6031  0.1141
  155SAPE   O2117203   4.257   3.126   6.930 -0.1329 -0.6557 -0.2232
  155SAPE   C2117204   4.195   3.048   6.851  0.0819 -0.0145  0.0621
  155SAPE   O2217205   4.215   3.036   6.730  0.3507  0.3543  0.0433
  155SAPE   C2217206   4.086   2.977   6.938  0.4618  0.5380  0.1507
  155SAPE   H2R17207   4.023   3.056   6.982 -1.0802 -1.4289  1.6800
  155SAPE   H2S17208   4.025   2.921   6.865 -2.0577  1.1040  1.7133
  155SAPE    C317209   4.511   3.161   6.961  0.3276 -0.2971 -0.3473
  155SAPE    HX17210   4.602   3.205   6.913  0.8557  0.2308  1.0743
  155SAPE    HY17211   4.517   3.050   6.964 -1.9587 -0.4372  1.0007
  155SAPE   O3117212   4.499   3.189   7.099 -0.0039 -0.5258  0.7142
  155SAPE   C3117213   4.554   3.309   7.132  0.0876 -0.5223  0.3503
  155SAPE   O3217214   4.603   3.387   7.053  0.2922  0.2967  0.0093
  155SAPE   C3217215   4.535   3.311   7.284  0.2835  0.3358 -0.2024
  155SAPE   H2X17216   4.601   3.230   7.322 -0.7494 -0.1362  0.6777
  155SAPE   H2Y17217   4.432   3.276   7.310  1.1183 -1.6980  0.5824
  155SAPE   C2317218   4.143   2.883   7.043  0.2522 -0.3974  0.1765
  155SAPE   H3R17219   4.137   2.946   7.134  1.4947  0.3718 -0.2521
  155SAPE   H3S17220   4.246   2.843   7.033  0.7530  1.0532 -0.7502
  155SAPE   C2417221   4.053   2.758   7.069 -0.3108 -0.2159  0.8236
  155SAPE   H4R17222   4.121   2.691   7.126  0.3726  1.1864  1.7155
  155SAPE   H4S17223   4.028   2.705   6.975 -0.9670 -0.2969  1.0410
  155SAPE   C2517224   3.927   2.792   7.135 -0.2776 -0.5589  0.4598
  155SAPE   H5R17225   3.870   2.878   7.096 -1.2520  0.0911  3.0991
  155SAPE   C2617226   3.866   2.736   7.248 -1.1319 -0.4061  0.2086
  155SAPE   H6R17227   3.770   2.768   7.291 -1.0811 -0.4704  0.3671
  155SAPE   C2717228   3.942   2.621   7.311 -0.3913 -0.6367  0.2211
  155SAPE   H7R17229   4.037   2.664   7.349 -0.9877  1.2987 -0.3501
  155SAPE   H7S17230   3.968   2.543   7.237 -1.1152  1.6095 -2.5890
  155SAPE   C2817231   3.851   2.576   7.428 -0.2239  0.2785  0.6018
  155SAPE   H8R17232   3.785   2.489   7.414  0.3557 -0.3481  1.6822
  155SAPE   C2917233   3.856   2.619   7.559 -0.1593  0.6619 -0.6211
  155SAPE   H9R17234   3.785   2.579   7.633  0.0259 -0.8134 -1.1903
  155SAPE  C21017235   3.954   2.721   7.604 -0.0028  0.5011  0.0679
  155SAPE  H10R17236   3.911   2.777   7.690  4.0417  2.0434  1.3172
  155SAPE  H10S17237   3.978   2.797   7.526  1.0530  3.0814  2.7411
  155SAPE  C21117238   4.084   2.664   7.658  0.0088 -1.0217 -0.3670
  155SAPE  H11R17239   4.139   2.612   7.578 -1.5716 -1.2781 -1.3353
  155SAPE  C21217240   4.142   2.674   7.780  0.3721 -0.7285 -0.1837
  155SAPE  H12R17241   4.225   2.603   7.797  0.0025 -1.1522 -0.1202
  155SAPE  C21317242   4.088   2.724   7.907  0.5741 -0.1723  0.6459
  155SAPE  H13R17243   4.066   2.832   7.896 -2.1128 -0.7730 -0.7318
  155SAPE  H13S17244   4.149   2.703   7.998 -0.8097 -3.2923  0.9582
  155SAPE  C21417245   3.955   2.679   7.949 -0.2505  0.2033 -0.7257
  155SAPE  H14R17246   3.889   2.623   7.881  0.3797 -1.1665 -0.2484
  155SAPE  C21517247   3.914   2.691   8.083  0.2868 -0.6345  0.6138
  155SAPE  H15R17248   3.820   2.641   8.111  0.0300 -0.6241 -0.2068
  155SAPE  C21617249   3.988   2.760   8.190 -0.9398  0.0972 -0.2520
  155SAPE  H16R17250   3.910   2.814   8.248 -1.5133 -0.5321 -0.4355
  155SAPE  H16S17251   4.058   2.832   8.142  0.8032 -3.1009 -2.8946
  155SAPE  C21717252   4.062   2.682   8.303 -0.6664 -0.1405  0.2518
  155SAPE  H17R17253   4.155   2.633   8.266  0.5930 -0.0768  3.1039
  155SAPE  H17S17254   3.991   2.604   8.339 -0.1027 -0.3255  0.9832
  155SAPE  C21817255   4.099   2.778   8.414 -0.3444 -0.1400 -0.3796
  155SAPE  H18R17256   4.004   2.827   8.444  0.9408  1.1666  1.8537
  155SAPE  H18S17257   4.168   2.851   8.366 -0.2308  0.4608  0.6691
  155SAPE  C21917258   4.164   2.728   8.539  0.9708 -0.7801  0.2029
  155SAPE  H19R17259   4.260   2.676   8.521  2.2478  1.8203 -0.8777
  155SAPE  H19S17260   4.096   2.649   8.579 -0.8447  0.4128 -0.3681
  155SAPE  C22017261   4.182   2.849   8.633  0.6381  0.2609 -0.0315
  155SAPE  H20R17262   4.222   2.942   8.587 -0.9859  1.6628  1.2510
  155SAPE  H20S17263   4.250   2.805   8.709 -1.4724 -0.3873  1.5897
  155SAPE  H20T17264   4.086   2.877   8.682  2.6092  2.2072  3.0793
  155SAPE   C3317265   4.582   3.444   7.343 -0.3231  0.4346  0.0557
  155SAPE   H3X17266   4.498   3.502   7.299 -3.4692 -1.5680  2.9353
  155SAPE   H3Y17267   4.682   3.466   7.301 -0.0631 -0.1624  0.3576
  155SAPE   C3417268   4.582   3.452   7.493 -0.1093 -0.7611  0.4194
  155SAPE   H4X17269   4.639   3.541   7.526 -0.7122 -1.0466  2.3670
  155SAPE   H4Y17270   4.642   3.365   7.527  2.4815  0.1357 -1.5015
  155SAPE   C3517271   4.444   3.444   7.555 -0.5566  0.5894  0.3000
  155SAPE   H5X17272   4.395   3.345   7.543 -0.5063  0.6102 -0.0839
  155SAPE   H5Y17273   4.384   3.521   7.501  0.4270  0.1328 -1.5139
  155SAPE   C3617274   4.430   3.472   7.703  0.1766  0.2929  0.1570
  155SAPE   H6X17275   4.326   3.450   7.734  0.9570 -1.7307  1.4829
  155SAPE   H6Y17276   4.447   3.577   7.735  1.4242 -0.2962  1.5188
  155SAPE   C3717277   4.525   3.377   7.786  0.0871 -0.1470  0.7338
  155SAPE   H7X17278   4.630   3.409   7.770 -0.1687 -0.4824 -2.3287
  155SAPE   H7Y17279   4.515   3.272   7.750 -2.0111  0.1934  0.1706
  155SAPE   C3817280   4.495   3.389   7.940 -0.2791 -0.2959  1.1217
  155SAPE   H8X17281   4.553   3.308   7.990  0.2302 -0.3679  0.4236
  155SAPE   H8Y17282   4.388   3.371   7.965 -0.1966  0.6303  2.1623
  155SAPE   C3917283   4.548   3.522   8.008  0.6100  0.7323  0.4847
  155SAPE   H9X17284   4.510   3.608   7.949 -0.3280 -0.6159 -0.9930
  155SAPE   H9Y17285   4.659   3.513   8.001  0.6346 -0.1025  1.6629
  155SAPE  C31017286   4.502   3.522   8.154 -0.3628 -0.3776 -0.1894
  155SAPE  H10X17287   4.514   3.420   8.197 -2.3457 -0.9448 -0.8946
  155SAPE  H10Y17288   4.393   3.535   8.145 -0.1673  3.5785  1.3644
  155SAPE  C31117289   4.565   3.649   8.236  0.3066  0.4739  0.1684
  155SAPE  H11X17290   4.530   3.741   8.186 -0.8637 -0.1119 -0.1269
  155SAPE  H11Y17291   4.673   3.658   8.213  0.1816 -0.0823 -0.7115
  155SAPE  C31217292   4.539   3.651   8.387 -1.1383 -0.4370  0.2586
  155SAPE  H12X17293   4.578   3.560   8.436  3.2531  0.5104 -1.0540
  155SAPE  H12Y17294   4.429   3.663   8.398 -0.9806  2.1221 -0.3309
  155SAPE  C31317295   4.609   3.775   8.453  0.2101  0.2138  0.3589
  155SAPE  H13X17296   4.552   3.864   8.417  0.1527 -0.9694 -2.7597
  155SAPE  H13Y17297   4.713   3.786   8.414  0.1056  1.4541  0.3713
  155SAPE  C31417298   4.609   3.765   8.606 -1.1227  0.0572  0.4731
  155SAPE  H14X17299   4.660   3.673   8.644 -1.9061 -0.4834  0.2246
  155SAPE  H14Y17300   4.505   3.746   8.638 -1.3062 -1.3717 -0.8202
  155SAPE  C31517301   4.669   3.894   8.667 -0.2599 -0.1096 -0.1192
  155SAPE  H15X17302   4.628   3.987   8.622  0.2211  0.0769 -0.1839
  155SAPE  H15Y17303   4.780   3.899   8.660 -0.3660  2.0266 -1.1284
  155SAPE  C31617304   4.652   3.891   8.823 -0.7959  0.1008  0.0070
  155SAPE  H16X17305   4.690   3.790   8.850  1.7043  1.2570  1.0886
  155SAPE  H16Y17306   4.544   3.900   8.847 -0.6105  2.3179  0.2863
  155SAPE  C31717307   4.721   4.008   8.905 -0.4938  0.0050 -0.1438
  155SAPE  H17X17308   4.822   4.017   8.857 -0.4916 -0.0178 -0.1431
  155SAPE  H17Y17309   4.745   3.983   9.010  0.2989  0.2803 -0.2486
  155SAPE  C31817310   4.645   4.147   8.912 -0.4730 -0.0093 -0.9375
  155SAPE  H18X17311   4.704   4.230   8.955  1.2555 -1.6181 -0.0187
  155SAPE  H18Y17312   4.550   4.135   8.970 -0.0520 -0.7048 -0.3784
  155SAPE  H18Z17313   4.597   4.176   8.817 -3.0982 -0.8205  0.0299
  156SAPE     N17314   3.038   3.278   6.553  0.7302  0.4557  0.2611
  156SAPE   HN117315   2.957   3.313   6.608 -1.7241 -2.6693 -1.0355
  156SAPE   HN217316   3.126   3.333   6.565  1.6613 -0.8647 -0.2867
  156SAPE   HN317317   3.006   3.292   6.455  2.5936  0.3824 -0.3871
  156SAPE   C1217318   3.069   3.136   6.580  0.1912  0.2756  0.1403
  156SAPE  H12A17319   2.970   3.088   6.570 -0.7132  1.5860  2.1229
  156SAPE  H12B17320   3.102   3.132   6.686 -0.5651 -0.9898  0.3406
  156SAPE   C1117321   3.164   3.078   6.476  0.1228  0.0134 -0.5427
  156SAPE  H11A17322   3.239   3.157   6.457  0.3368  0.7654  2.8926
  156SAPE  H11B17323   3.102   3.065   6.384 -0.5832  0.1253 -0.0948
  156SAPE     P17324   3.384   2.930   6.529 -0.1500 -0.2869 -0.3113
  156SAPE   O1317325   3.438   2.930   6.388 -0.3032  0.0227 -0.3658
  156SAPE   O1417326   3.454   3.030   6.620  0.5278  0.0822 -0.2821
  156SAPE   O1217327   3.227   2.957   6.525  0.0033  0.0736 -0.0234
  156SAPE   O1117328   3.397   2.788   6.595  0.7806  0.6463  0.0385
  156SAPE    C117329   3.287   2.717   6.665 -0.9119 -0.3237  0.7509
  156SAPE    HA17330   3.190   2.734   6.613  0.7271 -0.2767 -2.5563
  156SAPE    HB17331   3.310   2.608   6.663 -0.5597 -0.2474 -0.0555
  156SAPE    C217332   3.285   2.759   6.815 -0.2003 -0.0212  0.0104
  156SAPE    HS17333   3.246   2.666   6.861 -0.6476 -0.8341 -1.9497
  156SAPE   O2117334   3.197   2.869   6.832 -1.0046  0.0747  0.1617
  156SAPE   C2117335   3.078   2.838   6.885  0.4787 -0.0035  0.0089
  156SAPE   O2217336   3.026   2.730   6.884 -0.0969 -0.4056 -0.2108
  156SAPE   C2217337   3.012   2.969   6.932 -0.4026  0.1404  0.4866
  156SAPE   H2R17338   3.097   3.034   6.961 -0.1662 -0.6664  1.6848
  156SAPE   H2S17339   2.956   3.008   6.844 -0.0717 -0.6209 -0.0755
  156SAPE    C317340   3.430   2.793   6.869  0.0649 -0.0448 -0.1333
  156SAPE    HX17341   3.461   2.897   6.848  1.4737 -0.4895 -0.3229
  156SAPE    HY17342   3.497   2.731   6.807 -1.0337 -0.7026 -0.7041
  156SAPE   O3117343   3.430   2.762   7.013 -0.3988 -0.4036 -0.1282
  156SAPE   C3117344   3.382   2.863   7.089 -0.7757  0.1724 -0.2957
  156SAPE   O3217345   3.348   2.972   7.052 -0.4897  0.1747 -0.5433
  156SAPE   C3217346   3.381   2.816   7.235  0.1320 -0.7911 -0.0656
  156SAPE   H2X17347   3.404   2.707   7.238 -0.7438 -0.9617  0.6719
  156SAPE   H2Y17348   3.275   2.823   7.268  0.5058  0.3106  0.9382
  156SAPE   C2317349   2.914   2.959   7.052 -0.4396 -0.2729 -0.5084
  156SAPE   H3R17350   2.826   2.899   7.021 -0.8296  0.5324 -1.0126
  156SAPE   H3S17351   2.872   3.060   7.073 -0.3391 -0.3298 -0.0336
  156SAPE   C2417352   2.981   2.906   7.186 -0.0636 -0.6013 -0.1613
  156SAPE   H4R17353   3.044   2.817   7.162 -0.2616 -1.7465  3.1366
  156SAPE   H4S17354   2.889   2.891   7.245 -1.1398  2.4631 -0.8675
  156SAPE   C2517355   3.069   3.008   7.247 -0.5745  0.5066 -0.2147
  156SAPE   H5R17356   3.104   3.091   7.185 -0.6151  0.8025  0.1563
  156SAPE   C2617357   3.088   3.022   7.374 -0.3176 -0.3059 -0.5098
  156SAPE   H6R17358   3.151   3.103   7.413  2.6979 -3.4790  1.8835
  156SAPE   C2717359   3.025   2.939   7.485  0.4663 -1.2286  0.8883
  156SAPE   H7R17360   3.107   2.887   7.540  1.4391 -1.3017 -0.5613
  156SAPE   H7S17361   2.963   2.857   7.443  0.9190 -2.1538  1.9495
  156SAPE   C2817362   2.929   3.018   7.576 -0.1962 -0.5720 -0.4609
  156SAPE   H8R17363   2.849   3.085   7.539 -2.6365 -3.5819 -1.0161
  156SAPE   C2917364   2.931   3.014   7.710 -0.4758  0.3881  0.4303
  156SAPE   H9R17365   2.869   3.094   7.754 -0.6484  1.9038 -2.3224
  156SAPE  C21017366   3.017   2.935   7.800  0.0529  0.1455  1.0041
  156SAPE  H10R17367   3.087   2.870   7.743 -0.9155 -0.2339  0.2021
  156SAPE  H10S17368   2.953   2.863   7.857  0.2654  0.2644  1.3914
  156SAPE  C21117369   3.103   3.026   7.886 -0.0699 -0.0519 -0.4270
  156SAPE  H11R17370   3.175   3.095   7.840 -0.4326  1.4662  1.1589
  156SAPE  C21217371   3.066   3.058   8.007  0.5829 -0.7741 -0.9651
  156SAPE  H12R17372   3.137   3.100   8.080 -0.2632 -1.1159  0.0869
  156SAPE  C21317373   2.941   3.010   8.085 -0.0615 -0.3400 -0.6488
  156SAPE  H13R17374   2.960   2.905   8.118 -1.4774  0.1727  2.0230
  156SAPE  H13S17375   2.859   3.022   8.011  0.2887  0.1577 -0.9603
  156SAPE  C21417376   2.919   3.110   8.196 -0.0278 -0.7462 -0.4116
  156SAPE  H14R17377   2.884   3.209   8.163 -0.3909 -1.5898 -2.7398
  156SAPE  C21517378   2.936   3.091   8.326  0.1152 -0.2367  0.3947
  156SAPE  H15R17379   2.909   3.166   8.402  1.3788  0.4001  0.2580
  156SAPE  C21617380   2.996   2.962   8.381  0.0856 -0.8346 -0.5248
  156SAPE  H16R17381   3.093   2.983   8.432 -0.8754 -1.6379  1.7485
  156SAPE  H16S17382   3.017   2.879   8.310  0.1574 -1.0382 -0.2663
  156SAPE  C21717383   2.919   2.902   8.500 -0.5324  0.0957  0.0579
  156SAPE  H17R17384   2.817   2.874   8.465 -0.2043  1.6516 -2.3934
  156SAPE  H17S17385   2.908   2.975   8.583 -1.9499  0.6231 -0.5575
  156SAPE  C21817386   2.980   2.770   8.554  0.0512  0.2319  0.5197
  156SAPE  H18R17387   3.086   2.789   8.583  0.4872 -0.2324 -0.6945
  156SAPE  H18S17388   2.981   2.693   8.473 -1.7673 -1.3585  1.9189
  156SAPE  C21917389   2.909   2.703   8.675 -0.1108 -0.6407 -0.4848
  156SAPE  H19R17390   2.901   2.779   8.755 -0.7642  0.0921 -1.2321
  156SAPE  H19S17391   2.971   2.620   8.716 -0.7633  0.6557  3.5911
  156SAPE  C22017392   2.773   2.636   8.651  0.5133 -0.1900 -0.9602
  156SAPE  H20R17393   2.701   2.692   8.589  0.5241 -0.7621 -1.4980
  156SAPE  H20S17394   2.716   2.618   8.745  1.3904 -1.1405 -0.5944
  156SAPE  H20T17395   2.776   2.534   8.607 -1.6735 -1.5259  1.6717
  156SAPE   C3317396   3.474   2.894   7.328  0.3011  0.0848  0.4837
  156SAPE   H3X17397   3.449   3.002   7.326 -2.3355 -0.4886 -0.5748
  156SAPE   H3Y17398   3.578   2.881   7.291  0.7628 -3.3761  2.5635
  156SAPE   C3417399   3.488   2.826   7.464  0.2248 -0.5311 -0.2583
  156SAPE   H4X17400   3.534   2.726   7.452  0.9600  0.0085 -2.4781
  156SAPE   H4Y17401   3.383   2.819   7.499  0.4685  0.5994  0.7957
  156SAPE   C3517402   3.581   2.907   7.554  0.8364 -0.7034 -0.3624
  156SAPE   H5X17403   3.566   3.014   7.528 -1.4156 -0.5723  1.1304
  156SAPE   H5Y17404   3.687   2.882   7.534  1.3533  2.7615 -2.8908
  156SAPE   C3617405   3.553   2.907   7.702 -0.3197 -0.1467 -0.7303
  156SAPE   H6X17406   3.446   2.927   7.723 -0.2333 -1.1526  0.7685
  156SAPE   H6Y17407   3.614   2.992   7.740  1.0778 -0.6905 -1.6800
  156SAPE   C3717408   3.583   2.776   7.764  0.7493  0.2125  0.1287
  156SAPE   H7X17409   3.679   2.742   7.719  0.3042 -2.8864  1.2715
  156SAPE   H7Y17410   3.507   2.699   7.739  1.2427  0.2015 -1.4493
  156SAPE   C3817411   3.620   2.775   7.914  0.7523 -0.5247 -0.5578
  156SAPE   H8X17412   3.713   2.836   7.920 -0.6215  1.6290  0.3110
  156SAPE   H8Y17413   3.647   2.672   7.945 -0.6574 -0.9999 -0.8596
  156SAPE   C3917414   3.509   2.833   8.008  0.6913 -0.3074  0.2733
  156SAPE   H9X17415   3.458   2.916   7.954 -1.0414 -0.6681  1.2965
  156SAPE   H9Y17416   3.553   2.870   8.103 -0.0525  1.2016  0.0707
  156SAPE  C31017417   3.403   2.721   8.034  0.4406 -0.2155 -0.0083
  156SAPE  H10X17418   3.445   2.623   8.066  0.9577  0.1558  0.4748
  156SAPE  H10Y17419   3.361   2.707   7.932 -2.2477  2.5923  0.5446
  156SAPE  C31117420   3.283   2.753   8.135 -0.1219  0.2318  0.2314
  156SAPE  H11X17421   3.201   2.678   8.141  1.4413 -1.4565  1.2601
  156SAPE  H11Y17422   3.245   2.852   8.102  3.2878  2.1542  1.5408
  156SAPE  C31217423   3.333   2.775   8.283 -0.3946  0.4318 -0.2595
  156SAPE  H12X17424   3.251   2.814   8.346  0.1651  1.3028 -0.0645
  156SAPE  H12Y17425   3.413   2.852   8.283  0.8493 -0.7525  2.2867
  156SAPE  C31317426   3.379   2.649   8.353  0.2783 -0.5733  0.7238
  156SAPE  H13X17427   3.449   2.603   8.279  0.7646  3.0382 -1.3177
  156SAPE  H13Y17428   3.286   2.589   8.351 -1.6031  2.2192 -0.5216
  156SAPE  C31417429   3.435   2.649   8.491  0.7866 -0.5498 -0.3464
  156SAPE  H14X17430   3.347   2.661   8.558  0.9854  1.5845 -0.3814
  156SAPE  H14Y17431   3.486   2.740   8.530  0.2097 -0.5980  0.5415
  156SAPE  C31517432   3.508   2.517   8.521 -0.1064 -1.5216  0.9758
  156SAPE  H15X17433   3.445   2.439   8.475  0.3577  0.5236 -3.7873
  156SAPE  H15Y17434   3.515   2.487   8.627 -2.0816  2.1418  2.3135
  156SAPE  C31617435   3.646   2.522   8.445  0.3012  0.3883 -0.4865
  156SAPE  H16X17436   3.716   2.574   8.513 -0.4282  0.2832  0.3653
  156SAPE  H16Y17437   3.659   2.582   8.352 -0.1260  2.7372  0.9002
  156SAPE  C31717438   3.688   2.383   8.434 -1.1356 -0.4162  0.1586
  156SAPE  H17X17439   3.621   2.325   8.367  0.1856  0.1603 -1.7711
  156SAPE  H17Y17440   3.694   2.334   8.533  0.5979  2.0926  1.4125
  156SAPE  C31817441   3.837   2.378   8.397  0.6190  0.0516 -0.2935
  156SAPE  H18X17442   3.824   2.382   8.287 -3.7381  0.0139  0.0355
  156SAPE  H18Y17443   3.880   2.284   8.436 -0.7599 -0.0894  0.9829
  156SAPE  H18Z17444   3.889   2.460   8.452  2.3241 -1.7256  0.8623
  157SAPE     N17445   5.833   4.447   6.448 -0.3617 -0.4488 -0.2653
  157SAPE   HN117446   5.782   4.380   6.387  0.2855 -2.8734  1.7045
  157SAPE   HN217447   5.805   4.546   6.431 -0.9253 -0.1369  2.0812
  157SAPE   HN317448   5.936   4.449   6.431 -0.2454  3.2151 -0.0211
  157SAPE   C1217449   5.812   4.412   6.594  0.9208  0.1799  0.4934
  157SAPE  H12A17450   5.874   4.478   6.659 -0.8200  2.3890  0.0410
  157SAPE  H12B17451   5.845   4.307   6.606  0.5206  0.1898  1.7853
  157SAPE   C1117452   5.664   4.439   6.626  0.0113 -1.0544  0.3120
  157SAPE  H11A17453   5.656   4.548   6.609  2.1911 -0.8307  0.4714
  157SAPE  H11B17454   5.644   4.413   6.732 -2.2459  1.9772  0.7565
  157SAPE     P17455   5.428   4.401   6.529 -0.1856  0.2935  0.2770
  157SAPE   O1317456   5.415   4.460   6.389 -0.4150  0.0630  0.1904
  157SAPE   O1417457   5.339   4.284   6.566 -0.1034  0.1947  0.5653
  157SAPE   O1217458   5.578   4.356   6.551  0.4890  0.9471 -0.4464
  157SAPE   O1117459   5.396   4.518   6.633 -0.1838  0.7527 -0.6056
  157SAPE    C117460   5.301   4.612   6.588  0.2576  0.9850 -0.3237
  157SAPE    HA17461   5.343   4.697   6.529  0.4018  1.9095  1.0626
  157SAPE    HB17462   5.219   4.558   6.537  1.6795 -0.0781 -1.5916
  157SAPE    C217463   5.240   4.681   6.713  0.9000 -0.0349 -0.4141
  157SAPE    HS17464   5.180   4.764   6.670 -0.0597 -1.1892 -1.3577
  157SAPE   O2117465   5.346   4.724   6.811 -0.3756 -0.0311 -0.8908
  157SAPE   C2117466   5.418   4.818   6.764 -0.6134  0.8727  0.1061
  157SAPE   O2217467   5.397   4.880   6.663 -0.4557  0.3862 -0.1786
  157SAPE   C2217468   5.531   4.847   6.863  0.1835  0.2081 -0.4401
  157SAPE   H2R17469   5.484   4.861   6.963 -1.0694  3.5727 -1.3830
  157SAPE   H2S17470   5.601   4.760   6.871 -0.4654 -0.3858 -1.0849
  157SAPE    C317471   5.140   4.585   6.790 -0.7297  0.1671  0.5461
  157SAPE    HX17472   5.189   4.489   6.819 -1.4614 -0.2620  0.3750
  157SAPE    HY17473   5.071   4.531   6.721  2.3995 -0.6085 -2.2717
  157SAPE   O3117474   5.067   4.645   6.893 -0.6863 -0.3158 -0.2715
  157SAPE   C3117475   5.130   4.650   7.013 -0.2463  0.8151 -0.0870
  157SAPE   O3217476   5.237   4.597   7.038  0.6960  0.1077  0.1541
  157SAPE   C3217477   5.050   4.729   7.112  0.4193  0.6686  0.1782
  157SAPE   H2X17478   4.969   4.661   7.145  0.0285  0.3716 -1.2942
  157SAPE   H2Y17479   4.995   4.806   7.052  0.2391 -1.5435 -2.7482
  157SAPE   C2317480   5.620   4.970   6.830  0.4345  0.2866 -0.1687
  157SAPE   H3R17481   5.564   5.052   6.780 -1.8175  0.3251  2.2528
  157SAPE   H3S17482   5.689   4.924   6.756  0.3045  0.0744 -0.1570
  157SAPE   C2417483   5.695   5.021   6.959  0.5452 -0.6494 -0.2194
  157SAPE   H4R17484   5.758   5.106   6.925 -1.9389  1.6567  0.5907
  157SAPE   H4S17485   5.757   4.939   7.000 -1.4014 -0.2329  4.1624
  157SAPE   C2517486   5.598   5.077   7.064  0.1031 -0.2533  0.2205
  157SAPE   H5R17487   5.502   5.119   7.033 -0.7304 -1.5448  0.9399
  157SAPE   C2617488   5.627   5.061   7.191 -0.3790  0.2462 -0.5391
  157SAPE   H6R17489   5.559   5.101   7.267  0.5149 -0.2097  0.5345
  157SAPE   C2717490   5.756   5.002   7.245  0.2303  0.4614 -0.1345
  157SAPE   H7R17491   5.834   5.065   7.198 -0.4015  0.4375 -1.2651
  157SAPE   H7S17492   5.768   4.906   7.191 -1.6101 -0.0586  0.2949
  157SAPE   C2817493   5.775   4.968   7.390 -0.5505 -0.3071 -0.6194
  157SAPE   H8R17494   5.816   5.048   7.453 -0.2817 -2.5344  2.2556
  157SAPE   C2917495   5.744   4.852   7.454  0.4990 -0.9147 -0.3023
  157SAPE   H9R17496   5.772   4.833   7.559 -0.5572 -0.9641 -0.0219
  157SAPE  C21017497   5.675   4.739   7.387  0.0309  1.0975  0.3532
  157SAPE  H10R17498   5.624   4.764   7.292 -2.4354  0.5081  1.4447
  157SAPE  H10S17499   5.591   4.705   7.452 -0.3084  1.9299  0.3655
  157SAPE  C21117500   5.765   4.620   7.362 -0.6599 -0.2423  0.9221
  157SAPE  H11R17501   5.858   4.649   7.311 -2.0398 -0.7432 -2.0362
  157SAPE  C21217502   5.743   4.492   7.360  0.4843  0.7284 -0.4515
  157SAPE  H12R17503   5.824   4.420   7.340 -1.2406 -0.5823 -3.3761
  157SAPE  C21317504   5.616   4.427   7.400 -0.2069  0.3444  0.0795
  157SAPE  H13R17505   5.566   4.479   7.485 -4.2441 -0.6923 -1.4196
  157SAPE  H13S17506   5.649   4.332   7.446  0.2580  0.5714  0.2161
  157SAPE  C21417507   5.514   4.409   7.293  0.2304  0.0048 -0.0081
  157SAPE  H14R17508   5.531   4.462   7.198 -0.5794  2.8617  1.3266
  157SAPE  C21517509   5.413   4.323   7.299 -0.0508 -0.0513 -0.1220
  157SAPE  H15R17510   5.352   4.322   7.207 -0.5099  1.7827  0.1270
  157SAPE  C21617511   5.375   4.230   7.415 -0.2669  0.3463  0.0254
  157SAPE  H16R17512   5.270   4.257   7.440 -0.3224  0.0840  0.0751
  157SAPE  H16S17513   5.431   4.247   7.510  1.7391 -1.1497 -0.8140
  157SAPE  C21717514   5.390   4.080   7.393 -0.5682  0.1929  0.1998
  157SAPE  H17R17515   5.336   4.049   7.301  1.7082  1.3234 -1.6214
  157SAPE  H17S17516   5.373   4.010   7.477  0.9917  0.1381  0.5115
  157SAPE  C21817517   5.532   4.045   7.344 -0.2719  0.5687 -0.3468
  157SAPE  H18R17518   5.599   4.077   7.426 -0.8775  2.7655 -0.6500
  157SAPE  H18S17519   5.567   4.115   7.264 -1.2951  1.6071  0.0990
  157SAPE  C21917520   5.553   3.890   7.307 -0.2769  0.9244 -0.4728
  157SAPE  H19R17521   5.508   3.831   7.389  3.0127 -1.5660 -0.2830
  157SAPE  H19S17522   5.662   3.870   7.303  0.0617  1.7698  2.3111
  157SAPE  C22017523   5.492   3.858   7.170  0.0549 -0.3070  0.3560
  157SAPE  H20R17524   5.384   3.884   7.166  0.0633  0.6266  3.6973
  157SAPE  H20S17525   5.503   3.751   7.143 -1.7052 -0.4224  0.0026
  157SAPE  H20T17526   5.549   3.919   7.096  0.0861  1.0794  1.4803
  157SAPE   C3317527   5.125   4.779   7.236  0.2554 -0.1413  0.2259
  157SAPE   H3X17528   5.070   4.867   7.276 -1.6419 -0.6721 -1.0529
  157SAPE   H3Y17529   5.227   4.811   7.207  1.1161 -3.3043 -0.6036
  157SAPE   C3417530   5.155   4.683   7.354  0.3255 -0.0587  0.3585
  157SAPE   H4X17531   5.230   4.612   7.312 -0.4326 -2.4507  2.7719
  157SAPE   H4Y17532   5.065   4.624   7.381  0.2559  0.0925  0.4528
  157SAPE   C3517533   5.221   4.747   7.476  0.1563 -0.0503 -0.4828
  157SAPE   H5X17534   5.162   4.826   7.528  2.6640  1.2273  0.5873
  157SAPE   H5Y17535   5.318   4.787   7.439  0.5217 -1.9508 -1.7204
  157SAPE   C3617536   5.251   4.643   7.591  0.3426 -1.2222 -0.5732
  157SAPE   H6X17537   5.269   4.546   7.539 -2.5263 -0.6724 -2.8014
  157SAPE   H6Y17538   5.154   4.639   7.645  0.6191  2.2151  0.4212
  157SAPE   C3717539   5.367   4.697   7.677  0.2660 -0.0803 -0.0891
  157SAPE   H7X17540   5.351   4.798   7.718 -3.2336 -1.0358  1.2239
  157SAPE   H7Y17541   5.444   4.704   7.597  1.2838  3.1527  1.0270
  157SAPE   C3817542   5.409   4.616   7.798 -0.4447 -0.6671  0.0221
  157SAPE   H8X17543   5.385   4.510   7.773 -0.4216 -0.3610 -1.4244
  157SAPE   H8Y17544   5.346   4.641   7.886 -0.7256  0.6547 -0.5270
  157SAPE   C3917545   5.554   4.636   7.826 -0.8265 -0.5132 -0.1497
  157SAPE   H9X17546   5.579   4.742   7.850  2.3552 -1.2303  0.1233
  157SAPE   H9Y17547   5.618   4.603   7.742  0.0859  1.1504 -0.1379
  157SAPE  C31017548   5.608   4.558   7.941 -0.0016 -0.0047  0.1422
  157SAPE  H10X17549   5.538   4.577   8.026 -1.6224 -1.3717 -0.8427
  157SAPE  H10Y17550   5.705   4.603   7.973  0.3617 -0.0478 -0.8837
  157SAPE  C31117551   5.631   4.408   7.905  0.4385 -0.2405 -0.0795
  157SAPE  H11X17552   5.682   4.392   7.807 -0.0773 -1.1044 -0.2240
  157SAPE  H11Y17553   5.528   4.368   7.888  0.2347  0.3450 -0.2666
  157SAPE  C31217554   5.704   4.352   8.025  0.0517 -0.0161  0.5544
  157SAPE  H12X17555   5.660   4.398   8.115  0.7240 -1.8343  1.8724
  157SAPE  H12Y17556   5.805   4.398   8.010  0.4618 -0.6697  1.2660
  157SAPE  C31317557   5.709   4.195   8.040  0.4572 -0.1265 -0.4677
  157SAPE  H13X17558   5.767   4.169   7.949 -0.2952  2.2516 -1.7057
  157SAPE  H13Y17559   5.608   4.151   8.031  0.3730  0.3620 -2.5596
  157SAPE  C31417560   5.775   4.156   8.165 -0.0508 -0.5462 -0.3799
  157SAPE  H14X17561   5.881   4.190   8.172 -0.1356 -0.5477  1.5946
  157SAPE  H14Y17562   5.782   4.045   8.164  1.1233 -0.5301  1.2997
  157SAPE  C31517563   5.707   4.208   8.292  0.1866  0.3790 -0.0917
  157SAPE  H15X17564   5.600   4.183   8.274  0.1736 -0.2741  0.8360
  157SAPE  H15Y17565   5.702   4.319   8.292 -2.8045  0.3285 -0.6903
  157SAPE  C31617566   5.766   4.147   8.426  0.3313  0.3025  0.5494
  157SAPE  H16X17567   5.871   4.185   8.420  0.2823  0.2796 -0.7933
  157SAPE  H16Y17568   5.750   4.037   8.422 -2.2624  0.5166  2.7104
  157SAPE  C31717569   5.702   4.212   8.552 -0.2125  0.0096  0.1203
  157SAPE  H17X17570   5.600   4.170   8.567  0.5850 -1.8512  0.6955
  157SAPE  H17Y17571   5.689   4.321   8.534  1.6424  0.1844 -0.3533
  157SAPE  C31817572   5.790   4.191   8.675  0.3963  0.0501 -0.5369
  157SAPE  H18X17573   5.810   4.082   8.686  1.4514  0.1845 -1.0051
  157SAPE  H18Y17574   5.741   4.232   8.766  0.3630  2.4395 -1.5595
  157SAPE  H18Z17575   5.885   4.243   8.651 -0.1443  1.5838  0.5089
  158SAPE     N17576   1.627   3.257   6.364 -0.1841  0.1036  0.2090
  158SAPE   HN117577   1.546   3.317   6.340  0.2669 -0.2674 -2.5498
  158SAPE   HN217578   1.647   3.185   6.292  3.0423 -0.2130  1.2469
  158SAPE   HN317579   1.603   3.208   6.453  2.5273  1.6529  1.9357
  158SAPE   C1217580   1.752   3.335   6.376 -0.1523 -0.8959 -0.2709
  158SAPE  H12A17581   1.732   3.412   6.453 -1.4706 -1.5612  0.0708
  158SAPE  H12B17582   1.759   3.389   6.279  0.2685 -0.1153  0.1899
  158SAPE   C1117583   1.871   3.248   6.424  0.1149  0.0608 -0.6163
  158SAPE  H11A17584   1.818   3.177   6.491 -0.1462  0.2477 -0.6260
  158SAPE  H11B17585   1.950   3.290   6.490 -0.7012  0.1125  0.3508
  158SAPE     P17586   2.061   3.219   6.236 -0.0413  0.2341  0.3801
  158SAPE   O1317587   2.057   3.135   6.116 -0.2458  0.0021  1.0620
  158SAPE   O1417588   2.065   3.360   6.218 -0.2534 -0.0654  0.2206
  158SAPE   O1217589   1.928   3.175   6.317  0.0125 -0.5578  0.1213
  158SAPE   O1117590   2.185   3.179   6.333  0.8216 -0.5844  0.0944
  158SAPE    C117591   2.196   3.046   6.385  0.5996 -0.2957  0.1605
  158SAPE    HA17592   2.099   2.993   6.380 -1.0451  2.3899  1.4796
  158SAPE    HB17593   2.266   2.995   6.315  0.4014  0.9217 -0.9571
  158SAPE    C217594   2.237   3.041   6.535 -0.1155  0.1270  0.0658
  158SAPE    HS17595   2.190   2.955   6.588 -0.9105  1.3564  1.4384
  158SAPE   O2117596   2.197   3.166   6.592 -0.2102 -0.2255 -0.2053
  158SAPE   C2117597   2.188   3.167   6.727  0.8134  0.1276  0.2222
  158SAPE   O2217598   2.211   3.066   6.791  0.4878 -0.1826  0.2230
  158SAPE   C2217599   2.155   3.297   6.783 -0.1061  0.5318 -0.4642
  158SAPE   H2R17600   2.172   3.374   6.705  1.4379  0.1391 -0.5544
  158SAPE   H2S17601   2.046   3.292   6.804  0.2800 -0.9332  1.4725
  158SAPE    C317602   2.397   3.033   6.530  0.2503  0.2819  0.2439
  158SAPE    HX17603   2.441   3.127   6.491  0.6526  0.8793  2.0383
  158SAPE    HY17604   2.420   2.951   6.459  2.4839  0.3074  0.8634
  158SAPE   O3117605   2.452   2.992   6.655 -0.2850 -0.2298  0.1347
  158SAPE   C3117606   2.501   3.081   6.745  0.0392 -0.0027  0.1198
  158SAPE   O3217607   2.508   3.204   6.729 -0.9258 -0.4546 -0.1913
  158SAPE   C3217608   2.546   3.004   6.868 -0.8272  0.0459 -0.4279
  158SAPE   H2X17609   2.635   2.943   6.842  0.5381  1.6645  0.2518
  158SAPE   H2Y17610   2.461   2.934   6.887 -0.4112 -0.8034 -1.6102
  158SAPE   C2317611   2.230   3.333   6.909  0.1052  0.1783  0.7070
  158SAPE   H3R17612   2.213   3.440   6.935  1.1371  0.8016 -1.0252
  158SAPE   H3S17613   2.339   3.322   6.889  0.1945 -0.0498  1.3141
  158SAPE   C2417614   2.184   3.262   7.043 -0.5341  0.2228 -0.0941
  158SAPE   H4R17615   2.260   3.287   7.121  1.1410 -0.5643 -1.4005
  158SAPE   H4S17616   2.207   3.155   7.024  1.8430  0.5755  0.4335
  158SAPE   C2517617   2.041   3.288   7.083 -0.7422 -0.5948  1.2343
  158SAPE   H5R17618   1.974   3.318   7.002  0.8595  1.2308  0.5122
  158SAPE   C2617619   2.011   3.302   7.213  0.5568 -0.1108 -0.0149
  158SAPE   H6R17620   1.902   3.302   7.230  0.4916  2.7282 -0.0471
  158SAPE   C2717621   2.086   3.283   7.347 -0.1039 -0.0761  0.1657
  158SAPE   H7R17622   2.070   3.378   7.402 -1.6180  0.3954 -1.0215
  158SAPE   H7S17623   2.196   3.269   7.341 -0.1955 -0.8883  0.2700
  158SAPE   C2817624   2.034   3.159   7.415 -0.2638  0.3742 -0.9082
  158SAPE   H8R17625   2.039   3.065   7.359 -1.3828 -1.0782  1.3202
  158SAPE   C2917626   1.971   3.154   7.540 -0.3296  0.0521  0.5965
  158SAPE   H9R17627   1.941   3.055   7.578  1.2516 -0.1858  1.3020
  158SAPE  C21017628   1.942   3.254   7.644  0.4184 -0.4915  0.1029
  158SAPE  H10R17629   2.012   3.340   7.635  1.8882 -1.5934  0.5775
  158SAPE  H10S17630   1.957   3.208   7.744 -0.6324 -3.1447 -0.8657
  158SAPE  C21117631   1.794   3.296   7.619  0.2020 -0.0517  0.8727
  158SAPE  H11R17632   1.771   3.343   7.522  0.7331 -0.9642  0.2936
  158SAPE  C21217633   1.688   3.283   7.705  0.5963  0.0670 -0.5187
  158SAPE  H12R17634   1.591   3.320   7.668  1.4194  0.1081 -2.7364
  158SAPE  C21317635   1.698   3.223   7.841 -0.4862 -0.5247 -0.4317
  158SAPE  H13R17636   1.689   3.311   7.907 -2.2306 -1.8517  1.2198
  158SAPE  H13S17637   1.796   3.173   7.852  0.2027  0.8880  0.0883
  158SAPE  C21417638   1.596   3.126   7.881  0.3628  0.1483 -0.6687
  158SAPE  H14R17639   1.625   3.022   7.903 -1.9925 -0.6574 -1.1312
  158SAPE  C21517640   1.465   3.154   7.890 -0.6601 -0.3283 -0.2030
  158SAPE  H15R17641   1.396   3.069   7.903 -1.5309  0.3924  0.0399
  158SAPE  C21617642   1.395   3.283   7.869 -0.3677 -0.0767  0.1141
  158SAPE  H16R17643   1.322   3.269   7.787 -0.8320 -0.4099  0.5760
  158SAPE  H16S17644   1.464   3.368   7.850  0.2509  0.6557  4.4799
  158SAPE  C21717645   1.324   3.320   7.999  0.3032 -0.3411 -0.3398
  158SAPE  H17R17646   1.303   3.429   7.999  1.5708 -0.0318  2.2568
  158SAPE  H17S17647   1.391   3.301   8.085 -2.3897 -0.6072  1.8458
  158SAPE  C21817648   1.182   3.258   8.021 -0.7079 -0.3468  0.5719
  158SAPE  H18R17649   1.184   3.147   8.031 -1.1726 -0.3716  0.4221
  158SAPE  H18S17650   1.132   3.272   7.922  1.7534 -1.6995 -0.9825
  158SAPE  C21917651   1.107   3.321   8.141  0.2325 -0.2268 -0.1427
  158SAPE  H19R17652   1.078   3.421   8.104  1.3196 -0.7433 -2.6075
  158SAPE  H19S17653   1.166   3.324   8.235  0.8769 -2.4152 -0.4154
  158SAPE  C22017654   0.976   3.240   8.171 -0.7529 -0.0716  0.9531
  158SAPE  H20R17655   1.014   3.136   8.166  1.0668  0.5888 -2.5060
  158SAPE  H20S17656   0.906   3.234   8.085  2.1523 -5.0993 -1.5497
  158SAPE  H20T17657   0.932   3.284   8.263 -0.3042 -0.5301  1.3979
  158SAPE   C3317658   2.578   3.089   6.991  1.0477  0.7468  0.0255
  158SAPE   H3X17659   2.510   3.176   6.989  2.5237  1.9318 -1.1958
  158SAPE   H3Y17660   2.683   3.122   7.008  1.7286 -1.6617  0.9720
  158SAPE   C3417661   2.548   3.014   7.126  0.1650 -0.0340 -0.1419
  158SAPE   H4X17662   2.623   2.932   7.134  1.2289  1.0092  1.0613
  158SAPE   H4Y17663   2.447   2.969   7.122 -0.9830  2.4162 -0.7288
  158SAPE   C3517664   2.564   3.108   7.246  0.0364  0.8600  0.8160
  158SAPE   H5X17665   2.498   3.195   7.227 -0.5638  0.6278  1.7636
  158SAPE   H5Y17666   2.671   3.136   7.250 -0.1852  1.9137 -0.1826
  158SAPE   C3617667   2.530   3.041   7.381 -0.4274  0.7605 -0.2047
  158SAPE   H6X17668   2.607   2.963   7.401 -2.0337 -1.1890 -1.3411
  158SAPE   H6Y17669   2.429   3.004   7.357 -1.1372  2.2965  0.2519
  158SAPE   C3717670   2.525   3.151   7.491 -0.3222 -0.2618  0.4178
  158SAPE   H7X17671   2.626   3.195   7.493 -0.0966 -0.6288 -1.1625
  158SAPE   H7Y17672   2.456   3.235   7.467  0.2213 -0.0036 -0.2734
  158SAPE   C3817673   2.485   3.106   7.630  0.3427  0.2392 -0.2388
  158SAPE   H8X17674   2.568   3.050   7.677  1.0915  0.6115 -1.0982
  158SAPE   H8Y17675   2.388   3.051   7.626  1.1233 -1.1521 -0.9206
  158SAPE   C3917676   2.449   3.223   7.726  0.3994  0.1205 -0.2271
  158SAPE   H9X17677   2.379   3.292   7.675  3.1921  2.4941 -1.1490
  158SAPE   H9Y17678   2.539   3.287   7.744 -1.2973  1.9304  2.3980
  158SAPE  C31017679   2.397   3.181   7.869 -0.4921 -0.2884  0.6331
  158SAPE  H10X17680   2.419   3.274   7.927  3.9958 -0.2223 -0.7599
  158SAPE  H10Y17681   2.465   3.106   7.915 -1.3894 -0.1292  2.2960
  158SAPE  C31117682   2.253   3.129   7.869  0.1651  0.9538  0.3138
  158SAPE  H11X17683   2.254   3.024   7.832  2.7486  0.3878  1.7339
  158SAPE  H11Y17684   2.193   3.195   7.802 -1.2252  0.8171  1.3811
  158SAPE  C31217685   2.177   3.135   8.000 -0.7674  0.0226 -0.0973
  158SAPE  H12X17686   2.082   3.086   7.971 -0.8874  1.1916 -1.8042
  158SAPE  H12Y17687   2.149   3.238   8.028 -1.0602  0.4903 -1.9891
  158SAPE  C31317688   2.242   3.056   8.109 -0.6078 -0.0680  0.0156
  158SAPE  H13X17689   2.346   3.096   8.115  0.4004 -2.0673 -2.3526
  158SAPE  H13Y17690   2.243   2.951   8.074 -1.6337 -0.3062  0.6789
  158SAPE  C31417691   2.169   3.069   8.244  1.1070  0.4120 -0.4627
  158SAPE  H14X17692   2.215   2.997   8.315  0.9398  0.8662  0.1248
  158SAPE  H14Y17693   2.067   3.035   8.216  0.2989  1.1869  1.3158
  158SAPE  C31517694   2.152   3.217   8.290  0.1860  0.0706 -0.6804
  158SAPE  H15X17695   2.078   3.258   8.218  1.6006  1.8342 -1.2024
  158SAPE  H15Y17696   2.248   3.270   8.274 -0.3897  1.8300  1.1576
  158SAPE  C31617697   2.094   3.232   8.431 -1.0816 -0.7810  0.0062
  158SAPE  H16X17698   2.139   3.166   8.508  1.2482 -0.8261 -1.3194
  158SAPE  H16Y17699   1.983   3.220   8.435 -0.9207 -2.1880  1.4713
  158SAPE  C31717700   2.114   3.383   8.471 -0.1728 -0.4650 -0.1154
  158SAPE  H17X17701   2.110   3.434   8.373  0.9089  0.2085  0.1651
  158SAPE  H17Y17702   2.218   3.389   8.512  0.2397  0.1320 -1.2110
  158SAPE  C31817703   2.010   3.442   8.579  0.2354  0.2480 -0.6821
  158SAPE  H18X17704   2.018   3.384   8.673 -1.4960  0.4059 -0.4108
  158SAPE  H18Y17705   1.908   3.440   8.537 -0.4928  0.0550  1.0152
  158SAPE  H18Z17706   2.038   3.548   8.600  1.0150  0.7551 -3.7700
  159SAPE     N17707   6.708   4.480   6.117  0.1333 -0.0908 -0.3837
  159SAPE   HN117708   6.793   4.468   6.176  1.4018 -1.2229 -2.3421
  159SAPE   HN217709   6.640   4.411   6.156  1.0989 -0.9331 -0.1641
  159SAPE   HN317710   6.722   4.454   6.018  2.1122 -3.7571  0.6755
  159SAPE   C1217711   6.633   4.622   6.139  0.0913 -0.0060  0.3241
  159SAPE  H12A17712   6.535   4.602   6.092  1.1378 -2.2674 -1.0541
  159SAPE  H12B17713   6.693   4.697   6.083 -1.4295  0.3383 -0.9062
  159SAPE   C1117714   6.626   4.644   6.290 -0.6812 -0.4284 -0.6418
  159SAPE  H11A17715   6.545   4.583   6.337  0.5905 -0.1869  2.0926
  159SAPE  H11B17716   6.605   4.750   6.315 -0.0820 -0.9979  2.7706
  159SAPE     P17717   6.862   4.705   6.389 -0.2446  0.5754  0.0286
  159SAPE   O1317718   6.978   4.656   6.313 -0.4675 -0.0943  0.1882
  159SAPE   O1417719   6.816   4.843   6.371 -0.3722 -0.2233 -0.1735
  159SAPE   O1217720   6.741   4.601   6.360  0.6669  0.3485  0.2435
  159SAPE   O1117721   6.885   4.674   6.537  0.0192  0.2815 -0.0267
  159SAPE    C117722   6.994   4.593   6.583  0.3421  0.3523  0.1025
  159SAPE    HA17723   6.963   4.489   6.604  0.7885  0.2147  0.0950
  159SAPE    HB17724   7.078   4.587   6.510 -0.6892 -2.3224 -0.9950
  159SAPE    C217725   7.055   4.655   6.712  0.2971  0.6292  0.2623
  159SAPE    HS17726   7.146   4.602   6.750  0.8459  2.7683  2.1393
  159SAPE   O2117727   6.964   4.658   6.818  0.2044 -0.2552 -0.2209
  159SAPE   C2117728   6.937   4.541   6.875  1.1846 -0.4085  0.6562
  159SAPE   O2217729   6.996   4.440   6.854  0.0357  0.3047  0.0390
  159SAPE   C2217730   6.813   4.558   6.972 -1.3455  0.2406 -0.6590
  159SAPE   H2R17731   6.827   4.649   7.034  0.5348 -0.1003 -0.5279
  159SAPE   H2S17732   6.722   4.575   6.911 -1.5476 -1.9781 -1.0852
  159SAPE    C317733   7.111   4.796   6.675  0.1730  0.0295 -0.5412
  159SAPE    HX17734   7.021   4.860   6.659 -0.8101 -1.0755  0.3794
  159SAPE    HY17735   7.153   4.800   6.572  0.8982  2.8812 -0.2293
  159SAPE   O3117736   7.185   4.862   6.780 -0.5540  0.0795  0.2161
  159SAPE   C3117737   7.288   4.937   6.727  0.2346  0.1368 -0.8963
  159SAPE   O3217738   7.314   4.953   6.608  0.4130  0.3629 -0.4244
  159SAPE   C3217739   7.349   5.012   6.846 -0.4683  0.0880  0.8392
  159SAPE   H2X17740   7.377   4.933   6.918 -0.9797  0.6757  1.6971
  159SAPE   H2Y17741   7.269   5.074   6.892  0.5702  1.0878  1.3461
  159SAPE   C2317742   6.789   4.435   7.066 -0.1794  0.0519 -0.1614
  159SAPE   H3R17743   6.793   4.340   7.009  0.7400 -0.2513  0.3788
  159SAPE   H3S17744   6.681   4.435   7.093 -0.9836  0.4041 -3.0628
  159SAPE   C2417745   6.884   4.429   7.188  0.1874  0.1932  0.0527
  159SAPE   H4R17746   6.975   4.393   7.135  0.4865  0.9975  0.0095
  159SAPE   H4S17747   6.850   4.342   7.248  3.0919 -2.0424 -1.2446
  159SAPE   C2517748   6.893   4.546   7.276  0.3370  0.3001  0.5827
  159SAPE   H5R17749   6.822   4.537   7.359 -0.0337 -0.0874  0.2289
  159SAPE   C2617750   6.992   4.643   7.274  0.3522 -0.5600 -1.0367
  159SAPE   H6R17751   6.995   4.721   7.352 -0.6771  0.8847 -2.3716
  159SAPE   C2717752   7.106   4.663   7.180 -0.5921  0.1319 -0.2234
  159SAPE   H7R17753   7.104   4.584   7.102 -0.2083 -0.1698  0.0623
  159SAPE   H7S17754   7.202   4.639   7.231  0.3085  0.8727 -1.5218
  159SAPE   C2817755   7.103   4.799   7.116  0.0217  0.0229  0.8807
  159SAPE   H8R17756   7.035   4.816   7.031  1.9708  1.3608 -0.4968
  159SAPE   C2917757   7.177   4.905   7.152  0.0681 -0.2182  0.1318
  159SAPE   H9R17758   7.166   5.008   7.115  3.4874 -0.5516 -2.2446
  159SAPE  C21017759   7.274   4.900   7.270 -0.5730  0.6440  0.0109
  159SAPE  H10R17760   7.319   4.801   7.295 -2.5351 -0.1735  0.5210
  159SAPE  H10S17761   7.224   4.939   7.361 -0.5275  2.2251 -0.6173
  159SAPE  C21117762   7.385   4.992   7.240 -0.1119  0.7976 -0.1398
  159SAPE  H11R17763   7.418   4.999   7.135 -2.3313  1.6467 -0.8608
  159SAPE  C21217764   7.469   5.048   7.332  0.3239 -0.0963 -0.0896
  159SAPE  H12R17765   7.556   5.095   7.283 -0.3414  1.8476  0.5255
  159SAPE  C21317766   7.461   5.043   7.480  0.6273  0.1347  0.2771
  159SAPE  H13R17767   7.522   4.963   7.528  0.8749 -0.3057 -0.7395
  159SAPE  H13S17768   7.357   5.011   7.503  0.4858  1.2250  1.2329
  159SAPE  C21417769   7.498   5.164   7.559  0.2920 -0.5861 -0.7888
  159SAPE  H14R17770   7.425   5.246   7.566 -0.8036 -1.6608  1.2372
  159SAPE  C21517771   7.617   5.191   7.622  0.2082 -0.0545  0.2378
  159SAPE  H15R17772   7.624   5.278   7.689 -0.9218  0.0575  0.2380
  159SAPE  C21617773   7.739   5.099   7.615  0.1490  0.3951  0.0251
  159SAPE  H16R17774   7.825   5.157   7.574 -0.9024  2.3924  0.4873
  159SAPE  H16S17775   7.719   5.012   7.549  0.1203  0.0547  0.4768
  159SAPE  C21717776   7.776   5.041   7.755 -0.2161  0.2175  0.4708
  159SAPE  H17R17777   7.857   4.967   7.738  1.0500  1.5810  0.2620
  159SAPE  H17S17778   7.692   4.982   7.797 -0.3873 -0.4991 -0.8417
  159SAPE  C21817779   7.833   5.149   7.853  0.6994 -0.2621  0.2743
  159SAPE  H18R17780   7.782   5.247   7.857  1.2990  0.0239  1.0877
  159SAPE  H18S17781   7.933   5.174   7.811 -0.0914  1.6796 -0.5471
  159SAPE  C21917782   7.846   5.100   7.992 -0.4017  0.2325 -0.3143
  159SAPE  H19R17783   7.892   4.999   7.983 -2.3328 -0.9669  1.9910
  159SAPE  H19S17784   7.743   5.077   8.028 -0.9707  1.3468 -1.1724
  159SAPE  C22017785   7.917   5.191   8.094 -1.0962 -0.1437 -0.1869
  159SAPE  H20R17786   8.027   5.174   8.097 -1.0043  0.2371 -1.0985
  159SAPE  H20S17787   7.876   5.154   8.191  0.3594  1.0720  0.9418
  159SAPE  H20T17788   7.907   5.302   8.085 -2.1746 -0.1954  0.2126
  159SAPE   C3317789   7.456   5.112   6.812 -0.9934 -0.0581 -0.0027
  159SAPE   H3X17790   7.436   5.175   6.723 -3.0926 -0.4040  0.1709
  159SAPE   H3Y17791   7.547   5.051   6.797 -0.0777  1.8194 -2.9417
  159SAPE   C3417792   7.478   5.208   6.926  0.2368 -0.3596  0.3610
  159SAPE   H4X17793   7.502   5.157   7.022  1.5110  0.3410  0.4402
  159SAPE   H4Y17794   7.380   5.258   6.938  1.0605  1.1440  1.0993
  159SAPE   C3517795   7.589   5.311   6.890  1.0522  0.6389  0.2631
  159SAPE   H5X17796   7.556   5.358   6.794  0.2623 -0.0348  0.1907
  159SAPE   H5Y17797   7.685   5.256   6.879  0.5451 -0.5288  1.4075
  159SAPE   C3617798   7.601   5.418   6.997 -0.2141 -0.1197  0.2575
  159SAPE   H6X17799   7.511   5.478   7.019  0.3827  0.3781  1.4495
  159SAPE   H6Y17800   7.664   5.498   6.953 -2.2932  1.8673  0.7292
  159SAPE   C3717801   7.679   5.363   7.117  0.2765  0.0977 -0.1407
  159SAPE   H7X17802   7.770   5.307   7.087  0.8158 -0.4035  2.2148
  159SAPE   H7Y17803   7.610   5.290   7.164 -1.2490  0.9948 -0.9246
  159SAPE   C3817804   7.720   5.473   7.213 -0.3036  0.9395  1.0310
  159SAPE   H8X17805   7.643   5.550   7.238  0.9273  3.4302 -2.2158
  159SAPE   H8Y17806   7.807   5.525   7.168 -0.5373  0.3710 -0.1129
  159SAPE   C3917807   7.775   5.416   7.349 -0.6330 -0.3949 -0.4717
  159SAPE   H9X17808   7.852   5.338   7.331  0.2761 -0.4387  2.8350
  159SAPE   H9Y17809   7.688   5.377   7.406 -0.1937 -1.5393 -0.5646
  159SAPE  C31017810   7.836   5.535   7.424  0.6371  0.6379 -0.2749
  159SAPE  H10X17811   7.761   5.616   7.432 -0.6328 -0.5122 -0.2258
  159SAPE  H10Y17812   7.929   5.568   7.372  1.0163 -0.0428 -0.0375
  159SAPE  C31117813   7.864   5.489   7.566  0.3294  0.1906  0.5125
  159SAPE  H11X17814   7.932   5.401   7.563  0.1131  0.0440 -0.7680
  159SAPE  H11Y17815   7.768   5.458   7.613  1.5315 -0.9650  2.3419
  159SAPE  C31217816   7.915   5.605   7.656  0.0677 -1.4002  0.1817
  159SAPE  H12X17817   7.847   5.692   7.642 -0.4896 -1.7276  0.7805
  159SAPE  H12Y17818   8.010   5.642   7.614 -1.0225  1.5680  0.0642
  159SAPE  C31317819   7.931   5.557   7.796  0.5353 -0.1279  0.5421
  159SAPE  H13X17820   8.002   5.471   7.799  2.4116  1.0962 -2.9109
  159SAPE  H13Y17821   7.838   5.506   7.828 -1.5454  2.5247 -0.9072
  159SAPE  C31417822   7.983   5.656   7.894  0.2823  0.0640 -0.1271
  159SAPE  H14X17823   7.935   5.755   7.874 -0.2048 -0.0060  0.6560
  159SAPE  H14Y17824   8.093   5.668   7.910  0.3124  1.2955 -1.1300
  159SAPE  C31517825   7.934   5.620   8.039  0.1037  0.0858  0.7934
  159SAPE  H15X17826   7.983   5.526   8.071  1.0766 -0.0254 -0.8579
  159SAPE  H15Y17827   7.830   5.583   8.036 -0.3484  1.2959 -2.3182
  159SAPE  C31617828   7.957   5.731   8.145 -0.3396  0.3461  0.1180
  159SAPE  H16X17829   8.064   5.750   8.168 -0.6990  2.1106  0.4599
  159SAPE  H16Y17830   7.918   5.686   8.239 -0.4475  0.0893 -0.0445
  159SAPE  C31717831   7.885   5.868   8.107 -0.4128 -0.1002  0.1928
  159SAPE  H17X17832   7.778   5.853   8.082 -0.1547 -1.0996 -0.3832
  159SAPE  H17Y17833   7.935   5.913   8.018  1.8511 -0.0628  1.4133
  159SAPE  C31817834   7.895   5.973   8.219 -0.3209  0.0443  0.6272
  159SAPE  H18X17835   7.862   6.071   8.179 -0.5245  0.4935  1.8397
  159SAPE  H18Y17836   8.002   5.983   8.250  0.1272 -3.0174  0.3136
  159SAPE  H18Z17837   7.836   5.941   8.307 -0.4754 -2.5121 -0.3170
  160SAPE     N17838   1.532   3.724   5.965 -0.0165  0.5578  0.2835
  160SAPE   HN117839   1.523   3.688   5.868  0.0115  0.8247  0.1816
  160SAPE   HN217840   1.436   3.743   6.001  0.3138  2.1206  0.4284
  160SAPE   HN317841   1.586   3.812   5.960 -0.3354  0.7092 -1.0890
  160SAPE   C1217842   1.606   3.623   6.049 -0.4556  0.0254 -0.1502
  160SAPE  H12A17843   1.684   3.678   6.105 -0.2970  0.5992 -0.9138
  160SAPE  H12B17844   1.661   3.554   5.982  1.1706  3.3146 -2.5271
  160SAPE   C1117845   1.509   3.557   6.152 -0.3492  0.5506  0.4747
  160SAPE  H11A17846   1.576   3.484   6.203  0.5400  0.2162 -1.0907
  160SAPE  H11B17847   1.436   3.496   6.094  1.5713  0.0680 -1.5829
  160SAPE     P17848   1.406   3.589   6.384 -0.4821  0.2717 -0.0159
  160SAPE   O1317849   1.297   3.672   6.440  0.0440 -0.7245 -0.3788
  160SAPE   O1417850   1.388   3.442   6.391 -0.4205  0.1070  0.4759
  160SAPE   O1217851   1.436   3.642   6.236 -0.3626 -0.5688 -0.7771
  160SAPE   O1117852   1.543   3.624   6.455 -0.6520 -0.2490 -0.2320
  160SAPE    C117853   1.612   3.748   6.431  0.1151  0.3518  0.2173
  160SAPE    HA17854   1.718   3.720   6.416 -0.3396 -1.8759  0.7822
  160SAPE    HB17855   1.576   3.802   6.340 -0.8008 -0.4037  0.1076
  160SAPE    C217856   1.623   3.837   6.565 -0.1680 -0.0357 -0.8311
  160SAPE    HS17857   1.729   3.869   6.563 -0.7865  2.1449 -0.8704
  160SAPE   O2117858   1.595   3.755   6.677 -0.3027 -0.0986  0.1114
  160SAPE   C2117859   1.668   3.643   6.698  1.0380 -0.3617 -0.0835
  160SAPE   O2217860   1.760   3.599   6.630  0.5992 -0.0577  0.3925
  160SAPE   C2217861   1.602   3.573   6.817 -1.0171 -0.7042 -0.9661
  160SAPE   H2R17862   1.628   3.635   6.905  0.8738  1.3692 -2.8419
  160SAPE   H2S17863   1.492   3.566   6.813 -1.0905 -0.2810  0.0649
  160SAPE    C317864   1.532   3.964   6.567 -0.2068 -0.3065  0.5968
  160SAPE    HX17865   1.425   3.934   6.571 -0.1131 -1.0474 -1.1975
  160SAPE    HY17866   1.561   4.009   6.470  2.1853 -0.1043  1.3479
  160SAPE   O3117867   1.563   4.047   6.677  0.2482  0.1907 -0.8434
  160SAPE   C3117868   1.544   4.182   6.662  0.2038  0.0196 -0.9304
  160SAPE   O3217869   1.505   4.237   6.562 -0.0063 -0.4938  0.2124
  160SAPE   C3217870   1.588   4.246   6.797  0.6607 -0.8810  0.3279
  160SAPE   H2X17871   1.696   4.273   6.795  0.7679 -1.2342  1.0442
  160SAPE   H2Y17872   1.577   4.175   6.882  0.7651 -2.3553 -0.8446
  160SAPE   C2317873   1.668   3.433   6.834  0.1957 -0.3633  0.2197
  160SAPE   H3R17874   1.778   3.438   6.846  0.4734  0.6204 -2.2194
  160SAPE   H3S17875   1.644   3.367   6.747  2.0787 -0.1884 -0.4711
  160SAPE   C2417876   1.593   3.360   6.950  0.3300  0.1349  1.0354
  160SAPE   H4R17877   1.619   3.253   6.938  1.2734  0.6765 -3.2477
  160SAPE   H4S17878   1.484   3.370   6.931  0.6378  0.7067 -0.6197
  160SAPE   C2517879   1.631   3.419   7.081 -0.3524 -0.0860 -0.3806
  160SAPE   H5R17880   1.736   3.392   7.099 -0.4932 -2.6099 -2.7261
  160SAPE   C2617881   1.566   3.499   7.167 -0.4044 -1.2165  1.0341
  160SAPE   H6R17882   1.622   3.520   7.260  1.7286  0.4262 -0.5198
  160SAPE   C2717883   1.423   3.551   7.156 -0.6341  0.3249 -0.0213
  160SAPE   H7R17884   1.351   3.479   7.200 -1.3403  0.9851 -0.0684
  160SAPE   H7S17885   1.389   3.558   7.051  2.3521  1.4731 -1.0420
  160SAPE   C2817886   1.407   3.685   7.220  0.3424  0.4886  1.1667
  160SAPE   H8R17887   1.381   3.767   7.151 -2.7158  0.2090  1.8386
  160SAPE   C2917888   1.396   3.710   7.354 -0.0678  0.9263  0.7902
  160SAPE   H9R17889   1.370   3.813   7.384 -1.8421  0.4275  1.1241
  160SAPE  C21017890   1.409   3.605   7.469 -0.3724 -0.5618  0.2839
  160SAPE  H10R17891   1.417   3.501   7.431 -0.7666 -0.3351 -0.4143
  160SAPE  H10S17892   1.314   3.602   7.527  0.3976 -1.5867  1.5765
  160SAPE  C21117893   1.532   3.640   7.551 -0.1934  0.2018  0.4560
  160SAPE  H11R17894   1.622   3.620   7.491 -1.3426 -3.3836 -0.3134
  160SAPE  C21217895   1.537   3.689   7.681  0.5121 -0.7156  0.1464
  160SAPE  H12R17896   1.633   3.728   7.716  0.6955  0.2227 -1.3294
  160SAPE  C21317897   1.415   3.722   7.768  0.4398 -0.5606  0.2767
  160SAPE  H13R17898   1.323   3.693   7.712 -0.1242  1.0356  0.3402
  160SAPE  H13S17899   1.409   3.832   7.779 -1.0944 -0.2097 -2.7283
  160SAPE  C21417900   1.414   3.664   7.904 -0.6685  0.3826 -1.7082
  160SAPE  H14R17901   1.492   3.588   7.924 -1.3078 -0.2217 -1.4756
  160SAPE  C21517902   1.336   3.694   8.007  0.1472 -0.4604  0.3945
  160SAPE  H15R17903   1.347   3.637   8.101 -0.1060 -0.6082  0.3357
  160SAPE  C21617904   1.228   3.804   8.016  0.9761 -0.3996 -0.4766
  160SAPE  H16R17905   1.209   3.851   7.916 -1.2527  0.7778  0.4380
  160SAPE  H16S17906   1.285   3.888   8.061 -1.1934 -0.7237  3.2503
  160SAPE  C21717907   1.099   3.773   8.083  0.0073 -0.5972 -0.1427
  160SAPE  H17R17908   1.050   3.685   8.036 -1.1250  0.1022 -0.2967
  160SAPE  H17S17909   1.025   3.852   8.060 -0.7968 -1.1934  0.3619
  160SAPE  C21817910   1.103   3.754   8.235 -0.0354  0.0429  0.2279
  160SAPE  H18R17911   1.180   3.680   8.265  0.0919  1.2969  3.3381
  160SAPE  H18S17912   1.004   3.707   8.250 -0.0111 -1.0244 -2.3313
  160SAPE  C21917913   1.123   3.889   8.306  0.3451 -0.2322 -0.5244
  160SAPE  H19R17914   1.061   3.968   8.259  0.7328 -1.1233 -2.6601
  160SAPE  H19S17915   1.225   3.919   8.273  0.2311 -1.1971 -1.8332
  160SAPE  C22017916   1.135   3.877   8.457 -0.0431 -0.1150  0.1730
  160SAPE  H20R17917   1.046   3.825   8.498  0.5550 -0.2835  1.2936
  160SAPE  H20S17918   1.138   3.982   8.495  0.9862 -0.4605  1.0773
  160SAPE  H20T17919   1.225   3.820   8.487 -0.6936 -1.1939  0.1058
  160SAPE   C3317920   1.492   4.364   6.837  0.4987 -0.0791  0.3461
  160SAPE   H3X17921   1.385   4.342   6.859  0.8987  0.5861  3.5057
  160SAPE   H3Y17922   1.503   4.440   6.756 -1.1124  0.1643  0.3158
  160SAPE   C3417923   1.534   4.428   6.964 -0.3926 -0.4818 -0.3276
  160SAPE   H4X17924   1.642   4.450   6.947 -0.3714 -0.9791 -0.8491
  160SAPE   H4Y17925   1.527   4.354   7.047 -2.4142 -0.7883 -0.7421
  160SAPE   C3517926   1.462   4.556   7.001 -0.2156  0.1451  0.6597
  160SAPE   H5X17927   1.352   4.538   7.011 -1.0895  3.2573 -1.8361
  160SAPE   H5Y17928   1.464   4.616   6.908 -1.0618 -0.0777  0.4877
  160SAPE   C3617929   1.524   4.641   7.110 -0.1880 -0.2381 -0.4497
  160SAPE   H6X17930   1.481   4.743   7.116  1.9872  0.7370 -0.3518
  160SAPE   H6Y17931   1.632   4.660   7.094 -0.1092 -1.4934 -1.5883
  160SAPE   C3717932   1.505   4.563   7.247  0.3254 -0.1668  0.2023
  160SAPE   H7X17933   1.562   4.468   7.235 -2.2253 -1.8119  0.2051
  160SAPE   H7Y17934   1.395   4.544   7.257  0.1716  1.7399  3.4387
  160SAPE   C3817935   1.547   4.644   7.373  0.6783 -1.0667  0.2624
  160SAPE   H8X17936   1.491   4.739   7.375  1.5933 -0.5271  0.8465
  160SAPE   H8Y17937   1.655   4.669   7.366  0.6714 -0.9835  0.4696
  160SAPE   C3917938   1.508   4.566   7.501  0.7624  0.4905 -0.3113
  160SAPE   H9X17939   1.556   4.466   7.494  0.4344  0.4176 -1.7097
  160SAPE   H9Y17940   1.400   4.566   7.526  0.8787 -1.1061  0.2868
  160SAPE  C31017941   1.569   4.636   7.627  0.1981 -0.1375  0.5040
  160SAPE  H10X17942   1.544   4.744   7.629 -0.2541 -0.2283 -0.1359
  160SAPE  H10Y17943   1.679   4.618   7.620 -0.2254 -2.4811 -1.5704
  160SAPE  C31117944   1.530   4.577   7.760 -0.0659  0.0590  0.6418
  160SAPE  H11X17945   1.576   4.476   7.765  1.8175  0.9029  4.4544
  160SAPE  H11Y17946   1.420   4.565   7.763 -0.3905  1.8853 -0.9767
  160SAPE  C31217947   1.592   4.658   7.875 -0.1663  0.2115 -0.0659
  160SAPE  H12X17948   1.693   4.699   7.855 -0.5181  1.7293  1.0207
  160SAPE  H12Y17949   1.610   4.603   7.970 -2.8707  1.8394  1.5190
  160SAPE  C31317950   1.500   4.764   7.940 -0.4237  0.7361  0.2731
  160SAPE  H13X17951   1.414   4.723   7.996 -0.5908 -1.6792 -1.5766
  160SAPE  H13Y17952   1.458   4.820   7.853 -0.7770  0.3259  0.1801
  160SAPE  C31417953   1.573   4.862   8.037  0.4156  0.2763 -0.3748
  160SAPE  H14X17954   1.629   4.949   7.995 -1.4348  2.3282  1.1390
  160SAPE  H14Y17955   1.647   4.802   8.095 -1.7677 -1.5760  0.6424
  160SAPE  C31517956   1.472   4.927   8.134 -0.2747  0.0471  0.2075
  160SAPE  H15X17957   1.385   4.963   8.075 -0.1329 -0.5409 -0.3607
  160SAPE  H15Y17958   1.527   5.021   8.157  2.1795 -1.0911 -0.5932
  160SAPE  C31617959   1.436   4.858   8.266 -0.2072 -0.0751 -0.2542
  160SAPE  H16X17960   1.531   4.846   8.321 -0.2758  1.4219  0.2356
  160SAPE  H16Y17961   1.392   4.758   8.245  1.3047 -1.6787  3.4380
  160SAPE  C31717962   1.334   4.938   8.355 -0.0886 -0.0019  0.5033
  160SAPE  H17X17963   1.242   4.940   8.294 -0.0930  2.1761  0.5010
  160SAPE  H17Y17964   1.370   5.043   8.356  1.2882 -0.4470  0.4386
  160SAPE  C31817965   1.319   4.893   8.498  0.7588 -0.2529  0.4563
  160SAPE  H18X17966   1.227   4.947   8.527  1.2269  1.8216 -1.7050
  160SAPE  H18Y17967   1.409   4.916   8.559 -0.1616  0.1421  1.6922
  160SAPE  H18Z17968   1.296   4.784   8.507 -1.3363 -0.0228 -1.2594
  161SOPE     N17969   6.253   5.424  10.742 -0.5221  0.6420 -1.0533
  161SOPE   HN117970   6.354   5.413  10.762 -0.8331 -0.0950  0.2477
  161SOPE   HN217971   6.212   5.491  10.811 -0.3495  0.0826 -0.3965
  161SOPE   HN317972   6.207   5.331  10.750  0.0177  0.3358 -1.4788
  161SOPE   C1217973   6.229   5.493  10.613 -0.2839 -0.2414  0.2323
  161SOPE  H12A17974   6.122   5.485  10.585 -0.1012 -0.4621 -0.4279
  161SOPE  H12B17975   6.292   5.433  10.544 -1.0780  1.1763 -1.8458
  161SOPE   C1117976   6.294   5.633  10.622  0.5519 -0.5094  0.5951
  161SOPE  H11A17977   6.225   5.695  10.683  0.7908 -0.4808  0.8402
  161SOPE  H11B17978   6.286   5.673  10.519  0.5004 -2.6029 -0.2571
  161SOPE     P17979   6.498   5.760  10.710  0.6794 -0.1523  0.2024
  161SOPE   O1317980   6.619   5.723  10.786 -0.4233 -0.5457 -0.5594
  161SOPE   O1417981   6.398   5.835  10.784  0.1446 -0.1294 -0.2094
  161SOPE   O1217982   6.433   5.623  10.661  0.2356 -0.2038  0.3522
  161SOPE   O1117983   6.531   5.830  10.565  0.1246 -0.3464  0.5900
  161SOPE    C117984   6.654   5.805  10.499  0.0095 -1.1800 -0.3609
  161SOPE    HA17985   6.702   5.712  10.536 -0.4797 -1.8850 -1.4303
  161SOPE    HB17986   6.725   5.886  10.528 -0.8323  0.1945 -1.9693
  161SOPE    C217987   6.631   5.800  10.342 -0.6439  0.4356 -0.0020
  161SOPE    HS17988   6.581   5.892  10.305 -2.3885 -1.4262 -2.6609
  161SOPE   O2117989   6.561   5.679  10.314  0.8708  0.2187  0.1943
  161SOPE   C2117990   6.480   5.681  10.206  0.0365  0.7068  0.6691
  161SOPE   O2217991   6.473   5.771  10.129 -0.1906  0.1110 -0.2263
  161SOPE   C2217992   6.405   5.552  10.181 -0.0173  0.1334 -0.2362
  161SOPE   H2R17993   6.307   5.545  10.233 -0.8054 -1.4674 -1.8215
  161SOPE   H2S17994   6.467   5.475  10.232 -0.2419 -0.1452 -0.3805
  161SOPE    C317995   6.774   5.792  10.270  0.7482 -0.2075  0.0945
  161SOPE    HX17996   6.819   5.694  10.299  1.2691 -0.2106 -0.7052
  161SOPE    HY17997   6.854   5.856  10.312  1.5633 -0.2256 -1.3762
  161SOPE   O3117998   6.769   5.784  10.130 -0.6466 -0.3500  0.7532
  161SOPE   C3117999   6.749   5.903  10.074 -0.6465 -0.6865  0.8251
  161SOPE   O3218000   6.750   6.010  10.129  0.0183  0.2679  0.2774
  161SOPE   C3218001   6.746   5.887   9.921  0.2606 -0.0482 -0.4695
  161SOPE   H2X18002   6.840   5.838   9.887  0.6590 -1.2915  2.1709
  161SOPE   H2Y18003   6.728   5.983   9.869 -0.0116 -0.1251 -0.5184
  161SOPE   C2318004   6.392   5.516  10.031  0.0066  0.4357  0.9040
  161SOPE   H3R18005   6.486   5.542   9.979 -0.6201 -2.4259 -1.9544
  161SOPE   H3S18006   6.306   5.565   9.981 -1.1346 -1.0899  1.2756
  161SOPE   C2418007   6.375   5.359  10.013  0.1561  0.0257 -0.2672
  161SOPE   H4R18008   6.456   5.296  10.054 -0.1379 -0.5183 -0.5110
  161SOPE   H4S18009   6.275   5.331  10.052 -0.2906 -1.1953 -2.1440
  161SOPE   C2518010   6.354   5.341   9.864  0.4539  0.2858 -0.2063
  161SOPE   H5R18011   6.320   5.236   9.850  0.8117 -0.0490  1.1920
  161SOPE   H5S18012   6.275   5.411   9.830  0.7526  1.1941  0.9107
  161SOPE   C2618013   6.485   5.357   9.775 -0.0793  0.3491 -0.1412
  161SOPE   H6R18014   6.525   5.461   9.772 -1.4421  0.8913 -0.1278
  161SOPE   H6S18015   6.560   5.296   9.829  0.2549  0.7926 -0.0975
  161SOPE   C2718016   6.468   5.305   9.634  1.4163 -1.0918 -0.4965
  161SOPE   H7R18017   6.573   5.295   9.598  1.1082  0.2801 -1.8612
  161SOPE   H7S18018   6.405   5.214   9.636 -2.9325  1.6143 -1.8512
  161SOPE   C2818019   6.399   5.419   9.552 -0.1664  0.2276  0.4624
  161SOPE   H8R18020   6.327   5.474   9.616  1.0234  3.0841 -0.4495
  161SOPE   H8S18021   6.483   5.489   9.530  0.5601 -0.4134  1.1519
  161SOPE   C2918022   6.329   5.366   9.431 -0.0479  0.0073 -0.4060
  161SOPE   H9118023   6.224   5.394   9.419 -0.6792 -0.9394  2.1723
  161SOPE  C21018024   6.392   5.312   9.326  0.4524 -0.2665  0.0799
  161SOPE  H10118025   6.335   5.268   9.243 -0.3723 -0.2475  0.6262
  161SOPE  C21118026   6.546   5.301   9.312 -0.0738 -0.1481  0.2512
  161SOPE  H11R18027   6.575   5.217   9.245  2.3302  1.3134 -0.6443
  161SOPE  H11S18028   6.589   5.264   9.408  3.0532  0.6665 -0.7360
  161SOPE  C21218029   6.611   5.434   9.267 -0.4411  0.3077  0.0546
  161SOPE  H12R18030   6.574   5.523   9.323 -0.4927  0.8904 -0.8848
  161SOPE  H12S18031   6.583   5.460   9.163  1.3708 -1.4423 -0.9349
  161SOPE  C21318032   6.761   5.444   9.291  0.4365 -0.3988  0.1609
  161SOPE  H13R18033   6.808   5.533   9.246  2.4869 -1.7890 -0.6058
  161SOPE  H13S18034   6.817   5.363   9.239  1.7065  0.0595  0.7694
  161SOPE  C21418035   6.789   5.452   9.439 -0.0315  0.0720 -0.5785
  161SOPE  H14R18036   6.724   5.378   9.490  1.8201 -0.0404  1.7781
  161SOPE  H14S18037   6.756   5.554   9.469  0.9875  1.5788 -4.0444
  161SOPE  C21518038   6.945   5.440   9.461  0.2435  0.3557 -0.8537
  161SOPE  H15R18039   6.983   5.508   9.383 -1.9659  3.6273  0.6772
  161SOPE  H15S18040   6.983   5.336   9.448 -1.1152 -0.2288 -0.4391
  161SOPE  C21618041   6.970   5.508   9.595  0.4528  0.7036  0.1413
  161SOPE  H16R18042   6.929   5.611   9.587 -0.9629  0.1394 -0.2361
  161SOPE  H16S18043   7.080   5.503   9.610  0.4011 -1.3573  0.1799
  161SOPE  C21718044   6.900   5.434   9.714  0.4042  0.2028 -0.1831
  161SOPE  H17R18045   6.934   5.329   9.725 -2.2444 -0.6225  0.9692
  161SOPE  H17S18046   6.790   5.425   9.717  0.4413 -0.6209 -0.7242
  161SOPE  C21818047   6.956   5.505   9.836  0.2319  0.0730  0.4879
  161SOPE  H18R18048   6.942   5.436   9.922 -0.5877 -0.1262  0.1984
  161SOPE  H18S18049   6.893   5.593   9.861  0.2844 -0.6244  3.4925
  161SOPE  H18T18050   7.063   5.532   9.823 -0.4355  1.5510 -3.2551
  161SOPE   C3318051   6.632   5.809   9.862  0.7785  0.0474  0.0821
  161SOPE   H3X18052   6.534   5.862   9.871  0.5536 -0.3452 -0.0258
  161SOPE   H3Y18053   6.625   5.725   9.934  2.9739  0.5292  0.9392
  161SOPE   C3418054   6.662   5.751   9.715  0.5179 -0.2522  0.3655
  161SOPE   H4X18055   6.570   5.698   9.682  1.1904 -1.1823 -0.0603
  161SOPE   H4Y18056   6.752   5.687   9.725  1.6004  1.4311  2.1383
  161SOPE   C3518057   6.694   5.864   9.614  0.2701  0.3252  0.4916
  161SOPE   H5X18058   6.740   5.813   9.525  0.7690  1.3206  0.1616
  161SOPE   H5Y18059   6.759   5.947   9.650 -1.4822  1.3819  1.3135
  161SOPE   C3618060   6.551   5.918   9.567  0.3892  0.5966 -0.0692
  161SOPE   H6X18061   6.508   5.986   9.644  0.3504 -1.7576  2.1197
  161SOPE   H6Y18062   6.470   5.843   9.574  0.8367  0.2247  1.9925
  161SOPE   C3718063   6.549   5.987   9.432 -0.2400 -0.7593  0.3784
  161SOPE   H7X18064   6.643   6.046   9.428  0.8802 -2.4896 -0.2597
  161SOPE   H7Y18065   6.473   6.068   9.425 -0.2921 -0.8978 -1.1124
  161SOPE   C3818066   6.527   5.884   9.313 -0.0660  0.0021 -0.3945
  161SOPE   H8X18067   6.600   5.800   9.320  1.0640  0.9688 -0.1708
  161SOPE   H8Y18068   6.542   5.941   9.219  1.9118 -0.0941 -0.1967
  161SOPE   C3918069   6.380   5.838   9.319 -0.3238  0.2948 -0.3868
  161SOPE   H9X18070   6.326   5.910   9.385  1.1590  1.1400 -0.0386
  161SOPE   H9Y18071   6.376   5.744   9.377 -1.6893  1.5241  1.6620
  161SOPE  C31018072   6.319   5.827   9.186  0.4568 -0.3481  0.4479
  161SOPE  H10X18073   6.328   5.927   9.139  0.1742 -0.5052  0.0516
  161SOPE  H10Y18074   6.210   5.810   9.195 -0.1995  0.0017 -4.1432
  161SOPE  C31118075   6.382   5.713   9.100 -0.3084  1.1146  0.4572
  161SOPE  H11X18076   6.378   5.622   9.163  0.9033  0.8991  0.2506
  161SOPE  H11Y18077   6.488   5.722   9.069 -0.7481  0.5019 -1.3082
  161SOPE  C31218078   6.321   5.691   8.962 -0.0822 -0.2554 -0.2378
  161SOPE  H12X18079   6.321   5.783   8.900  0.0386  0.3762  0.6787
  161SOPE  H12Y18080   6.213   5.666   8.968  0.1071 -1.3368 -0.9951
  161SOPE  C31318081   6.382   5.584   8.870 -0.2705  0.3033  0.2486
  161SOPE  H13X18082   6.473   5.630   8.826 -1.2835  3.3126  1.0385
  161SOPE  H13Y18083   6.302   5.572   8.794 -1.1213 -0.3405  1.2246
  161SOPE  C31418084   6.411   5.448   8.945  0.1787 -0.4791  0.5311
  161SOPE  H14X18085   6.388   5.468   9.052 -0.6033  1.4859  0.0408
  161SOPE  H14Y18086   6.516   5.414   8.930 -0.0249 -0.3646 -1.4239
  161SOPE  C31518087   6.341   5.320   8.897  0.0184 -0.0423  0.1166
  161SOPE  H15X18088   6.370   5.234   8.960 -0.8543 -1.0147 -0.7697
  161SOPE  H15Y18089   6.388   5.309   8.797 -0.3377 -2.1042  0.1411
  161SOPE  C31618090   6.192   5.326   8.878 -0.9379  0.0783  0.9331
  161SOPE  H16X18091   6.143   5.232   8.846 -0.3628 -0.5233  1.7625
  161SOPE  H16Y18092   6.171   5.401   8.799 -0.0062 -0.8044 -0.1819
  161SOPE  C31718093   6.118   5.362   9.004  0.0980  0.5796  0.0737
  161SOPE  H17X18094   6.128   5.463   9.049  0.3626  1.6116 -2.1652
  161SOPE  H17Y18095   6.162   5.290   9.076 -0.2214  0.9016  0.5986
  161SOPE  C31818096   5.960   5.342   9.000 -0.2968 -1.4250  0.0707
  161SOPE  H18X18097   5.923   5.392   9.092 -0.1342 -1.5962  0.2335
  161SOPE  H18Y18098   5.945   5.232   8.989  3.3943 -1.9114 -1.3968
  161SOPE  H18Z18099   5.906   5.401   8.924 -1.2273 -1.5242  0.6414
  162SOPE     N18100   4.154   3.692  11.001  0.0984  0.2293 -0.9593
  162SOPE   HN118101   4.064   3.736  10.972  1.4395  1.9139 -2.8349
  162SOPE   HN218102   4.217   3.769  11.032 -0.6695 -0.5186  2.9484
  162SOPE   HN318103   4.190   3.650  10.913  0.7390  1.4594 -1.3038
  162SOPE   C1218104   4.138   3.576  11.097 -0.8970 -0.2853  0.0334
  162SOPE  H12A18105   4.045   3.527  11.059 -1.3746  1.2791 -0.9310
  162SOPE  H12B18106   4.114   3.610  11.200 -1.0141  2.2197 -0.7500
  162SOPE   C1118107   4.263   3.485  11.100 -0.1273 -0.2914 -0.6127
  162SOPE  H11A18108   4.286   3.433  11.004  0.4743  0.7470 -1.0564
  162SOPE  H11B18109   4.233   3.395  11.158 -2.4956  0.3484 -0.7517
  162SOPE     P18110   4.530   3.536  11.125 -0.3673 -0.0861  0.2345
  162SOPE   O1318111   4.582   3.405  11.161  0.0246 -0.1938 -0.4694
  162SOPE   O1418112   4.603   3.642  11.196  0.4113  0.7272 -0.3508
  162SOPE   O1218113   4.377   3.551  11.157  0.2397  0.0856 -0.3512
  162SOPE   O1118114   4.552   3.547  10.970  0.6036 -0.1637 -0.8750
  162SOPE    C118115   4.521   3.680  10.914  0.2357 -0.1014 -0.5891
  162SOPE    HA18116   4.591   3.758  10.952  1.6950 -1.3608 -0.5886
  162SOPE    HB18117   4.420   3.712  10.947  0.8281  1.7803 -0.4870
  162SOPE    C218118   4.521   3.682  10.758 -0.1656  0.0167  0.4944
  162SOPE    HS18119   4.461   3.768  10.723 -0.2121 -0.5226 -0.8106
  162SOPE   O2118120   4.474   3.553  10.708  0.5903 -0.1528  0.1656
  162SOPE   C2118121   4.335   3.537  10.717  0.0543 -0.0938 -0.7950
  162SOPE   O2218122   4.264   3.627  10.759 -0.1053  0.0559  0.0031
  162SOPE   C2218123   4.304   3.394  10.679  0.1737 -0.5213  0.6070
  162SOPE   H2R18124   4.267   3.343  10.771  1.4135  0.2256  1.5624
  162SOPE   H2S18125   4.399   3.349  10.642  0.1578 -0.0139 -0.0626
  162SOPE    C318126   4.663   3.692  10.709  0.4102  0.6312  0.3260
  162SOPE    HX18127   4.717   3.605  10.752  0.5974  0.8484  0.5248
  162SOPE    HY18128   4.718   3.770  10.765  1.0177  1.0939 -0.8816
  162SOPE   O3118129   4.664   3.710  10.565  0.4126  0.3247  0.1374
  162SOPE   C3118130   4.670   3.607  10.487 -0.1252  0.5817 -0.3596
  162SOPE   O3218131   4.685   3.490  10.524  0.4762 -0.9352 -0.0055
  162SOPE   C3218132   4.664   3.659  10.342 -0.7078 -0.2957  0.4970
  162SOPE   H2X18133   4.765   3.695  10.313  0.0529 -1.2641  1.8333
  162SOPE   H2Y18134   4.594   3.744  10.342 -0.9500 -0.3115  4.2430
  162SOPE   C2318135   4.194   3.400  10.565 -0.4453  1.1059 -0.5034
  162SOPE   H3R18136   4.111   3.471  10.587  0.7500  1.9346  1.6010
  162SOPE   H3S18137   4.151   3.298  10.576 -0.7573  1.4468  2.1625
  162SOPE   C2418138   4.249   3.397  10.422  0.1629 -0.2763 -0.0745
  162SOPE   H4R18139   4.288   3.501  10.418 -0.6126  0.0548  0.7561
  162SOPE   H4S18140   4.336   3.327  10.421  0.6757  0.3048  1.3362
  162SOPE   C2518141   4.147   3.367  10.315  1.0630  0.7850 -0.1511
  162SOPE   H5R18142   4.122   3.259  10.313  2.4844  0.4136 -3.1449
  162SOPE   H5S18143   4.060   3.436  10.329 -1.2709 -2.0119 -0.0305
  162SOPE   C2618144   4.196   3.388  10.166 -1.1524 -0.1054  0.4080
  162SOPE   H6R18145   4.109   3.424  10.107 -0.6667  1.4799  0.6009
  162SOPE   H6S18146   4.269   3.472  10.172  1.5710 -2.3371  0.4631
  162SOPE   C2718147   4.253   3.258  10.105  0.7139  0.0690 -0.0598
  162SOPE   H7R18148   4.315   3.284  10.018 -1.0283  2.1024 -0.7720
  162SOPE   H7S18149   4.317   3.215  10.185  0.3954  0.5854  0.4814
  162SOPE   C2818150   4.136   3.170  10.064  0.3616 -0.0077 -0.1003
  162SOPE   H8R18151   4.059   3.158  10.142 -1.3018 -1.8160 -1.9139
  162SOPE   H8S18152   4.088   3.223   9.979  2.5119  1.0518 -0.7444
  162SOPE   C2918153   4.173   3.028  10.025 -0.6101 -0.2562 -0.3143
  162SOPE   H9118154   4.201   2.967  10.112 -0.6038 -1.3124 -1.0406
  162SOPE  C21018155   4.159   2.972   9.906  0.1647 -1.3521 -0.0955
  162SOPE  H10118156   4.191   2.871   9.880  1.6053 -0.9797  0.1439
  162SOPE  C21118157   4.117   3.044   9.775 -0.2114 -0.1241 -0.0437
  162SOPE  H11R18158   4.148   3.150   9.766  2.6717 -0.7796  1.0687
  162SOPE  H11S18159   4.007   3.041   9.759 -0.1557  0.2315 -0.5420
  162SOPE  C21218160   4.195   2.971   9.658  0.4771 -0.3614  0.5833
  162SOPE  H12R18161   4.161   2.865   9.662 -0.6053 -0.0394  0.1786
  162SOPE  H12S18162   4.304   2.980   9.678  0.9980 -0.4741 -1.8951
  162SOPE  C21318163   4.161   3.026   9.515 -0.8503  0.2371 -0.1228
  162SOPE  H13R18164   4.171   3.136   9.508  2.2933 -0.0668 -2.6409
  162SOPE  H13S18165   4.060   2.985   9.492 -0.8634 -1.0481  1.9175
  162SOPE  C21418166   4.258   2.961   9.418 -0.9764 -0.5940 -0.4588
  162SOPE  H14R18167   4.244   2.851   9.416  1.2999 -0.9311 -1.8409
  162SOPE  H14S18168   4.358   3.002   9.442 -0.7500  0.8659 -3.3866
  162SOPE  C21518169   4.239   3.012   9.270  0.3559 -0.1693 -0.2665
  162SOPE  H15R18170   4.303   2.963   9.194  2.4704  2.1736 -0.1597
  162SOPE  H15S18171   4.268   3.120   9.266  2.2221 -0.6710 -1.4562
  162SOPE  C21618172   4.100   2.993   9.214  0.2066 -0.0664  0.5681
  162SOPE  H16R18173   4.025   3.026   9.290  0.6085  1.4944  0.3105
  162SOPE  H16S18174   4.088   2.883   9.208  2.4037 -0.2735 -0.8922
  162SOPE  C21718175   4.086   3.067   9.076 -0.1842  0.4855  0.3145
  162SOPE  H17R18176   4.120   3.173   9.086 -3.3972  1.5389  1.3589
  162SOPE  H17S18177   3.976   3.081   9.068  0.1049  4.1453  0.8534
  162SOPE  C21818178   4.139   2.991   8.956 -0.4153  0.5776  0.4185
  162SOPE  H18R18179   4.086   3.026   8.865 -1.8242  1.2796  1.4803
  162SOPE  H18S18180   4.111   2.884   8.969 -0.9551  0.5753 -0.6962
  162SOPE  H18T18181   4.250   2.999   8.960 -0.3532  1.7845 -2.1607
  162SOPE   C3318182   4.619   3.539  10.249 -0.7015  0.6750 -0.5321
  162SOPE   H3X18183   4.529   3.492  10.295  0.5353 -0.7294  0.5474
  162SOPE   H3Y18184   4.703   3.467  10.250 -1.8283 -0.7223 -1.9738
  162SOPE   C3418185   4.603   3.588  10.107 -0.1742  0.2717 -0.3893
  162SOPE   H4X18186   4.701   3.620  10.068 -0.7842  1.8557 -0.6706
  162SOPE   H4Y18187   4.544   3.681  10.119 -3.8485 -1.8725 -0.1371
  162SOPE   C3518188   4.542   3.489  10.009 -0.5287  0.2409 -0.9471
  162SOPE   H5X18189   4.440   3.456  10.037 -0.0769 -0.4685 -0.0524
  162SOPE   H5Y18190   4.608   3.400  10.008  0.6005  1.0531 -0.7872
  162SOPE   C3618191   4.532   3.550   9.864 -0.5567  0.3222 -1.0041
  162SOPE   H6X18192   4.628   3.603   9.844  0.6952 -0.2279  2.7204
  162SOPE   H6Y18193   4.444   3.616   9.848 -0.9669 -0.0027 -0.1757
  162SOPE   C3718194   4.498   3.439   9.761 -0.1151  0.2032  0.2561
  162SOPE   H7X18195   4.396   3.394   9.765 -0.0623  0.1069  0.5393
  162SOPE   H7Y18196   4.569   3.354   9.768  0.7784  0.9586  0.5876
  162SOPE   C3818197   4.513   3.500   9.621  0.2399  0.4104 -0.1078
  162SOPE   H8X18198   4.623   3.515   9.618  0.2596  0.3073  0.0549
  162SOPE   H8Y18199   4.456   3.593   9.601 -0.4677  0.0214  0.0764
  162SOPE   C3918200   4.480   3.400   9.505 -0.3257 -0.2604 -0.0725
  162SOPE   H9X18201   4.390   3.339   9.531  0.2310 -1.2366 -0.4089
  162SOPE   H9Y18202   4.566   3.330   9.499 -0.1514 -0.1154  0.6262
  162SOPE  C31018203   4.444   3.475   9.371 -0.1969 -0.0277 -0.8540
  162SOPE  H10X18204   4.532   3.542   9.362 -0.9698  1.4841  1.7935
  162SOPE  H10Y18205   4.346   3.526   9.376 -0.5490 -0.8373  2.2140
  162SOPE  C31118206   4.442   3.377   9.265 -0.0399 -0.0687  0.4701
  162SOPE  H11X18207   4.376   3.293   9.294  0.6764 -1.2019 -1.0809
  162SOPE  H11Y18208   4.538   3.339   9.224 -1.0090 -0.1011 -1.9664
  162SOPE  C31218209   4.371   3.429   9.143 -0.1378  0.6702  0.2686
  162SOPE  H12X18210   4.415   3.525   9.109  0.6682 -0.1244 -1.0192
  162SOPE  H12Y18211   4.262   3.441   9.158 -0.1282  1.5879 -0.2711
  162SOPE  C31318212   4.392   3.336   9.028  0.1102 -0.3160  0.0873
  162SOPE  H13X18213   4.360   3.232   9.055 -1.3112  0.3883  1.2572
  162SOPE  H13Y18214   4.496   3.326   8.991  0.1252  0.1308  0.0037
  162SOPE  C31418215   4.311   3.367   8.900 -0.2195 -0.2252 -1.0058
  162SOPE  H14X18216   4.303   3.477   8.889 -0.3686  0.1857  2.2119
  162SOPE  H14Y18217   4.208   3.330   8.921 -0.7209  0.1653 -2.6322
  162SOPE  C31518218   4.369   3.287   8.772 -0.1722 -0.1798 -0.5301
  162SOPE  H15X18219   4.376   3.179   8.797 -0.6892  0.6034  3.7078
  162SOPE  H15Y18220   4.476   3.315   8.762 -0.0736 -0.7077 -1.0486
  162SOPE  C31618221   4.293   3.317   8.642 -0.2125 -0.6414  0.2515
  162SOPE  H16X18222   4.314   3.424   8.625 -1.3420  0.0255  2.6774
  162SOPE  H16Y18223   4.182   3.310   8.647 -0.2707 -0.0565 -0.1016
  162SOPE  C31718224   4.347   3.230   8.527  0.2178  0.1083  0.3730
  162SOPE  H17X18225   4.336   3.125   8.562 -0.8651  0.0131 -0.2171
  162SOPE  H17Y18226   4.457   3.240   8.514  0.4484 -2.2913  0.1138
  162SOPE  C31818227   4.261   3.241   8.397 -0.6738 -0.2289  1.0148
  162SOPE  H18X18228   4.285   3.157   8.329  1.3120  1.2921 -0.3054
  162SOPE  H18Y18229   4.295   3.328   8.337 -0.7566 -1.5971 -1.1054
  162SOPE  H18Z18230   4.153   3.250   8.422 -0.3414  1.5442  2.0116
  163SOPE     N18231   4.658   1.294  11.290  0.6519 -1.0649 -0.1504
  163SOPE   HN118232   4.747   1.341  11.263 -0.6646  2.1939  0.7831
  163SOPE   HN218233   4.674   1.266  11.389  3.0462  0.6278  0.0203
  163SOPE   HN318234   4.650   1.204  11.237 -0.6471 -1.9134  1.3954
  163SOPE   C1218235   4.541   1.390  11.274 -0.4005 -0.4956 -0.7265
  163SOPE  H12A18236   4.573   1.490  11.312 -0.4346 -0.6558 -0.2668
  163SOPE  H12B18237   4.466   1.359  11.350 -0.2612 -1.5505 -0.9975
  163SOPE   C1118238   4.484   1.404  11.128  0.0299  0.4216 -0.6367
  163SOPE  H11A18239   4.396   1.472  11.140 -1.7850 -2.0758  1.3064
  163SOPE  H11B18240   4.439   1.305  11.104 -1.8192  0.7458  1.1402
  163SOPE     P18241   4.620   1.594  11.035 -0.0422  0.0741 -0.1028
  163SOPE   O1318242   4.768   1.602  11.015 -0.0689  0.3235 -0.4343
  163SOPE   O1418243   4.570   1.674  11.147  0.4782 -0.0909 -0.4753
  163SOPE   O1218244   4.580   1.441  11.038 -0.7496  0.1277  0.1421
  163SOPE   O1118245   4.559   1.648  10.896 -0.2432  0.4792  0.0810
  163SOPE    C118246   4.558   1.577  10.774  0.3655  0.8762  0.0597
  163SOPE    HA18247   4.634   1.496  10.774  1.0342  1.4919  0.2822
  163SOPE    HB18248   4.582   1.646  10.690  2.0627  0.4538  0.1748
  163SOPE    C218249   4.417   1.508  10.741  0.4700 -0.0195  0.0750
  163SOPE    HS18250   4.420   1.407  10.787  0.1926 -0.6524 -1.2713
  163SOPE   O2118251   4.396   1.503  10.593  0.1378  0.5594  0.1024
  163SOPE   C2118252   4.390   1.387  10.541 -0.1529  0.6216 -0.0983
  163SOPE   O2218253   4.424   1.278  10.592 -0.8447  0.1701  0.0404
  163SOPE   C2218254   4.332   1.386  10.402  0.0488  0.0235 -0.8880
  163SOPE   H2R18255   4.398   1.449  10.339  0.4978 -0.4443 -0.8827
  163SOPE   H2S18256   4.232   1.436  10.404  0.5660  1.5532  5.3417
  163SOPE    C318257   4.302   1.595  10.801 -0.0439 -0.4037 -0.1512
  163SOPE    HX18258   4.333   1.702  10.805  0.6987 -0.6486  1.8800
  163SOPE    HY18259   4.280   1.564  10.905 -4.0437  0.5189 -0.5725
  163SOPE   O3118260   4.182   1.572  10.721  0.4773  0.1270 -0.6327
  163SOPE   C3118261   4.138   1.668  10.649 -0.1873 -0.6530 -0.5626
  163SOPE   O3218262   4.191   1.774  10.634 -0.3632 -0.3241  0.7625
  163SOPE   C3218263   4.008   1.626  10.584 -0.4116  1.0202 -0.2368
  163SOPE   H2X18264   3.950   1.582  10.667  1.7979 -0.0205  0.8533
  163SOPE   H2Y18265   4.028   1.541  10.515  0.9868  1.0844  0.0499
  163SOPE   C2318266   4.316   1.240  10.352  0.1771  0.4077 -0.3613
  163SOPE   H3R18267   4.269   1.181  10.433  0.5806 -1.4169 -1.4123
  163SOPE   H3S18268   4.419   1.198  10.345  0.0218  0.2032 -1.4749
  163SOPE   C2418269   4.233   1.234  10.220 -0.0912  0.2817  0.5958
  163SOPE   H4R18270   4.280   1.314  10.159 -1.4315  0.7168  0.0962
  163SOPE   H4S18271   4.247   1.138  10.167  4.5049  1.2705 -0.4314
  163SOPE   C2518272   4.086   1.257  10.255  0.6292  0.5462  0.9032
  163SOPE   H5R18273   4.053   1.178  10.326  0.8504  1.3464  1.9274
  163SOPE   H5S18274   4.060   1.358  10.292  3.2058  1.9286 -0.7487
  163SOPE   C2618275   3.990   1.229  10.138 -0.0023  0.0864  0.8280
  163SOPE   H6R18276   4.011   1.123  10.113  1.0997  0.7813 -1.4415
  163SOPE   H6S18277   3.887   1.230  10.182  0.1823  3.1233  1.3907
  163SOPE   C2718278   4.004   1.329  10.019  0.1960  0.1295  0.7054
  163SOPE   H7R18279   4.005   1.436  10.049  2.0105  0.0840  0.9374
  163SOPE   H7S18280   4.109   1.314   9.986 -0.8057 -1.5382 -2.0311
  163SOPE   C2818281   3.896   1.315   9.914 -0.2285 -0.0271 -0.2488
  163SOPE   H8R18282   3.798   1.337   9.962 -0.1716 -1.0379  0.3560
  163SOPE   H8S18283   3.906   1.403   9.846  0.2483  0.5659  0.5691
  163SOPE   C2918284   3.910   1.180   9.849  0.0856  0.9633 -0.5031
  163SOPE   H9118285   3.898   1.098   9.922 -1.5901  0.4053 -1.3711
  163SOPE  C21018286   3.956   1.163   9.725 -0.3770  0.3647  0.6911
  163SOPE  H10118287   3.979   1.062   9.688  2.6370  0.0284  3.0826
  163SOPE  C21118288   3.987   1.266   9.618 -0.1884  0.5388  0.2748
  163SOPE  H11R18289   4.095   1.259   9.592 -0.6095 -0.2355 -1.4140
  163SOPE  H11S18290   3.960   1.366   9.657 -0.6317  0.5265  0.0027
  163SOPE  C21218291   3.912   1.252   9.494  0.5294  0.2479 -0.2706
  163SOPE  H12R18292   3.803   1.265   9.515  0.5518  2.1806 -1.0751
  163SOPE  H12S18293   3.917   1.154   9.442 -0.5977  0.6179 -1.1326
  163SOPE  C21318294   3.931   1.363   9.399 -0.6782 -0.6929 -0.2651
  163SOPE  H13R18295   4.039   1.361   9.374 -0.4190 -0.0162  0.7302
  163SOPE  H13S18296   3.910   1.464   9.439 -0.2043  1.1151 -4.1442
  163SOPE  C21418297   3.866   1.348   9.261 -0.0190 -0.5361 -0.6664
  163SOPE  H14R18298   3.923   1.278   9.197  1.0776 -0.9855  0.7473
  163SOPE  H14S18299   3.880   1.452   9.225  1.9538 -1.1289 -1.7254
  163SOPE  C21518300   3.713   1.321   9.266 -0.1999  0.2191  0.2974
  163SOPE  H15R18301   3.674   1.390   9.343 -0.7774  1.2665 -0.8948
  163SOPE  H15S18302   3.686   1.218   9.299 -0.4335 -0.0147 -0.5973
  163SOPE  C21618303   3.640   1.336   9.131  0.7015 -0.3618 -0.1807
  163SOPE  H16R18304   3.535   1.306   9.155  0.9066  0.6975  2.3963
  163SOPE  H16S18305   3.674   1.251   9.068  0.1915 -1.2128  0.6494
  163SOPE  C21718306   3.630   1.471   9.062 -0.4513  0.2780 -1.0268
  163SOPE  H17R18307   3.736   1.501   9.048  0.6604 -1.4893  2.4498
  163SOPE  H17S18308   3.590   1.540   9.139 -0.8194 -1.9128  0.8747
  163SOPE  C21818309   3.547   1.474   8.934 -0.0862  0.3389  0.0895
  163SOPE  H18R18310   3.514   1.578   8.912 -1.5712 -0.2035 -0.3784
  163SOPE  H18S18311   3.453   1.419   8.955 -0.7486  2.3837  3.1784
  163SOPE  H18T18312   3.598   1.428   8.846 -5.0286 -3.5641 -1.1849
  163SOPE   C3318313   3.933   1.746  10.511 -0.1238  0.8164 -0.4999
  163SOPE   H3X18314   3.962   1.837  10.567 -1.4518  0.7763  0.2849
  163SOPE   H3Y18315   3.824   1.734  10.524  0.1469 -2.9462 -0.5996
  163SOPE   C3418316   3.976   1.753  10.371 -0.4412  0.7367  0.3538
  163SOPE   H4X18317   3.978   1.651  10.327  0.8324  1.3084 -1.0320
  163SOPE   H4Y18318   4.078   1.796  10.371  0.6210 -1.5783 -0.6820
  163SOPE   C3518319   3.878   1.828  10.286 -0.4744  0.0382 -0.1413
  163SOPE   H5X18320   3.887   1.935  10.313  1.5074 -0.2139  0.3683
  163SOPE   H5Y18321   3.778   1.787  10.313 -0.2269  1.0306  2.6633
  163SOPE   C3618322   3.909   1.824  10.135 -0.0078  0.1958 -0.1608
  163SOPE   H6X18323   3.896   1.721  10.097  0.9831 -0.1266  0.3468
  163SOPE   H6Y18324   4.015   1.853  10.120 -0.2483  1.7269  0.8340
  163SOPE   C3718325   3.823   1.913  10.044  0.0448  0.2273 -0.6892
  163SOPE   H7X18326   3.850   2.019  10.066 -0.9416  0.3959 -0.2675
  163SOPE   H7Y18327   3.716   1.894  10.068  0.1244  0.5598 -0.0436
  163SOPE   C3818328   3.825   1.882   9.894  1.1738 -0.4980 -0.3963
  163SOPE   H8X18329   3.747   1.935   9.836  1.7828  1.0448  0.1528
  163SOPE   H8Y18330   3.809   1.774   9.872 -1.1680  0.0392 -1.6044
  163SOPE   C3918331   3.965   1.919   9.834 -0.1920 -0.1414  0.3360
  163SOPE   H9X18332   4.046   1.875   9.897  0.1844  0.6576  0.4270
  163SOPE   H9Y18333   3.969   2.030   9.824 -0.0346 -0.0298  1.5589
  163SOPE  C31018334   3.993   1.855   9.695  0.1107  0.4858  0.9962
  163SOPE  H10X18335   3.961   1.749   9.692  1.0556  0.2068  0.1431
  163SOPE  H10Y18336   4.102   1.854   9.676 -0.1846 -0.7179 -0.9469
  163SOPE  C31118337   3.927   1.928   9.577  0.3319 -0.7525  0.0698
  163SOPE  H11X18338   3.960   2.034   9.574  0.6410 -0.7072  2.7149
  163SOPE  H11Y18339   3.816   1.923   9.586  0.2299  0.3151 -0.4495
  163SOPE  C31218340   3.974   1.858   9.450 -0.8631 -0.9842  1.1483
  163SOPE  H12X18341   3.967   1.748   9.460  0.9592 -1.1990  0.3396
  163SOPE  H12Y18342   4.083   1.865   9.433 -1.2432 -1.8463 -2.7064
  163SOPE  C31318343   3.904   1.889   9.321  0.2700 -0.3654 -0.7609
  163SOPE  H13X18344   3.923   1.996   9.295  1.2623 -0.3290  0.0335
  163SOPE  H13Y18345   3.794   1.878   9.334  0.1290  1.2589 -0.3795
  163SOPE  C31418346   3.953   1.794   9.211  0.3631  0.7071 -0.7964
  163SOPE  H14X18347   3.934   1.689   9.241 -1.4559  1.4521  0.9195
  163SOPE  H14Y18348   4.064   1.792   9.209  0.5945 -0.3889  3.3307
  163SOPE  C31518349   3.891   1.836   9.079  0.5398 -0.1584 -0.5629
  163SOPE  H15X18350   3.930   1.938   9.062 -0.6065  0.4155  0.1763
  163SOPE  H15Y18351   3.782   1.847   9.065  0.8140  0.7568 -2.2892
  163SOPE  C31618352   3.930   1.736   8.965 -0.3844  0.0512 -0.6561
  163SOPE  H16X18353   3.882   1.639   8.989 -0.9648  0.4130 -0.3174
  163SOPE  H16Y18354   4.040   1.723   8.950 -0.3298  0.1225 -0.3278
  163SOPE  C31718355   3.880   1.787   8.831 -0.3202 -0.3278  0.1390
  163SOPE  H17X18356   3.939   1.875   8.798 -2.1363  0.3007 -1.6175
  163SOPE  H17Y18357   3.775   1.821   8.839 -0.0930  0.0412  2.2110
  163SOPE  C31818358   3.905   1.678   8.715  1.0377  0.1984  0.4595
  163SOPE  H18X18359   3.869   1.723   8.620 -0.0326  0.6471  1.0682
  163SOPE  H18Y18360   3.839   1.595   8.749 -0.8110  1.4670  0.1570
  163SOPE  H18Z18361   4.010   1.643   8.718  0.4948 -1.5083  0.7403
  164SOPE     N18362   2.128   0.221  11.026  0.4290 -0.7227 -0.4466
  164SOPE   HN118363   2.129   0.267  11.119  0.6376  0.3266 -0.9603
  164SOPE   HN218364   2.214   0.163  11.012  1.7167  0.8452  0.5434
  164SOPE   HN318365   2.125   0.290  10.949  0.5307  1.2059  1.2004
  164SOPE   C1218366   1.998   0.147  11.021 -0.0712 -0.2419  0.0605
  164SOPE  H12A18367   1.990   0.101  11.121  1.2272 -1.3821 -0.3291
  164SOPE  H12B18368   2.017   0.060  10.955 -0.5219 -1.8112  1.9319
  164SOPE   C1118369   1.870   0.227  10.999 -0.2151  0.2583 -0.5101
  164SOPE  H11A18370   1.865   0.297  11.085  0.8230  1.2408 -1.2193
  164SOPE  H11B18371   1.791   0.149  10.995 -1.7060  1.7149 -0.4981
  164SOPE     P18372   1.751   0.320  10.793  0.2098 -0.2170 -0.4311
  164SOPE   O1318373   1.668   0.429  10.851  0.2763 -0.3887 -0.1699
  164SOPE   O1418374   1.681   0.189  10.785 -0.7019  0.2780 -0.1393
  164SOPE   O1218375   1.880   0.297  10.873 -0.1694  1.0002 -0.2171
  164SOPE   O1118376   1.818   0.366  10.654  0.0368 -0.3234 -0.1872
  164SOPE    C118377   1.901   0.484  10.654 -0.0458 -0.1831  0.5732
  164SOPE    HA18378   1.966   0.478  10.563  2.3265  0.2534  2.1547
  164SOPE    HB18379   1.975   0.479  10.737 -0.3298 -1.1535  0.7837
  164SOPE    C218380   1.812   0.611  10.640 -0.1987 -0.0236  0.0259
  164SOPE    HS18381   1.780   0.626  10.746  0.5042  1.4926  0.0494
  164SOPE   O2118382   1.707   0.591  10.546 -0.0321  0.8528  0.1726
  164SOPE   C2118383   1.622   0.694  10.530 -0.3820  0.2860  0.0816
  164SOPE   O2218384   1.609   0.788  10.603  0.2673 -0.4880 -0.0158
  164SOPE   C2218385   1.554   0.690  10.387 -0.7794  0.1090  0.4598
  164SOPE   H2R18386   1.573   0.593  10.335 -1.1422 -0.3315  1.1357
  164SOPE   H2S18387   1.611   0.760  10.323 -1.2583 -0.7018 -0.9117
  164SOPE    C318388   1.901   0.739  10.608  0.4682 -0.5069 -0.1241
  164SOPE    HX18389   1.965   0.763  10.695  1.6673 -2.2267 -0.4900
  164SOPE    HY18390   1.835   0.829  10.600 -0.4238 -1.2007 -0.8365
  164SOPE   O3118391   1.969   0.733  10.478 -0.4964 -0.2942 -0.1935
  164SOPE   C3118392   2.070   0.816  10.459 -0.6554  0.4833 -0.6305
  164SOPE   O3218393   2.108   0.893  10.544  0.5501 -0.5787 -0.5363
  164SOPE   C3218394   2.131   0.806  10.319 -0.1111  0.1413  0.2874
  164SOPE   H2X18395   2.220   0.742  10.306 -1.5012 -2.2074  1.5690
  164SOPE   H2Y18396   2.171   0.909  10.306  0.8412  0.0331  2.0831
  164SOPE   C2318397   1.408   0.738  10.385 -0.8859  0.6864  0.1772
  164SOPE   H3R18398   1.398   0.832  10.442  3.5550  0.3768  1.8745
  164SOPE   H3S18399   1.350   0.664  10.444  1.6637 -1.2460  0.4413
  164SOPE   C2418400   1.359   0.772  10.243  0.4516  0.5012  0.2137
  164SOPE   H4R18401   1.248   0.774  10.236  0.2702 -2.3966  1.3446
  164SOPE   H4S18402   1.402   0.868  10.206 -0.9450  1.6744  1.4935
  164SOPE   C2518403   1.395   0.657  10.147 -0.0592 -0.5702 -0.3048
  164SOPE   H5R18404   1.498   0.666  10.106 -0.3088 -1.4302 -1.1559
  164SOPE   H5S18405   1.366   0.559  10.189 -0.0828 -1.4183 -2.1981
  164SOPE   C2618406   1.298   0.670  10.027  0.1851 -0.1986 -0.2880
  164SOPE   H6R18407   1.200   0.651  10.075  1.1772  2.0335  2.9885
  164SOPE   H6S18408   1.302   0.777   9.999 -1.9556 -0.0285 -0.0430
  164SOPE   C2718409   1.324   0.570   9.914 -0.0699  0.2861 -0.6202
  164SOPE   H7R18410   1.368   0.482   9.965 -2.5134  0.4074  1.9668
  164SOPE   H7S18411   1.227   0.536   9.872 -0.3915 -1.5358  1.4080
  164SOPE   C2818412   1.421   0.628   9.810 -0.3894  0.1285 -0.4287
  164SOPE   H8R18413   1.488   0.700   9.861 -0.6983  0.6659 -0.7720
  164SOPE   H8S18414   1.488   0.544   9.783 -2.1029 -0.7400 -2.2153
  164SOPE   C2918415   1.370   0.687   9.677  0.1254  0.1978  0.3191
  164SOPE   H9118416   1.261   0.699   9.669  0.1208  0.1864  0.3605
  164SOPE  C21018417   1.441   0.732   9.569 -0.3714  0.6686  0.0183
  164SOPE  H10118418   1.387   0.783   9.488 -1.9763  2.7155  2.2393
  164SOPE  C21118419   1.591   0.713   9.552  0.4694 -0.6472  0.3536
  164SOPE  H11R18420   1.601   0.606   9.524  1.0158 -0.3616 -0.5823
  164SOPE  H11S18421   1.648   0.748   9.641 -1.0589 -0.7429  1.4121
  164SOPE  C21218422   1.655   0.778   9.422 -0.0540 -0.0628 -0.7744
  164SOPE  H12R18423   1.765   0.773   9.431 -0.2050 -0.6006  1.5886
  164SOPE  H12S18424   1.623   0.884   9.413 -2.1509 -0.6168 -0.3596
  164SOPE  C21318425   1.619   0.696   9.295 -0.8223 -0.4351  0.4313
  164SOPE  H13R18426   1.509   0.697   9.274 -0.9524 -2.9069  0.6281
  164SOPE  H13S18427   1.655   0.591   9.297 -2.0654 -0.9297 -1.1710
  164SOPE  C21418428   1.677   0.769   9.171 -0.7869  0.1545 -0.6114
  164SOPE  H14R18429   1.782   0.803   9.185 -0.9076  0.3613 -0.1795
  164SOPE  H14S18430   1.614   0.857   9.147  0.3322  0.3379 -3.2276
  164SOPE  C21518431   1.679   0.680   9.048 -0.7145  0.5121  0.4121
  164SOPE  H15R18432   1.572   0.652   9.035 -0.6889  0.2750  0.7258
  164SOPE  H15S18433   1.730   0.583   9.066  0.0973  0.9802  0.6711
  164SOPE  C21618434   1.739   0.746   8.926  0.1990 -0.2670 -0.6607
  164SOPE  H16R18435   1.766   0.671   8.849  3.4428  1.4608 -1.3776
  164SOPE  H16S18436   1.837   0.796   8.943 -0.8935  1.1947  1.9233
  164SOPE  C21718437   1.646   0.849   8.862  0.1553  0.0713  0.0901
  164SOPE  H17R18438   1.700   0.929   8.808 -0.7445  2.1020  2.0054
  164SOPE  H17S18439   1.588   0.909   8.936  0.2928 -0.5123  0.6848
  164SOPE  C21818440   1.554   0.782   8.767 -0.4032 -0.2194 -0.1936
  164SOPE  H18R18441   1.494   0.854   8.707  0.6180  0.5957 -0.2604
  164SOPE  H18S18442   1.478   0.721   8.820 -0.0515  0.8359  1.6397
  164SOPE  H18T18443   1.593   0.697   8.708 -2.6149 -0.0615 -2.0265
  164SOPE   C3318444   2.018   0.773  10.217  0.0569  0.2064  0.2886
  164SOPE   H3X18445   1.959   0.682  10.240 -0.7319  0.9107  1.1257
  164SOPE   H3Y18446   2.061   0.759  10.116  0.4681 -0.5742  0.5650
  164SOPE   C3418447   1.909   0.884  10.201  0.3508  0.6651 -0.7681
  164SOPE   H4X18448   1.953   0.985  10.183  2.3539  0.2234  1.2117
  164SOPE   H4Y18449   1.864   0.892  10.302 -1.0637  2.4341 -1.4889
  164SOPE   C3518450   1.803   0.849  10.097 -0.3616  0.2996 -0.3716
  164SOPE   H5X18451   1.735   0.775  10.144  0.2314 -0.1228 -0.1612
  164SOPE   H5Y18452   1.852   0.803  10.008 -0.3562 -1.7193  0.6084
  164SOPE   C3618453   1.737   0.971  10.055 -0.0870 -0.2842  0.9709
  164SOPE   H6X18454   1.813   1.029   9.998  0.1997 -2.0287 -0.5097
  164SOPE   H6Y18455   1.706   1.017  10.151  2.4346 -1.2954  2.3738
  164SOPE   C3718456   1.619   0.951   9.971 -0.3098 -0.2848  0.8764
  164SOPE   H7X18457   1.542   0.910  10.041 -0.3402  2.6361  2.7336
  164SOPE   H7Y18458   1.635   0.875   9.891 -0.6771  1.9180 -1.4136
  164SOPE   C3818459   1.574   1.070   9.889 -0.8103  0.4406  0.2613
  164SOPE   H8X18460   1.659   1.088   9.820 -0.1349 -1.0824  0.6323
  164SOPE   H8Y18461   1.558   1.164   9.945 -0.8119  0.6190 -0.0387
  164SOPE   C3918462   1.447   1.036   9.806  0.6869  0.2586  0.9093
  164SOPE   H9X18463   1.349   1.032   9.859  0.8919 -1.4722  1.1921
  164SOPE   H9Y18464   1.456   0.930   9.776  0.0663 -0.1607  2.1377
  164SOPE  C31018465   1.439   1.120   9.675  1.1209  0.2110 -0.1204
  164SOPE  H10X18466   1.534   1.148   9.624  0.9883  0.5889 -0.1637
  164SOPE  H10Y18467   1.403   1.218   9.712 -3.2236 -1.3753  0.3409
  164SOPE  C31118468   1.355   1.057   9.565  0.7706  0.4627  0.0994
  164SOPE  H11X18469   1.294   0.987   9.628  1.6130  1.2936  1.9235
  164SOPE  H11Y18470   1.423   1.006   9.495 -0.3798  0.3042 -0.9416
  164SOPE  C31218471   1.265   1.154   9.491 -0.1615 -0.7423 -0.5485
  164SOPE  H12X18472   1.176   1.178   9.553 -1.8026 -1.8481 -2.3518
  164SOPE  H12Y18473   1.221   1.103   9.402 -1.2726  2.8051 -2.2123
  164SOPE  C31318474   1.338   1.283   9.442  0.0198  0.2552  0.0440
  164SOPE  H13X18475   1.366   1.346   9.529 -3.7948 -0.0530  1.6627
  164SOPE  H13Y18476   1.262   1.337   9.383  1.6440  2.9482  0.2292
  164SOPE  C31418477   1.462   1.262   9.347  0.1894  0.1453 -0.3677
  164SOPE  H14X18478   1.537   1.200   9.399 -0.4721 -1.3257 -1.1202
  164SOPE  H14Y18479   1.513   1.354   9.311  1.6235 -0.9346 -1.2023
  164SOPE  C31518480   1.421   1.183   9.220  0.2841  0.6670  0.2043
  164SOPE  H15X18481   1.356   1.253   9.162 -2.3356 -1.3606  0.5207
  164SOPE  H15Y18482   1.350   1.104   9.253 -0.3115  0.7904 -0.7402
  164SOPE  C31618483   1.532   1.120   9.132  0.1732  0.4330  0.2543
  164SOPE  H16X18484   1.477   1.065   9.052 -0.1033 -1.6917  1.8218
  164SOPE  H16Y18485   1.587   1.045   9.192  0.2837  0.2925 -0.0205
  164SOPE  C31718486   1.624   1.223   9.070 -0.0742  0.4497 -0.1398
  164SOPE  H17X18487   1.671   1.283   9.151 -0.6781  0.7878 -0.0370
  164SOPE  H17Y18488   1.561   1.287   9.006 -1.4951  0.2379  1.0017
  164SOPE  C31818489   1.741   1.163   8.997  1.3287 -0.7891 -0.0463
  164SOPE  H18X18490   1.738   1.052   8.994  0.5563 -0.8695  2.0555
  164SOPE  H18Y18491   1.834   1.179   9.055  1.5316  1.0676 -0.7933
  164SOPE  H18Z18492   1.753   1.212   8.897  2.2741  2.8763  1.6938
  165SOPE     N18493   1.175   1.744  10.908 -0.5068  0.1454 -0.4295
  165SOPE   HN118494   1.090   1.689  10.887 -0.9096  1.1078 -1.3597
  165SOPE   HN218495   1.187   1.718  11.008 -0.9844 -1.4150 -0.7545
  165SOPE   HN318496   1.156   1.846  10.907  0.6577  0.3890  0.1687
  165SOPE   C1218497   1.286   1.702  10.812 -0.4827  0.0374 -0.5518
  165SOPE  H12A18498   1.380   1.676  10.865  1.1530  0.4707 -3.0789
  165SOPE  H12B18499   1.312   1.791  10.753 -1.7077  1.2622  0.6709
  165SOPE   C1118500   1.251   1.574  10.726 -0.2463  0.3213 -1.1172
  165SOPE  H11A18501   1.350   1.566  10.676  1.7624  1.5993  2.3616
  165SOPE  H11B18502   1.170   1.596  10.653 -0.8061  2.0201 -0.0348
  165SOPE     P18503   1.080   1.412  10.840 -0.4118 -0.1836 -0.6118
  165SOPE   O1318504   1.011   1.524  10.903  0.2894  0.0860 -0.0171
  165SOPE   O1418505   1.095   1.281  10.912  0.1499 -0.0965 -0.2665
  165SOPE   O1218506   1.230   1.458  10.802 -0.3800  0.1655 -0.1761
  165SOPE   O1118507   0.999   1.385  10.709  0.2064 -0.2396 -0.0289
  165SOPE    C118508   0.985   1.249  10.656  0.3076  0.6532  0.3991
  165SOPE    HA18509   0.882   1.235  10.619  0.5978 -2.6060  0.5379
  165SOPE    HB18510   1.002   1.168  10.731 -2.0785  0.0929  0.3993
  165SOPE    C218511   1.087   1.228  10.539  0.2637  0.4681 -0.0444
  165SOPE    HS18512   1.185   1.264  10.579 -0.0486  0.5965  0.6171
  165SOPE   O2118513   1.041   1.303  10.428 -0.0540 -0.4017  0.0643
  165SOPE   C2118514   1.129   1.303  10.324 -0.2906 -0.0685 -0.3294
  165SOPE   O2218515   1.241   1.265  10.328 -0.2903  0.1078 -0.4270
  165SOPE   C2218516   1.067   1.384  10.212 -0.0929  1.4167 -0.6076
  165SOPE   H2R18517   1.033   1.480  10.258 -1.0732  1.1377 -0.7279
  165SOPE   H2S18518   0.977   1.329  10.177 -0.1447  0.2174  1.2427
  165SOPE    C318519   1.107   1.074  10.512 -0.5085  0.1386  0.3073
  165SOPE    HX18520   1.152   1.021  10.598 -2.2450 -1.0191  0.5632
  165SOPE    HY18521   1.166   1.048  10.421 -0.3702 -0.6192  0.6071
  165SOPE   O3118522   0.982   1.006  10.511  0.4666  0.0514 -0.6491
  165SOPE   C3118523   0.933   0.999  10.386  0.3425  0.5197  0.0727
  165SOPE   O3218524   0.982   1.039  10.287 -0.2975  0.1108  1.0056
  165SOPE   C3218525   0.818   0.905  10.377  0.3333 -0.9055  0.5171
  165SOPE   H2X18526   0.730   0.965  10.408  1.2897 -0.1127  1.7898
  165SOPE   H2Y18527   0.817   0.827  10.457  0.9537 -1.0823  0.3593
  165SOPE   C2318528   1.172   1.415  10.097  0.1140 -0.1385 -0.1937
  165SOPE   H3R18529   1.275   1.438  10.132 -0.3781 -0.4236  1.5565
  165SOPE   H3S18530   1.142   1.509  10.046  0.9944  0.9745  1.2488
  165SOPE   C2418531   1.187   1.293  10.008  0.9412  0.1521  0.4514
  165SOPE   H4R18532   1.229   1.332   9.913  0.9377  1.7205  1.0588
  165SOPE   H4S18533   1.258   1.221  10.054  0.7149 -0.0408  0.4998
  165SOPE   C2518534   1.055   1.211   9.968  0.0266  0.5604  0.0245
  165SOPE   H5R18535   1.011   1.165  10.059  3.5364 -1.4067  0.9468
  165SOPE   H5S18536   0.987   1.287   9.924 -0.6862  0.8876  1.6240
  165SOPE   C2618537   1.082   1.110   9.855  0.1972 -0.4720  0.1940
  165SOPE   H6R18538   1.157   1.160   9.790 -0.8391 -0.4014 -0.9822
  165SOPE   H6S18539   1.146   1.027   9.892  2.5525  2.2956  2.9497
  165SOPE   C2718540   0.954   1.058   9.789 -0.2262 -0.2180 -0.0431
  165SOPE   H7R18541   0.880   1.141   9.789 -0.2514 -0.2054  1.7552
  165SOPE   H7S18542   0.963   1.020   9.685 -1.2315 -2.4423  0.6304
  165SOPE   C2818543   0.877   0.944   9.870 -0.8713  0.0825 -0.5172
  165SOPE   H8R18544   0.866   0.987   9.972  0.5363 -2.5743  0.8589
  165SOPE   H8S18545   0.779   0.947   9.819 -1.2959  2.7930  0.2797
  165SOPE   C2918546   0.960   0.820   9.878 -0.0709 -0.5482  0.0048
  165SOPE   H9118547   1.042   0.825   9.952  1.1628 -2.8118 -1.0895
  165SOPE  C21018548   0.955   0.717   9.799 -0.0590  0.2614 -0.1754
  165SOPE  H10118549   1.025   0.633   9.807 -1.4640 -1.2451 -2.3880
  165SOPE  C21118550   0.861   0.688   9.691  0.7285  0.5259 -0.2317
  165SOPE  H11R18551   0.779   0.763   9.689 -0.3690 -0.6404 -0.3050
  165SOPE  H11S18552   0.818   0.587   9.706  0.9408  0.7008  1.8129
  165SOPE  C21218553   0.933   0.690   9.555  0.2772  0.6378  0.6537
  165SOPE  H12R18554   0.851   0.658   9.486  0.9864 -2.0246  0.9238
  165SOPE  H12S18555   1.009   0.610   9.553  1.1786  1.4133  1.9802
  165SOPE  C21318556   0.980   0.828   9.509  0.0358  0.4538  0.2752
  165SOPE  H13R18557   1.072   0.837   9.571  0.6606  0.8611 -0.6736
  165SOPE  H13S18558   0.903   0.905   9.532 -1.4674 -0.6306 -1.0052
  165SOPE  C21418559   1.005   0.833   9.361 -0.0460 -0.3894  0.4940
  165SOPE  H14R18560   1.036   0.936   9.332  0.0887 -0.2223  1.2084
  165SOPE  H14S18561   0.907   0.811   9.314  0.9254  1.0226 -2.4443
  165SOPE  C21518562   1.119   0.734   9.319  0.5479 -0.3708  0.2784
  165SOPE  H15R18563   1.080   0.630   9.313 -1.3342  0.2405  0.9778
  165SOPE  H15S18564   1.200   0.749   9.392  1.6373 -1.1047 -0.7432
  165SOPE  C21618565   1.173   0.778   9.183  0.0883 -0.7769  0.1008
  165SOPE  H16R18566   1.224   0.876   9.189  1.5252 -1.5751  2.7714
  165SOPE  H16S18567   1.090   0.787   9.110  1.7524 -2.3178 -2.1092
  165SOPE  C21718568   1.274   0.672   9.136  0.3657  0.6947  0.2425
  165SOPE  H17R18569   1.327   0.620   9.219  2.0532 -0.0958 -1.2445
  165SOPE  H17S18570   1.350   0.726   9.076  0.5326  1.7988  1.4140
  165SOPE  C21818571   1.218   0.572   9.037 -0.0744 -0.0634  0.7341
  165SOPE  H18R18572   1.189   0.629   8.946  0.0642  1.2958  1.5225
  165SOPE  H18S18573   1.126   0.533   9.086 -0.9399 -1.1006 -1.5654
  165SOPE  H18T18574   1.287   0.490   9.005  1.5971  1.4450  0.3223
  165SOPE   C3318575   0.784   0.850  10.237  0.0653 -0.5525 -0.8079
  165SOPE   H3X18576   0.880   0.807  10.201  0.6518  1.3042 -1.6019
  165SOPE   H3Y18577   0.766   0.937  10.171 -2.0969 -1.7912 -1.9712
  165SOPE   C3418578   0.659   0.760  10.228  0.1265  0.2221  0.4526
  165SOPE   H4X18579   0.568   0.797  10.279 -0.2319 -3.3532  2.7679
  165SOPE   H4Y18580   0.686   0.673  10.293 -1.2561  0.0679  0.8445
  165SOPE   C3518581   0.639   0.716  10.085  0.3028 -0.0394 -0.0101
  165SOPE   H5X18582   0.738   0.686  10.043 -0.6193 -0.2586 -2.1540
  165SOPE   H5Y18583   0.614   0.810  10.032  0.1505  1.0118  1.8552
  165SOPE   C3618584   0.541   0.600  10.056  0.6187  0.2859 -0.0200
  165SOPE   H6X18585   0.439   0.630  10.087  0.2106 -0.1019 -0.9692
  165SOPE   H6Y18586   0.560   0.517  10.127 -2.0576  0.9172  1.5984
  165SOPE   C3718587   0.552   0.542   9.909 -0.4867  0.6004  0.0370
  165SOPE   H7X18588   0.653   0.495   9.907 -1.3424 -1.7720  3.5428
  165SOPE   H7Y18589   0.535   0.624   9.836  1.6089  2.1084  1.1531
  165SOPE   C3818590   0.450   0.435   9.870 -0.2523  0.0275 -0.2130
  165SOPE   H8X18591   0.350   0.475   9.895  0.7944  1.5494  1.8158
  165SOPE   H8Y18592   0.460   0.348   9.938 -0.8977  0.6049  0.6396
  165SOPE   C3918593   0.447   0.400   9.717  0.3910  1.1905 -0.7494
  165SOPE   H9X18594   0.384   0.313   9.688 -1.1305  1.2237  2.0319
  165SOPE   H9Y18595   0.545   0.364   9.680  1.0159 -0.5152  2.2287
  165SOPE  C31018596   0.401   0.519   9.628  0.1455  0.0246 -0.6775
  165SOPE  H10X18597   0.360   0.599   9.694 -1.0446  0.6887 -2.1566
  165SOPE  H10Y18598   0.316   0.482   9.566 -0.0926 -2.0766  0.7939
  165SOPE  C31118599   0.514   0.574   9.543  0.3726  0.0628  0.4035
  165SOPE  H11X18600   0.608   0.579   9.603 -0.2356 -0.8514  1.4677
  165SOPE  H11Y18601   0.491   0.677   9.509 -0.9052  0.1308  1.3831
  165SOPE  C31218602   0.539   0.488   9.419 -0.1529 -0.1088 -0.3328
  165SOPE  H12X18603   0.442   0.500   9.366  0.9862  3.0657 -1.9307
  165SOPE  H12Y18604   0.560   0.381   9.440 -2.3868 -0.6443 -0.5401
  165SOPE  C31318605   0.653   0.543   9.336 -0.1064  0.3681 -0.4483
  165SOPE  H13X18606   0.753   0.521   9.381  0.1749  1.6327 -0.4250
  165SOPE  H13Y18607   0.631   0.652   9.339 -2.4627 -0.0636  0.4702
  165SOPE  C31418608   0.663   0.468   9.201  0.3660 -0.5746  0.0836
  165SOPE  H14X18609   0.581   0.518   9.145 -0.3919 -0.2961  1.3774
  165SOPE  H14Y18610   0.626   0.365   9.222 -0.4103  0.0450  1.9719
  165SOPE  C31518611   0.795   0.476   9.124 -0.2632 -0.2021  0.1505
  165SOPE  H15X18612   0.867   0.430   9.195 -1.2663 -1.4974  0.3735
  165SOPE  H15Y18613   0.806   0.586   9.128 -3.7611  0.2841 -0.8083
  165SOPE  C31618614   0.792   0.421   8.979  0.5825 -0.5895 -0.0392
  165SOPE  H16X18615   0.721   0.484   8.921  0.4728  0.0930  0.8048
  165SOPE  H16Y18616   0.753   0.317   8.984  0.6267 -0.5683  1.0644
  165SOPE  C31718617   0.926   0.415   8.902 -0.7680 -0.6506 -0.6484
  165SOPE  H17X18618   1.002   0.353   8.955 -1.1105 -0.7403 -0.2591
  165SOPE  H17Y18619   0.969   0.517   8.904 -2.0725 -0.1061  0.8122
  165SOPE  C31818620   0.902   0.375   8.760  0.1113 -0.1781  0.6967
  165SOPE  H18X18621   0.878   0.267   8.752 -0.5121 -0.0850  1.2590
  165SOPE  H18Y18622   0.997   0.377   8.702  0.2781 -0.4265  0.9636
  165SOPE  H18Z18623   0.827   0.439   8.707 -0.3165  0.2814  1.8281
  166SOPE     N18624   2.965   6.274  11.173  0.0250  0.1590 -0.1291
  166SOPE   HN118625   2.945   6.183  11.218  0.0915  0.1067 -0.2043
  166SOPE   HN218626   2.993   6.329  11.257 -0.7904 -0.4276  0.5455
  166SOPE   HN318627   2.878   6.315  11.134  0.1244  0.9982  0.4976
  166SOPE   C1218628   3.081   6.257  11.080  0.4354  1.1466  0.3552
  166SOPE  H12A18629   3.080   6.157  11.033  0.3575  1.1769  0.2932
  166SOPE  H12B18630   3.175   6.275  11.136 -0.9981 -0.3771  3.4832
  166SOPE   C1118631   3.082   6.369  10.965 -0.4291 -0.3577 -0.5609
  166SOPE  H11A18632   3.024   6.330  10.879  0.1357  0.3098 -1.2480
  166SOPE  H11B18633   3.189   6.371  10.937 -0.3306 -2.4225 -0.5124
  166SOPE     P18634   3.105   6.624  10.951 -0.2062  0.0308  0.5353
  166SOPE   O1318635   3.244   6.640  10.997  0.4756  0.4769  0.3896
  166SOPE   O1418636   3.017   6.735  10.977 -0.1325 -0.4707  0.2306
  166SOPE   O1218637   3.039   6.497  11.011  0.3246  0.2327 -0.2960
  166SOPE   O1118638   3.089   6.588  10.804 -0.2120  0.2685 -0.4695
  166SOPE    C118639   3.194   6.575  10.714 -0.0187  0.4582 -0.1422
  166SOPE    HA18640   3.164   6.485  10.656  0.2363  0.6624 -0.6035
  166SOPE    HB18641   3.288   6.552  10.767 -1.8911 -1.4772  2.6115
  166SOPE    C218642   3.207   6.701  10.622 -0.5826 -0.7012 -0.4498
  166SOPE    HS18643   3.298   6.687  10.560 -1.1088 -4.3271 -0.6289
  166SOPE   O2118644   3.201   6.824  10.705 -0.0444  0.7134 -0.3648
  166SOPE   C2118645   3.313   6.855  10.769 -0.0563  0.5613 -0.5590
  166SOPE   O2218646   3.420   6.795  10.751 -0.0896 -0.2894 -0.5355
  166SOPE   C2218647   3.280   6.952  10.884 -0.0537 -0.4742  0.2426
  166SOPE   H2R18648   3.313   6.918  10.984 -0.2351 -0.2139  0.3931
  166SOPE   H2S18649   3.172   6.977  10.890  0.2942  1.2800 -0.2296
  166SOPE    C318650   3.088   6.703  10.523  0.9676 -0.5031  0.2775
  166SOPE    HX18651   2.990   6.703  10.575  0.6618 -2.7929 -0.1874
  166SOPE    HY18652   3.084   6.612  10.459 -2.0429  0.5986 -1.2940
  166SOPE   O3118653   3.097   6.813  10.432  0.1923  0.2245  0.0832
  166SOPE   C3118654   3.039   6.923  10.475  0.9468  0.3737 -0.1061
  166SOPE   O3218655   2.963   6.934  10.571 -0.3862  0.3853 -0.6574
  166SOPE   C3218656   3.084   7.040  10.384  0.1504 -0.2068 -0.6651
  166SOPE   H2X18657   3.049   7.022  10.280  1.2503  0.4822 -1.1700
  166SOPE   H2Y18658   3.195   7.033  10.375  0.2406 -0.0527  0.2380
  166SOPE   C2318659   3.351   7.094  10.865 -0.3611 -0.0859  0.2202
  166SOPE   H3R18660   3.461   7.083  10.855 -0.3791  1.2277 -2.1878
  166SOPE   H3S18661   3.332   7.147  10.961 -2.1304  0.1898 -0.2331
  166SOPE   C2418662   3.301   7.186  10.761 -0.2674 -0.4990  0.4803
  166SOPE   H4R18663   3.311   7.141  10.660 -3.4630  0.9579 -0.6340
  166SOPE   H4S18664   3.190   7.186  10.771 -0.4367  0.1201 -1.1445
  166SOPE   C2518665   3.349   7.332  10.755  0.4533  0.1428 -0.1462
  166SOPE   H5R18666   3.270   7.396  10.710  1.4371  3.4022  2.4155
  166SOPE   H5S18667   3.365   7.373  10.856  4.1618 -1.2362 -0.0258
  166SOPE   C2618668   3.470   7.358  10.670  0.1723  0.5335 -0.6015
  166SOPE   H6R18669   3.562   7.306  10.704  0.0026  0.8258  0.3334
  166SOPE   H6S18670   3.448   7.340  10.563 -1.8917  0.3059 -0.1765
  166SOPE   C2718671   3.504   7.512  10.677 -0.2687  0.4806 -0.3936
  166SOPE   H7R18672   3.520   7.537  10.784  0.4865  0.3188 -0.4658
  166SOPE   H7S18673   3.606   7.524  10.635  0.9585  0.4102  2.3859
  166SOPE   C2818674   3.398   7.613  10.627  0.0702  0.4276  1.0551
  166SOPE   H8R18675   3.369   7.584  10.524 -1.0141  0.3141  1.3809
  166SOPE   H8S18676   3.300   7.599  10.678 -0.5016 -0.3965 -0.2124
  166SOPE   C2918677   3.457   7.751  10.640  0.2218 -0.5219 -0.0802
  166SOPE   H9118678   3.520   7.772  10.728  0.7105  1.7479 -0.8820
  166SOPE  C21018679   3.464   7.842  10.543 -0.2160  0.0529  0.1273
  166SOPE  H10118680   3.504   7.943  10.563 -0.1031 -0.1651  1.0463
  166SOPE  C21118681   3.413   7.827  10.401 -0.0753  0.4169 -0.3874
  166SOPE  H11R18682   3.400   7.930  10.362 -2.5494 -0.8241 -3.2425
  166SOPE  H11S18683   3.315   7.776  10.392  0.0763 -0.3771  1.9372
  166SOPE  C21218684   3.507   7.758  10.294 -0.3040 -0.4337 -0.0769
  166SOPE  H12R18685   3.530   7.655  10.328  0.2713  0.2366  1.6477
  166SOPE  H12S18686   3.600   7.815  10.278  0.3889 -1.8048 -1.1692
  166SOPE  C21318687   3.445   7.756  10.156  1.1749 -0.2550  0.2911
  166SOPE  H13R18688   3.348   7.702  10.165  1.6846 -0.9591  2.0415
  166SOPE  H13S18689   3.499   7.691  10.084 -0.7958  0.6470 -2.1149
  166SOPE  C21418690   3.427   7.883  10.083  0.0017 -0.1008  0.6073
  166SOPE  H14R18691   3.510   7.951  10.112 -0.8948  1.4771 -0.4179
  166SOPE  H14S18692   3.334   7.932  10.117  0.8003  2.0841 -0.1665
  166SOPE  C21518693   3.414   7.881   9.928 -0.4348 -0.4696  0.2702
  166SOPE  H15R18694   3.338   7.804   9.900  0.1330 -0.2055 -2.1701
  166SOPE  H15S18695   3.509   7.852   9.879  1.0015  0.8403  2.1656
  166SOPE  C21618696   3.375   8.018   9.868  0.1140 -0.3603 -0.5109
  166SOPE  H16R18697   3.467   8.078   9.879 -0.7100  0.6800  1.0299
  166SOPE  H16S18698   3.300   8.080   9.922  0.1714  0.0758 -0.9210
  166SOPE  C21718699   3.333   8.017   9.727  0.0289 -0.7415  0.9542
  166SOPE  H17R18700   3.328   8.124   9.697 -0.5416 -0.9754  0.1526
  166SOPE  H17S18701   3.234   7.971   9.705  0.3628 -1.4576  0.9127
  166SOPE  C21818702   3.430   7.954   9.629  0.2172  0.3598  0.8769
  166SOPE  H18R18703   3.533   7.991   9.650  0.4020  1.5260 -1.6800
  166SOPE  H18S18704   3.407   7.994   9.528 -0.4071  0.6283  1.1261
  166SOPE  H18T18705   3.421   7.844   9.642  2.1236  0.3716  3.0020
  166SOPE   C3318706   3.056   7.184  10.431  0.0453  0.0549  0.5068
  166SOPE   H3X18707   3.059   7.191  10.542 -2.8586 -2.2332  0.8495
  166SOPE   H3Y18708   2.960   7.234  10.405 -0.6740 -2.3044 -1.8645
  166SOPE   C3418709   3.165   7.282  10.391 -0.2260 -0.4060  0.4965
  166SOPE   H4X18710   3.260   7.243  10.434  1.4854  0.9985 -1.7242
  166SOPE   H4Y18711   3.154   7.383  10.434  2.6441  0.1018  0.2447
  166SOPE   C3518712   3.184   7.295  10.232  0.4722 -0.4291 -0.0558
  166SOPE   H5X18713   3.083   7.306  10.187  1.1876 -0.0634 -1.5966
  166SOPE   H5Y18714   3.224   7.194  10.207  0.4526 -1.0274  2.0435
  166SOPE   C3618715   3.277   7.416  10.202 -0.0748  0.3504 -0.6593
  166SOPE   H6X18716   3.367   7.408  10.266 -0.7269 -2.0798  0.0670
  166SOPE   H6Y18717   3.225   7.511  10.222 -0.4873  0.2876 -1.3734
  166SOPE   C3718718   3.324   7.422  10.060 -0.0070  0.2013 -0.1619
  166SOPE   H7X18719   3.343   7.317  10.031 -0.8332  0.3572 -1.3351
  166SOPE   H7Y18720   3.417   7.483  10.063  0.3649 -0.2669 -1.6393
  166SOPE   C3818721   3.215   7.480   9.967  0.3104  0.0603 -0.1792
  166SOPE   H8X18722   3.164   7.568  10.012 -0.2142  0.9922 -2.4618
  166SOPE   H8Y18723   3.139   7.402   9.942  1.8932 -0.9908 -1.9091
  166SOPE   C3918724   3.279   7.521   9.837 -0.4945 -0.6153 -0.0518
  166SOPE   H9X18725   3.325   7.435   9.782 -0.1136 -0.1047 -0.5512
  166SOPE   H9Y18726   3.370   7.584   9.849 -0.5296 -1.0178  2.9562
  166SOPE  C31018727   3.177   7.590   9.744  0.2312  0.2205  0.1055
  166SOPE  H10X18728   3.139   7.692   9.765 -0.9084 -0.0471 -0.5555
  166SOPE  H10Y18729   3.084   7.530   9.736  0.1080  0.1614  1.6540
  166SOPE  C31118730   3.232   7.595   9.599  0.1273 -0.0407  0.0952
  166SOPE  H11X18731   3.240   7.489   9.564  0.8865  0.2918 -0.7966
  166SOPE  H11Y18732   3.332   7.643   9.595 -0.6501  1.7188  0.9740
  166SOPE  C31218733   3.142   7.665   9.502 -0.3762 -0.0530  0.4270
  166SOPE  H12X18734   3.128   7.772   9.530 -2.3648 -0.1690  0.0022
  166SOPE  H12Y18735   3.039   7.624   9.507  0.5579 -3.6495 -3.7359
  166SOPE  C31318736   3.175   7.653   9.348  0.3572  0.7691 -1.0399
  166SOPE  H13X18737   3.165   7.548   9.313  0.0773  0.2256  0.5531
  166SOPE  H13Y18738   3.281   7.683   9.333 -0.1613  1.9587 -2.5285
  166SOPE  C31418739   3.088   7.741   9.258 -0.0876 -0.5940 -0.3525
  166SOPE  H14X18740   3.115   7.847   9.276 -1.6441 -0.3036  0.4764
  166SOPE  H14Y18741   2.981   7.728   9.286  0.1567 -0.2139  0.7917
  166SOPE  C31518742   3.097   7.717   9.105 -0.2353  0.3236  0.0348
  166SOPE  H15X18743   3.051   7.802   9.051  2.1192  1.6093 -0.0509
  166SOPE  H15Y18744   3.048   7.621   9.078  0.2847 -0.4456  1.6759
  166SOPE  C31618745   3.236   7.719   9.042  0.0502 -0.2143 -0.4634
  166SOPE  H16X18746   3.307   7.646   9.087  1.3317  0.7109 -0.9192
  166SOPE  H16Y18747   3.270   7.823   9.061 -0.9153 -0.1536  1.1096
  166SOPE  C31718748   3.257   7.690   8.886  0.9617 -0.4758 -0.0151
  166SOPE  H17X18749   3.207   7.777   8.838  0.9929 -0.0689  0.6778
  166SOPE  H17Y18750   3.194   7.601   8.863 -2.3842  1.7339 -0.0931
  166SOPE  C31818751   3.403   7.672   8.841 -0.0917 -0.3419 -0.4763
  166SOPE  H18X18752   3.440   7.580   8.891  0.9924  1.0942  1.5050
  166SOPE  H18Y18753   3.462   7.761   8.869 -0.2999 -0.1027 -0.7807
  166SOPE  H18Z18754   3.408   7.655   8.731 -0.5696 -2.4384 -0.2222
  167SOPE     N18755   6.234   0.322   5.909 -0.1165 -0.6428  0.7454
  167SOPE   HN118756   6.141   0.316   5.954 -1.3119  0.8291 -1.3790
  167SOPE   HN218757   6.277   0.415   5.925  1.1747 -1.0191 -0.3126
  167SOPE   HN318758   6.232   0.308   5.806  2.3134  1.3001  0.3404
  167SOPE   C1218759   6.339   0.230   5.958 -0.2414 -0.2691  0.4932
  167SOPE  H12A18760   6.436   0.259   5.911 -0.2953 -1.3506 -0.3400
  167SOPE  H12B18761   6.315   0.134   5.906 -0.0121  0.0874 -0.2787
  167SOPE   C1118762   6.348   0.232   6.103 -0.3629 -0.6408  0.2680
  167SOPE  H11A18763   6.451   0.199   6.130 -0.8805 -0.4526  2.7621
  167SOPE  H11B18764   6.280   0.161   6.155 -0.2123 -0.0586  1.2988
  167SOPE     P18765   6.225   0.412   6.264  0.0425 -0.0200 -0.3447
  167SOPE   O1318766   6.105   0.328   6.267 -0.3083  0.6726 -0.0783
  167SOPE   O1418767   6.206   0.560   6.248 -0.1082  0.2991  0.0287
  167SOPE   O1218768   6.324   0.359   6.156 -0.0130 -0.7604  0.1696
  167SOPE   O1118769   6.289   0.382   6.405  0.2233 -0.1222  0.1643
  167SOPE    C118770   6.426   0.339   6.394 -0.4015 -0.6174 -0.0186
  167SOPE    HA18771   6.486   0.403   6.326  0.7142 -3.5165 -1.9622
  167SOPE    HB18772   6.439   0.242   6.342  1.0728 -0.0993 -0.6894
  167SOPE    C218773   6.491   0.323   6.533  0.6560 -0.6987  0.8088
  167SOPE    HS18774   6.446   0.226   6.566 -0.6756 -0.6892 -0.8020
  167SOPE   O2118775   6.460   0.440   6.607  0.2653 -0.7112  0.5352
  167SOPE   C2118776   6.357   0.432   6.687 -0.4631  0.8056 -0.3329
  167SOPE   O2218777   6.288   0.334   6.717 -0.0621 -0.4527  0.1294
  167SOPE   C2218778   6.328   0.569   6.747  0.1963 -0.2155 -0.6552
  167SOPE   H2R18779   6.220   0.577   6.771 -0.1352  0.3584 -2.2370
  167SOPE   H2S18780   6.332   0.638   6.661 -0.4530  0.8281  0.1132
  167SOPE    C318781   6.644   0.312   6.530 -0.2011 -0.0798 -0.1005
  167SOPE    HX18782   6.677   0.411   6.493 -2.3992  0.8338  0.2134
  167SOPE    HY18783   6.678   0.238   6.454  1.1390  0.7263 -0.3241
  167SOPE   O3118784   6.698   0.299   6.663  0.3620 -0.8000 -0.5641
  167SOPE   C3118785   6.690   0.181   6.731  0.0757 -0.1626 -0.4749
  167SOPE   O3218786   6.644   0.080   6.681  0.5910 -0.3462  0.1756
  167SOPE   C3218787   6.725   0.198   6.877 -0.1374 -0.1517  0.4139
  167SOPE   H2X18788   6.827   0.239   6.889 -0.4424  0.3274  1.4710
  167SOPE   H2Y18789   6.719   0.100   6.929  0.2174 -0.1845  0.3970
  167SOPE   C2318790   6.392   0.601   6.886  0.3653  0.4919  0.5624
  167SOPE   H3R18791   6.501   0.581   6.881  0.1408 -0.9250  0.7994
  167SOPE   H3S18792   6.346   0.534   6.963  0.7704  0.1282  0.4956
  167SOPE   C2418793   6.376   0.741   6.928 -0.0131 -0.4450 -0.0799
  167SOPE   H4R18794   6.470   0.800   6.920  0.7900 -1.5484  0.8666
  167SOPE   H4S18795   6.312   0.794   6.854  0.9693  1.8772  0.6433
  167SOPE   C2518796   6.320   0.748   7.066  0.5680 -0.5726 -0.1349
  167SOPE   H5R18797   6.217   0.708   7.055  0.4794 -0.1681 -0.8327
  167SOPE   H5S18798   6.380   0.679   7.129  1.4225 -1.1161 -1.5177
  167SOPE   C2618799   6.291   0.885   7.127 -0.3774  0.1443  0.1316
  167SOPE   H6R18800   6.388   0.937   7.142  0.1864 -1.2525  1.4485
  167SOPE   H6S18801   6.237   0.939   7.045  2.0977 -0.6940 -2.2125
  167SOPE   C2718802   6.195   0.881   7.247 -0.2490 -0.5331 -0.4515
  167SOPE   H7R18803   6.115   0.811   7.215 -1.7974  0.8070  0.3645
  167SOPE   H7S18804   6.255   0.855   7.337 -0.8094  1.8900  0.7082
  167SOPE   C2818805   6.131   1.018   7.272  0.9356  0.0040  0.0052
  167SOPE   H8R18806   6.206   1.100   7.264  0.0448  0.9338  0.9792
  167SOPE   H8S18807   6.073   1.045   7.181  0.7195  1.2885  0.4999
  167SOPE   C2918808   6.033   1.018   7.385  0.3572  0.1596  0.3703
  167SOPE   H9118809   5.971   0.929   7.399  0.1013  0.3151  0.2296
  167SOPE  C21018810   6.016   1.103   7.487 -0.1787  0.0751  1.1470
  167SOPE  H10118811   5.947   1.085   7.571 -0.9069  1.5243  0.8943
  167SOPE  C21118812   6.106   1.228   7.501 -0.5677  0.6847  0.3129
  167SOPE  H11R18813   6.063   1.324   7.465  0.2807  1.0297  0.2160
  167SOPE  H11S18814   6.198   1.216   7.441 -1.1257  2.1469 -0.8950
  167SOPE  C21218815   6.162   1.236   7.642 -0.1850 -0.7332  0.4683
  167SOPE  H12R18816   6.237   1.318   7.638 -1.8524  0.8288 -0.3853
  167SOPE  H12S18817   6.208   1.141   7.676 -0.2259 -0.0535  2.5543
  167SOPE  C21318818   6.065   1.287   7.745  0.0441  0.7371 -0.5350
  167SOPE  H13R18819   5.986   1.211   7.763 -0.5160  1.4382  0.0237
  167SOPE  H13S18820   6.025   1.387   7.720  0.9434  1.5948  1.2920
  167SOPE  C21418821   6.131   1.307   7.886  0.8870 -1.0330  0.0840
  167SOPE  H14R18822   6.204   1.388   7.864 -1.5700  1.5193  0.7862
  167SOPE  H14S18823   6.179   1.212   7.918  0.7431 -1.1577 -0.0689
  167SOPE  C21518824   6.024   1.359   7.984  0.3157 -0.3119  0.9681
  167SOPE  H15R18825   5.960   1.269   7.994  0.1793 -0.1943  1.1438
  167SOPE  H15S18826   5.974   1.452   7.949  3.5685  0.4185 -2.4112
  167SOPE  C21618827   6.073   1.379   8.132  0.2865 -0.5955  0.0970
  167SOPE  H16R18828   6.125   1.477   8.136 -0.3043 -0.2957  0.6450
  167SOPE  H16S18829   6.142   1.298   8.165 -0.3821 -0.9798  0.5894
  167SOPE  C21718830   5.965   1.404   8.244  0.0034 -0.3598  0.2136
  167SOPE  H17R18831   5.904   1.313   8.261  0.2698 -1.0281 -2.0307
  167SOPE  H17S18832   5.890   1.476   8.206 -0.4739 -0.7985  0.3219
  167SOPE  C21818833   6.034   1.454   8.371 -0.6325 -1.0093  0.6148
  167SOPE  H18R18834   5.981   1.409   8.457 -0.1437 -2.8006  0.0220
  167SOPE  H18S18835   6.039   1.565   8.376  0.4408 -0.8452 -2.1504
  167SOPE  H18T18836   6.135   1.408   8.369 -0.6017 -0.9483  0.8392
  167SOPE   C3318837   6.632   0.296   6.951  0.2182 -0.4719  0.5156
  167SOPE   H3X18838   6.526   0.265   6.945 -0.5526  1.6705  1.9266
  167SOPE   H3Y18839   6.637   0.395   6.899  2.2049  0.4070  2.2530
  167SOPE   C3418840   6.679   0.313   7.095  0.8945  0.2724 -0.4981
  167SOPE   H4X18841   6.785   0.343   7.112 -0.1334  2.7371  2.8139
  167SOPE   H4Y18842   6.684   0.210   7.136  1.3017  1.3066  2.2749
  167SOPE   C3518843   6.582   0.398   7.182 -0.5547  0.2808 -0.3332
  167SOPE   H5X18844   6.480   0.355   7.171 -0.6874  0.9030 -1.7127
  167SOPE   H5Y18845   6.571   0.502   7.145 -2.0048  1.3496  2.7440
  167SOPE   C3618846   6.624   0.397   7.326  0.0680  0.5818 -0.2416
  167SOPE   H6X18847   6.726   0.441   7.323  0.3754 -0.1897 -1.7975
  167SOPE   H6Y18848   6.617   0.292   7.362 -0.4092  0.6050 -0.2545
  167SOPE   C3718849   6.535   0.478   7.413  0.1892 -0.5740 -0.8990
  167SOPE   H7X18850   6.428   0.451   7.398  0.0517 -0.2853 -0.4571
  167SOPE   H7Y18851   6.551   0.585   7.387  1.6160 -0.7970 -1.0260
  167SOPE   C3818852   6.575   0.475   7.567  0.5648  0.0287  0.4386
  167SOPE   H8X18853   6.522   0.554   7.624 -1.2318 -0.2532 -0.7563
  167SOPE   H8Y18854   6.685   0.490   7.569  0.4254  1.9575 -1.8659
  167SOPE   C3918855   6.546   0.337   7.638 -0.0938  0.8141  0.0421
  167SOPE   H9X18856   6.612   0.258   7.597  0.7476  0.3993  2.1100
  167SOPE   H9Y18857   6.438   0.313   7.621  0.5355 -0.7068 -2.4889
  167SOPE  C31018858   6.555   0.342   7.793 -0.2360  0.7978 -0.6590
  167SOPE  H10X18859   6.658   0.372   7.822  0.4510 -3.0987  1.7348
  167SOPE  H10Y18860   6.528   0.243   7.834  0.5604  0.1274 -1.6762
  167SOPE  C31118861   6.465   0.445   7.866  1.0004 -0.2326  0.1451
  167SOPE  H11X18862   6.359   0.429   7.840  0.2569  2.5179  1.1108
  167SOPE  H11Y18863   6.474   0.545   7.818 -2.7680 -0.4951 -1.4180
  167SOPE  C31218864   6.481   0.438   8.020  0.7957  0.1136 -0.0762
  167SOPE  H12X18865   6.471   0.334   8.057  0.0550 -0.6099 -2.1698
  167SOPE  H12Y18866   6.408   0.506   8.068 -0.8418 -1.5937 -0.0239
  167SOPE  C31318867   6.629   0.485   8.076  0.3647 -0.3799  0.1712
  167SOPE  H13X18868   6.633   0.594   8.057 -0.6906 -0.3722 -0.0773
  167SOPE  H13Y18869   6.702   0.428   8.016 -1.1335 -1.5165 -0.6615
  167SOPE  C31418870   6.655   0.449   8.219  0.6661  0.5103  0.2647
  167SOPE  H14X18871   6.641   0.340   8.239  2.0637 -0.2982 -2.5368
  167SOPE  H14Y18872   6.584   0.508   8.279 -2.9848 -0.6274 -2.5589
  167SOPE  C31518873   6.800   0.473   8.256 -0.5494  0.3972 -0.4676
  167SOPE  H15X18874   6.840   0.570   8.219 -1.6851  1.1279  0.1605
  167SOPE  H15Y18875   6.859   0.385   8.222 -1.6552  0.3046 -2.3155
  167SOPE  C31618876   6.815   0.486   8.409 -0.1683 -0.4324 -0.1093
  167SOPE  H16X18877   6.764   0.397   8.452 -1.0345 -0.1334 -0.5176
  167SOPE  H16Y18878   6.758   0.575   8.443 -0.9693 -0.8738 -0.2884
  167SOPE  C31718879   6.955   0.498   8.461  0.0744  0.4366 -0.1900
  167SOPE  H17X18880   7.026   0.569   8.413  0.3744  2.3410  2.7775
  167SOPE  H17Y18881   7.010   0.402   8.450 -0.6818 -0.3607  2.2196
  167SOPE  C31818882   6.971   0.540   8.607 -0.0099 -0.4605 -0.2277
  167SOPE  H18X18883   7.079   0.560   8.623  0.2526 -0.7676 -1.5278
  167SOPE  H18Y18884   6.928   0.462   8.674 -1.3873  0.6551  0.2243
  167SOPE  H18Z18885   6.910   0.630   8.631 -2.9025 -1.9164 -1.5846
  168SOPE     N18886   0.684   3.549   6.753  0.1699 -0.2919 -0.1939
  168SOPE   HN118887   0.713   3.483   6.678 -2.1980 -0.4563 -1.0396
  168SOPE   HN218888   0.681   3.644   6.711  0.2378  0.4589  1.4410
  168SOPE   HN318889   0.756   3.553   6.828  0.4323 -0.8294 -0.4093
  168SOPE   C1218890   0.558   3.493   6.810 -0.6514 -0.0617  0.2424
  168SOPE  H12A18891   0.533   3.557   6.897  1.7569  3.7647 -1.5964
  168SOPE  H12B18892   0.588   3.397   6.856 -0.8053  0.3889  1.3004
  168SOPE   C1118893   0.456   3.481   6.700 -0.2792  1.1146 -0.1569
  168SOPE  H11A18894   0.511   3.499   6.605 -0.6458 -1.6197 -0.9618
  168SOPE  H11B18895   0.375   3.556   6.716 -1.7454 -0.2371 -0.9742
  168SOPE     P18896   0.293   3.300   6.604  0.2197  0.7944  0.0098
  168SOPE   O1318897   0.343   3.199   6.509 -0.0393  0.0157  0.2476
  168SOPE   O1418898   0.227   3.415   6.545 -0.0391 -0.4936 -0.3477
  168SOPE   O1218899   0.409   3.345   6.702 -0.3189  0.8522 -0.1467
  168SOPE   O1118900   0.185   3.223   6.702 -0.8655  0.6536  0.0992
  168SOPE    C118901   0.251   3.135   6.796  0.0634  0.9218  0.1477
  168SOPE    HA18902   0.287   3.192   6.884  2.4269 -0.4290  0.1317
  168SOPE    HB18903   0.329   3.075   6.743  0.7847  2.4686 -0.6055
  168SOPE    C218904   0.166   3.027   6.857 -0.3209  0.4099 -0.1056
  168SOPE    HS18905   0.127   2.974   6.768 -0.7970 -0.3338  0.5386
  168SOPE   O2118906   0.069   3.084   6.935  0.1579 -0.0511  0.2844
  168SOPE   C2118907  -0.042   3.005   6.953 -0.4009 -0.5472  0.1997
  168SOPE   O2218908  -0.052   2.901   6.895  0.8345  0.2468 -0.0876
  168SOPE   C2218909  -0.130   3.085   7.050  1.0205 -0.0081  0.5007
  168SOPE   H2R18910  -0.094   3.190   7.047  1.3818 -0.1540 -0.2952
  168SOPE   H2S18911  -0.101   3.047   7.151 -0.9985 -1.4032  0.6233
  168SOPE    C318912   0.248   2.927   6.943 -1.1920  0.2211 -0.9120
  168SOPE    HX18913   0.309   2.874   6.866 -2.0932  0.1952 -1.6151
  168SOPE    HY18914   0.174   2.860   6.991 -1.0277  1.0497  0.5473
  168SOPE   O3118915   0.333   2.996   7.041 -0.2177  0.1856 -0.2269
  168SOPE   C3118916   0.265   3.023   7.159 -0.2189  0.2946 -0.5586
  168SOPE   O3218917   0.151   2.987   7.185  0.1132 -0.0922  0.1202
  168SOPE   C3218918   0.359   3.105   7.241 -0.6142  0.1274 -0.7567
  168SOPE   H2X18919   0.361   3.206   7.194 -0.0831  0.4670 -0.0219
  168SOPE   H2Y18920   0.465   3.073   7.234 -0.9111 -1.4064  1.1650
  168SOPE   C2318921  -0.288   3.074   7.028 -0.0298  0.5947 -0.4003
  168SOPE   H3R18922  -0.310   2.969   6.999  1.8862 -0.0795  0.4253
  168SOPE   H3S18923  -0.313   3.148   6.950  0.2937  0.4035 -0.6906
  168SOPE   C2418924  -0.376   3.111   7.161 -0.7616  0.3219 -0.3447
  168SOPE   H4R18925  -0.483   3.113   7.134 -1.0518 -1.4589  0.5408
  168SOPE   H4S18926  -0.368   3.032   7.239  3.5234 -0.4950 -1.3322
  168SOPE   C2518927  -0.350   3.253   7.229 -0.0378 -0.1062  0.8208
  168SOPE   H5R18928  -0.252   3.234   7.277 -0.4038  0.2220  1.7125
  168SOPE   H5S18929  -0.337   3.330   7.149 -1.1041 -0.5420  0.2110
  168SOPE   C2618930  -0.449   3.316   7.322 -0.6013  0.1112  0.4271
  168SOPE   H6R18931  -0.411   3.415   7.358  1.0276 -0.1818 -0.3895
  168SOPE   H6S18932  -0.543   3.346   7.271 -0.5273 -0.9105 -0.3289
  168SOPE   C2718933  -0.475   3.227   7.440  0.2332  0.3169 -0.2634
  168SOPE   H7R18934  -0.516   3.131   7.400  0.7047 -0.1546  0.3664
  168SOPE   H7S18935  -0.380   3.203   7.492 -0.7556 -0.3616  1.3325
  168SOPE   C2818936  -0.584   3.281   7.541 -0.5083  0.3178 -0.3993
  168SOPE   H8R18937  -0.682   3.300   7.492 -2.2485 -2.0592  1.8534
  168SOPE   H8S18938  -0.609   3.198   7.610 -0.1105  0.8318  0.3813
  168SOPE   C2918939  -0.559   3.406   7.624 -0.3605  0.7787  0.0717
  168SOPE   H9118940  -0.601   3.502   7.591 -1.4005  0.3629  0.1432
  168SOPE  C21018941  -0.490   3.399   7.743 -0.1110  0.1663 -0.1518
  168SOPE  H10118942  -0.487   3.497   7.795  0.1260  1.5113 -2.5511
  168SOPE  C21118943  -0.426   3.279   7.811 -0.3351  0.0346  0.0878
  168SOPE  H11R18944  -0.317   3.293   7.826 -0.1134 -1.4397  0.0136
  168SOPE  H11S18945  -0.439   3.186   7.752  1.0341 -0.7973  1.0433
  168SOPE  C21218946  -0.473   3.254   7.955 -0.0566  0.2138 -0.0649
  168SOPE  H12R18947  -0.583   3.248   7.940  0.1704  0.0719 -1.9124
  168SOPE  H12S18948  -0.452   3.346   8.015  2.3859  1.0101 -1.9768
  168SOPE  C21318949  -0.411   3.125   8.013  0.1024  0.7801 -0.1668
  168SOPE  H13R18950  -0.303   3.151   8.020  0.3255  1.5064 -3.8941
  168SOPE  H13S18951  -0.433   3.047   7.937  0.3649 -0.8972  1.4089
  168SOPE  C21418952  -0.464   3.090   8.152  1.0221 -0.2720 -0.0559
  168SOPE  H14R18953  -0.573   3.069   8.143  1.2093 -1.2006 -0.2520
  168SOPE  H14S18954  -0.456   3.175   8.224  2.6487 -0.6745  0.2847
  168SOPE  C21518955  -0.404   2.961   8.214 -0.2446  0.8239 -0.1781
  168SOPE  H15R18956  -0.451   2.951   8.315 -0.9973  2.7425 -0.2789
  168SOPE  H15S18957  -0.294   2.971   8.226 -0.2534 -0.1132  0.8000
  168SOPE  C21618958  -0.418   2.823   8.134 -0.2597  0.1433 -0.1529
  168SOPE  H16R18959  -0.360   2.816   8.039 -2.8976  1.8031 -2.0353
  168SOPE  H16S18960  -0.518   2.808   8.089 -0.5487 -0.2751  0.6033
  168SOPE  C21718961  -0.397   2.697   8.221 -0.2587  0.5749  0.5752
  168SOPE  H17R18962  -0.316   2.706   8.296  0.7205 -1.3575 -0.1841
  168SOPE  H17S18963  -0.361   2.614   8.156 -3.2485  0.1090 -0.6655
  168SOPE  C21818964  -0.527   2.648   8.297 -0.1148 -0.3388 -0.1931
  168SOPE  H18R18965  -0.494   2.573   8.372  3.5627  0.0329 -1.2521
  168SOPE  H18S18966  -0.608   2.628   8.224 -0.0810 -1.4552  0.0618
  168SOPE  H18T18967  -0.564   2.736   8.354  1.3991  0.0122  0.2968
  168SOPE   C3318968   0.304   3.110   7.375  0.2069 -0.0469 -0.0844
  168SOPE   H3X18969   0.206   3.061   7.388  0.7637 -1.6636 -1.6546
  168SOPE   H3Y18970   0.283   3.217   7.398 -3.0820 -0.7709  0.8560
  168SOPE   C3418971   0.398   3.053   7.480  0.1284 -0.4212  0.2282
  168SOPE   H4X18972   0.502   3.086   7.460  0.4345 -1.9470 -0.8757
  168SOPE   H4Y18973   0.394   2.942   7.479  1.8442 -0.5176  0.9197
  168SOPE   C3518974   0.368   3.086   7.625  0.6241 -0.0767  0.0846
  168SOPE   H5X18975   0.429   3.035   7.704 -1.1178 -3.4516 -0.5611
  168SOPE   H5Y18976   0.262   3.083   7.658  0.5194  0.4818 -0.1953
  168SOPE   C3618977   0.415   3.229   7.659 -0.4541  0.5908  0.5698
  168SOPE   H6X18978   0.342   3.299   7.614 -1.0441  0.7694  1.7694
  168SOPE   H6Y18979   0.511   3.241   7.604 -0.6595  0.5571  0.2037
  168SOPE   C3718980   0.422   3.266   7.805 -0.2733  0.2018 -0.0616
  168SOPE   H7X18981   0.447   3.372   7.829  0.5210 -0.2970  1.4661
  168SOPE   H7Y18982   0.507   3.209   7.850 -0.9854  0.0299  1.1283
  168SOPE   C3818983   0.300   3.233   7.892  0.1221  0.3714 -0.7622
  168SOPE   H8X18984   0.274   3.126   7.881 -0.1800  0.3157  0.4020
  168SOPE   H8Y18985   0.208   3.286   7.858 -0.3555 -0.0811 -0.1907
  168SOPE   C3918986   0.307   3.281   8.039  0.2493 -1.0543 -0.1186
  168SOPE   H9X18987   0.212   3.257   8.090 -0.6236  0.7111 -0.8146
  168SOPE   H9Y18988   0.316   3.392   8.030 -3.4939 -0.6545 -0.3511
  168SOPE  C31018989   0.425   3.225   8.129 -0.1923  0.1488  0.0931
  168SOPE  H10X18990   0.434   3.290   8.219 -0.2486 -2.6412  2.2494
  168SOPE  H10Y18991   0.520   3.236   8.074 -0.5219 -2.6536 -1.1595
  168SOPE  C31118992   0.408   3.076   8.166  0.0021  0.0026  0.4239
  168SOPE  H11X18993   0.391   3.024   8.070  0.6498  0.3822  0.0968
  168SOPE  H11Y18994   0.312   3.066   8.221 -0.0951 -1.8566 -0.0239
  168SOPE  C31218995   0.531   3.015   8.237 -0.0297  0.0146 -0.0288
  168SOPE  H12X18996   0.630   3.033   8.188 -0.3831 -0.3576 -0.9013
  168SOPE  H12Y18997   0.501   2.908   8.246 -0.9742  0.4359  2.5354
  168SOPE  C31318998   0.557   3.059   8.388  0.8525  0.4061  0.9607
  168SOPE  H13X18999   0.455   3.054   8.431 -0.1273  1.7851 -1.0581
  168SOPE  H13Y19000   0.595   3.162   8.372  3.3463 -0.6418 -0.3915
  168SOPE  C31419001   0.670   2.976   8.458 -0.1678  0.5738  0.4620
  168SOPE  H14X19002   0.767   3.000   8.409 -0.0920  1.5138  1.0278
  168SOPE  H14Y19003   0.650   2.867   8.455 -0.4992  0.5956  1.3907
  168SOPE  C31519004   0.675   3.019   8.608  0.6016  0.3395  1.1456
  168SOPE  H15X19005   0.572   3.024   8.650 -0.1631 -0.5009 -0.5284
  168SOPE  H15Y19006   0.716   3.122   8.612 -1.8014  1.3170  2.0848
  168SOPE  C31619007   0.777   2.930   8.689 -0.3421 -0.0036  0.3078
  168SOPE  H16X19008   0.738   2.826   8.686  1.0055 -0.5878  1.5997
  168SOPE  H16Y19009   0.772   2.961   8.795 -0.8578  1.3765 -0.0899
  168SOPE  C31719010   0.933   2.933   8.649 -0.0609  0.0810  0.5214
  168SOPE  H17X19011   0.970   2.879   8.739 -2.9707 -0.7106  1.3302
  168SOPE  H17Y19012   0.975   3.036   8.655  1.1103 -0.4783  3.4226
  168SOPE  C31819013   0.981   2.851   8.523 -0.4956 -0.1691 -0.0255
  168SOPE  H18X19014   1.087   2.817   8.520 -0.0974  1.0020 -2.5915
  168SOPE  H18Y19015   0.965   2.916   8.434  3.4984  0.5733 -0.4058
  168SOPE  H18Z19016   0.912   2.765   8.518 -1.8500  0.8781  0.0902
  169SOPE     N19017   6.718   6.659   6.496 -0.0175  0.1541  0.1975
  169SOPE   HN119018   6.807   6.673   6.445  0.0202  3.5867  0.9585
  169SOPE   HN219019   6.639   6.617   6.443  0.9998 -1.2681 -0.2603
  169SOPE   HN319020   6.691   6.753   6.530  1.7986  0.6193  0.4498
  169SOPE   C1219021   6.719   6.564   6.607  0.5512 -0.8361  0.2795
  169SOPE  H12A19022   6.610   6.544   6.619  0.3889  0.4632  1.2869
  169SOPE  H12B19023   6.755   6.618   6.697 -0.7479 -1.8666  1.4369
  169SOPE   C1119024   6.792   6.434   6.580 -0.0425  0.1149 -0.1417
  169SOPE  H11A19025   6.715   6.381   6.521 -0.0925  0.3773 -0.3149
  169SOPE  H11B19026   6.807   6.382   6.677  1.6648 -1.4375 -1.1693
  169SOPE     P19027   7.019   6.327   6.505  0.0702  0.6367  0.0550
  169SOPE   O1319028   7.096   6.358   6.381  0.1111 -0.4570 -0.4769
  169SOPE   O1419029   6.959   6.191   6.502  0.5047  0.3061 -0.5475
  169SOPE   O1219030   6.911   6.437   6.512 -0.2828 -0.3545  0.0307
  169SOPE   O1119031   7.107   6.347   6.631  0.1093  0.3900  0.1446
  169SOPE    C119032   7.120   6.469   6.701  0.2444 -0.0716 -0.6895
  169SOPE    HA19033   7.035   6.537   6.680 -1.6341 -1.9752  0.4201
  169SOPE    HB19034   7.216   6.511   6.663 -0.2624  0.3581 -1.5298
  169SOPE    C219035   7.108   6.448   6.860  0.7992  0.7661  1.0140
  169SOPE    HS19036   7.035   6.522   6.899  0.8034 -0.0820  2.7315
  169SOPE   O2119037   7.236   6.447   6.924  0.2375  0.0609  0.1574
  169SOPE   C2119038   7.287   6.568   6.949  0.2054  0.7215  0.1530
  169SOPE   O2219039   7.232   6.673   6.947  0.1722 -0.1196  0.4926
  169SOPE   C2219040   7.433   6.560   6.997  0.1242  0.0035 -0.0718
  169SOPE   H2R19041   7.486   6.641   6.941  0.0291  0.5516  0.6153
  169SOPE   H2S19042   7.473   6.459   6.975  0.0543  0.3620 -2.0450
  169SOPE    C319043   7.040   6.309   6.883  0.1894 -0.1698 -0.3862
  169SOPE    HX19044   7.120   6.237   6.853  0.5900  0.1724 -0.1510
  169SOPE    HY19045   6.947   6.297   6.824  0.7434 -1.1756 -1.0798
  169SOPE   O3119046   7.008   6.303   7.026  0.6849 -0.6736 -0.1164
  169SOPE   C3119047   7.041   6.186   7.086  0.3874 -0.3949  0.2595
  169SOPE   O3219048   7.086   6.087   7.028  0.3466 -0.0883  0.1709
  169SOPE   C3219049   7.009   6.193   7.228 -0.3288 -0.0971 -0.5142
  169SOPE   H2X19050   6.925   6.121   7.237 -0.7521  0.4452 -0.0360
  169SOPE   H2Y19051   6.973   6.296   7.248  0.6086  0.1281  0.0681
  169SOPE   C2319052   7.453   6.592   7.145  0.3992  0.5821  0.1431
  169SOPE   H3R19053   7.394   6.682   7.170  0.9083  1.8834 -2.9003
  169SOPE   H3S19054   7.561   6.606   7.169 -0.0940  0.4761  2.7222
  169SOPE   C2419055   7.398   6.486   7.239 -0.0478 -0.2452 -0.4800
  169SOPE   H4R19056   7.288   6.477   7.234 -0.1508 -0.3848  1.5359
  169SOPE   H4S19057   7.445   6.393   7.202 -0.2036  0.3035 -2.1647
  169SOPE   C2519058   7.446   6.508   7.379 -0.2949 -0.1939  0.2992
  169SOPE   H5R19059   7.554   6.513   7.403 -0.3552 -2.0174  1.1104
  169SOPE   H5S19060   7.419   6.616   7.387 -0.6913 -0.2604 -0.0884
  169SOPE   C2619061   7.382   6.427   7.492 -0.3520  0.1711 -0.3233
  169SOPE   H6R19062   7.274   6.405   7.478 -0.4260 -0.0072  0.4666
  169SOPE   H6S19063   7.425   6.324   7.490 -1.4497 -0.3408  0.9315
  169SOPE   C2719064   7.412   6.489   7.633 -0.2737  0.2150  0.1964
  169SOPE   H7R19065   7.377   6.416   7.708  0.6276  1.0977  1.5131
  169SOPE   H7S19066   7.523   6.498   7.633 -0.1032 -1.6684  0.2262
  169SOPE   C2819067   7.354   6.625   7.661  0.5613 -0.6635  0.7143
  169SOPE   H8R19068   7.349   6.684   7.567  1.3773  0.3952  1.3098
  169SOPE   H8S19069   7.246   6.603   7.680  0.3570 -1.3943 -1.1156
  169SOPE   C2919070   7.429   6.696   7.778  0.4760  0.1029 -0.3704
  169SOPE   H9119071   7.459   6.627   7.858  0.6547 -0.5050 -0.9533
  169SOPE  C21019072   7.452   6.824   7.797  0.0308 -0.9690  0.0195
  169SOPE  H10119073   7.515   6.864   7.878  2.1404 -2.5195 -0.7546
  169SOPE  C21119074   7.416   6.917   7.687  0.2502 -0.3814  0.5269
  169SOPE  H11R19075   7.330   6.979   7.720 -0.1430 -0.7573  0.2143
  169SOPE  H11S19076   7.379   6.870   7.594 -1.0233  1.7664 -0.1307
  169SOPE  C21219077   7.531   7.020   7.666 -0.2435  0.5251  0.1893
  169SOPE  H12R19078   7.567   7.065   7.761 -1.3984 -3.7074  2.8990
  169SOPE  H12S19079   7.488   7.103   7.606  0.0135 -1.7967 -3.5219
  169SOPE  C21319080   7.648   6.955   7.587  0.3375 -1.6062  0.2426
  169SOPE  H13R19081   7.732   6.906   7.641  0.3779 -0.6547  1.0731
  169SOPE  H13S19082   7.697   7.044   7.542  1.1119 -2.5419 -0.8449
  169SOPE  C21419083   7.607   6.866   7.467  0.7280 -0.5526 -0.4635
  169SOPE  H14R19084   7.526   6.919   7.413  0.5671 -0.6552 -0.3233
  169SOPE  H14S19085   7.557   6.775   7.507  2.3059 -1.6445 -0.8700
  169SOPE  C21519086   7.720   6.824   7.379  0.5162  0.2539  0.3312
  169SOPE  H15R19087   7.680   6.741   7.317 -0.8674 -0.4574  2.1225
  169SOPE  H15S19088   7.804   6.779   7.435  0.4617  0.5511  0.6511
  169SOPE  C21619089   7.793   6.933   7.290 -0.2295 -0.6546 -0.4955
  169SOPE  H16R19090   7.838   7.002   7.365 -1.8326  0.7028 -0.7248
  169SOPE  H16S19091   7.718   7.000   7.243  2.1590 -0.1623 -3.9363
  169SOPE  C21719092   7.891   6.885   7.185  0.4423 -0.6495  0.4309
  169SOPE  H17R19093   7.968   6.814   7.221 -2.5301 -3.9558  0.8124
  169SOPE  H17S19094   7.952   6.974   7.157  0.2391 -0.6673 -0.0902
  169SOPE  C21819095   7.829   6.818   7.059  0.1955  0.0603 -0.2004
  169SOPE  H18R19096   7.769   6.897   7.008 -1.1580 -0.4988  0.4792
  169SOPE  H18S19097   7.763   6.735   7.092  0.7198  0.1488  1.1466
  169SOPE  H18T19098   7.910   6.778   6.995 -0.4799 -2.3505  0.3662
  169SOPE   C3319099   7.129   6.165   7.322 -0.9178 -0.6964 -0.3123
  169SOPE   H3X19100   7.197   6.250   7.305 -0.8633 -1.2664 -3.4005
  169SOPE   H3Y19101   7.187   6.073   7.300 -0.2027 -1.1152  2.8446
  169SOPE   C3419102   7.083   6.170   7.463  0.0635 -0.0136 -0.0617
  169SOPE   H4X19103   6.990   6.109   7.472 -0.5268  1.2049  4.5963
  169SOPE   H4Y19104   7.060   6.273   7.498 -3.6572 -0.9433  0.6484
  169SOPE   C3519105   7.183   6.116   7.555 -0.3982 -0.2669 -0.1483
  169SOPE   H5X19106   7.273   6.180   7.564  0.2467 -1.0969 -0.5931
  169SOPE   H5Y19107   7.215   6.019   7.513 -0.2152 -0.1619 -0.2525
  169SOPE   C3619108   7.118   6.111   7.693 -0.4247  0.2910  0.4238
  169SOPE   H6X19109   7.187   6.052   7.757  0.1122 -0.7728 -1.0707
  169SOPE   H6Y19110   7.022   6.053   7.694  0.3475 -1.0370 -0.0124
  169SOPE   C3719111   7.093   6.247   7.764 -0.0935  0.0868  0.0926
  169SOPE   H7X19112   6.992   6.234   7.809  0.7477 -2.8946  1.3441
  169SOPE   H7Y19113   7.093   6.322   7.681  0.2346  0.4877  0.4499
  169SOPE   C3819114   7.190   6.265   7.881  0.6941 -0.3654 -0.1055
  169SOPE   H8X19115   7.142   6.201   7.958 -0.4946  1.3116  0.6122
  169SOPE   H8Y19116   7.294   6.230   7.862  1.3639  0.3148  1.9515
  169SOPE   C3919117   7.171   6.404   7.931  0.2370  0.1959 -0.0385
  169SOPE   H9X19118   7.070   6.405   7.979  0.3573  1.1350  0.2380
  169SOPE   H9Y19119   7.160   6.479   7.849 -1.6696 -0.3236 -0.3223
  169SOPE  C31019120   7.277   6.440   8.043 -0.3884 -0.9148  0.2913
  169SOPE  H10X19121   7.380   6.451   8.003 -0.5218  0.5028  0.2852
  169SOPE  H10Y19122   7.283   6.368   8.127  0.8609 -0.4128  0.6517
  169SOPE  C31119123   7.253   6.579   8.109 -0.1926 -0.3984  0.4536
  169SOPE  H11X19124   7.153   6.590   8.156 -0.3764  0.3044 -0.0702
  169SOPE  H11Y19125   7.267   6.653   8.027  0.1929 -0.4794  0.4433
  169SOPE  C31219126   7.361   6.612   8.204  0.0252 -0.4370  0.0795
  169SOPE  H12X19127   7.450   6.640   8.144 -0.9211  0.1429 -1.0972
  169SOPE  H12Y19128   7.378   6.526   8.272  1.5516  0.3671  0.7616
  169SOPE  C31319129   7.336   6.730   8.294  0.3097  0.2940  0.2342
  169SOPE  H13X19130   7.405   6.720   8.381 -1.2894 -1.6585  1.3646
  169SOPE  H13Y19131   7.235   6.708   8.333  0.3483  1.0518  0.7867
  169SOPE  C31419132   7.346   6.869   8.230  0.2092 -0.1241  0.4452
  169SOPE  H14X19133   7.292   6.858   8.133  0.7610  0.9450 -0.0013
  169SOPE  H14Y19134   7.450   6.896   8.203  0.9513 -4.1622 -1.4268
  169SOPE  C31519135   7.290   6.979   8.325 -0.0261  0.2803 -0.3662
  169SOPE  H15X19136   7.357   6.988   8.413 -0.4654 -0.0629  0.0133
  169SOPE  H15Y19137   7.192   6.944   8.365  1.1356 -1.3793  1.2091
  169SOPE  C31619138   7.269   7.122   8.272 -0.0435 -0.7274 -0.2944
  169SOPE  H16X19139   7.363   7.175   8.243 -0.3243 -0.4775 -0.7539
  169SOPE  H16Y19140   7.212   7.181   8.347 -1.0801  0.7869 -2.1973
  169SOPE  C31719141   7.178   7.126   8.154 -0.0725  0.7350 -0.2161
  169SOPE  H17X19142   7.085   7.069   8.177 -0.2428  1.6814  1.5563
  169SOPE  H17Y19143   7.221   7.076   8.064 -0.8884 -0.5907  0.0966
  169SOPE  C31819144   7.144   7.263   8.106 -0.5289 -0.2396 -0.0064
  169SOPE  H18X19145   7.236   7.321   8.084 -1.3371  0.8387 -0.6373
  169SOPE  H18Y19146   7.097   7.310   8.195  2.2034  0.9713  0.9095
  169SOPE  H18Z19147   7.074   7.259   8.021  0.8957 -0.8231 -1.1984
  170SOPE     N19148   2.110   3.613   6.319  0.6668 -0.1321 -0.1755
  170SOPE   HN119149   2.212   3.630   6.311  0.8655 -1.7990 -1.6119
  170SOPE   HN219150   2.074   3.525   6.277 -0.8203  0.5255 -0.3738
  170SOPE   HN319151   2.064   3.693   6.269  1.4786  1.2209  1.1478
  170SOPE   C1219152   2.064   3.620   6.467  0.1367  0.1379 -0.5534
  170SOPE  H12A19153   2.157   3.579   6.513  0.5612  0.7134 -0.8744
  170SOPE  H12B19154   1.981   3.549   6.485  1.5252 -1.3527  0.3179
  170SOPE   C1119155   2.030   3.755   6.517  0.3971 -0.1675  0.6658
  170SOPE  H11A19156   2.003   3.751   6.624 -1.0676  1.9644  0.4410
  170SOPE  H11B19157   1.942   3.789   6.458 -1.5214 -2.4296  2.0560
  170SOPE     P19158   2.244   3.860   6.616 -0.0039  0.3151 -0.1032
  170SOPE   O1319159   2.340   3.965   6.573  0.0648 -0.8454 -0.5617
  170SOPE   O1419160   2.294   3.727   6.653  0.3588  0.1391 -0.2128
  170SOPE   O1219161   2.137   3.849   6.497 -0.0242  0.5980 -0.5525
  170SOPE   O1119162   2.153   3.913   6.741  0.3504  0.2235 -0.1115
  170SOPE    C119163   2.125   4.056   6.736  0.1363 -0.3344 -0.0597
  170SOPE    HA19164   2.070   4.084   6.643  1.5508 -0.8487 -1.0905
  170SOPE    HB19165   2.220   4.114   6.734  0.5391 -0.9982 -1.4819
  170SOPE    C219166   2.028   4.102   6.847 -0.2003  0.4256 -0.0492
  170SOPE    HS19167   2.018   4.213   6.841  0.6590  0.4942 -0.3778
  170SOPE   O2119168   2.059   4.054   6.979  0.0878 -0.7360  0.3492
  170SOPE   C2119169   2.172   4.088   7.028 -0.2179 -0.2617  1.1146
  170SOPE   O2219170   2.245   4.177   6.984 -0.0158 -0.1107 -0.1908
  170SOPE   C2219171   2.196   4.026   7.166  0.2030 -0.0134 -0.0630
  170SOPE   H2R19172   2.295   3.978   7.153 -0.7874 -1.5065 -3.0190
  170SOPE   H2S19173   2.127   3.940   7.180  0.1427  0.3318  1.9364
  170SOPE    C319174   1.890   4.032   6.814  0.2053  0.2905  0.0618
  170SOPE    HX19175   1.912   3.929   6.779 -0.4362 -0.8624  2.8508
  170SOPE    HY19176   1.852   4.090   6.727  1.7090 -1.2601 -1.7186
  170SOPE   O3119177   1.794   4.047   6.919  0.5188  0.2744  0.2862
  170SOPE   C3119178   1.755   3.948   6.995 -0.1645 -0.3632  0.2701
  170SOPE   O3219179   1.777   3.829   6.980  0.1353 -0.2146 -0.3371
  170SOPE   C3219180   1.655   4.006   7.101  0.0544  0.0944  0.3564
  170SOPE   H2X19181   1.561   3.949   7.090 -0.1179  0.4698 -0.1725
  170SOPE   H2Y19182   1.634   4.111   7.070  1.6008  0.5824  0.8298
  170SOPE   C2319183   2.193   4.119   7.289  0.3969 -0.0007  0.6247
  170SOPE   H3R19184   2.092   4.164   7.303 -0.1165 -0.0926 -2.2615
  170SOPE   H3S19185   2.261   4.206   7.281 -0.8878  1.0174  0.4015
  170SOPE   C2419186   2.229   4.043   7.420 -0.3304 -0.1051 -0.0656
  170SOPE   H4R19187   2.158   3.961   7.444 -0.9506  0.7456  1.1680
  170SOPE   H4S19188   2.326   3.992   7.407  0.3659  1.4007 -1.1014
  170SOPE   C2519189   2.233   4.128   7.550 -0.6870 -0.3824 -0.5516
  170SOPE   H5R19190   2.319   4.198   7.550 -0.0211 -1.1470  1.1509
  170SOPE   H5S19191   2.145   4.195   7.560  0.5042  1.5269 -2.1594
  170SOPE   C2619192   2.229   4.047   7.682  0.1441  0.0576 -0.9929
  170SOPE   H6R19193   2.140   3.981   7.671  2.3917 -3.3409 -0.3768
  170SOPE   H6S19194   2.323   3.986   7.682 -0.3293 -0.8007 -3.5948
  170SOPE   C2719195   2.211   4.139   7.808  0.0948  0.7966  0.2525
  170SOPE   H7R19196   2.294   4.212   7.813  0.9340 -0.1919  1.3988
  170SOPE   H7S19197   2.113   4.191   7.801  0.5596  1.4983 -1.6630
  170SOPE   C2819198   2.210   4.063   7.938  0.1813 -0.6715 -0.4893
  170SOPE   H8R19199   2.159   3.966   7.922 -0.5104 -0.8521  2.2278
  170SOPE   H8S19200   2.309   4.032   7.977 -0.5105 -1.5128  0.6730
  170SOPE   C2919201   2.142   4.140   8.055  0.6283  0.2236  0.9246
  170SOPE   H9119202   2.168   4.246   8.069 -1.5706  1.1840 -1.5332
  170SOPE  C21019203   2.060   4.085   8.150  0.4301  0.2876  0.0113
  170SOPE  H10119204   2.018   4.151   8.227 -1.7452  0.8348 -1.5647
  170SOPE  C21119205   2.012   3.944   8.149  0.1169 -0.6537 -0.3900
  170SOPE  H11R19206   2.002   3.909   8.044 -0.9189  1.7118 -1.1580
  170SOPE  H11S19207   1.908   3.937   8.188 -0.4043 -1.4836 -1.8415
  170SOPE  C21219208   2.102   3.855   8.236  0.1383 -0.3130  0.0080
  170SOPE  H12R19209   2.210   3.866   8.213 -0.0900 -1.6441 -1.9678
  170SOPE  H12S19210   2.077   3.747   8.240  1.5015 -0.6175  0.8702
  170SOPE  C21319211   2.104   3.885   8.389  0.0017 -0.7804  0.2363
  170SOPE  H13R19212   1.999   3.917   8.406  0.2782  1.4758 -1.7804
  170SOPE  H13S19213   2.162   3.977   8.410 -1.3222  0.1077  0.1452
  170SOPE  C21419214   2.159   3.776   8.482  0.6173 -0.0912 -0.4170
  170SOPE  H14R19215   2.098   3.686   8.460  0.1451 -0.2178  1.2456
  170SOPE  H14S19216   2.126   3.796   8.586  1.6515 -1.2051  0.1403
  170SOPE  C21519217   2.320   3.770   8.477  0.1345 -0.4602  0.4017
  170SOPE  H15R19218   2.362   3.833   8.396 -0.7880  1.2370  1.1834
  170SOPE  H15S19219   2.350   3.665   8.458 -1.8474 -0.6966 -1.9715
  170SOPE  C21619220   2.388   3.814   8.604  0.8267  0.0783  0.3335
  170SOPE  H16R19221   2.332   3.776   8.692 -1.1924  0.8272 -0.5783
  170SOPE  H16S19222   2.400   3.925   8.603  1.0056  0.1252 -3.0922
  170SOPE  C21719223   2.523   3.746   8.619 -0.3352  0.0701  0.4980
  170SOPE  H17R19224   2.589   3.771   8.533  0.2455  1.8407  1.4134
  170SOPE  H17S19225   2.506   3.636   8.614  1.7334 -0.2382 -1.1435
  170SOPE  C21819226   2.588   3.770   8.755 -0.2465  0.0281 -0.2148
  170SOPE  H18R19227   2.519   3.732   8.833 -1.0596 -1.7182 -1.7193
  170SOPE  H18S19228   2.616   3.878   8.758  0.0501 -0.0212 -1.0566
  170SOPE  H18T19229   2.684   3.714   8.762 -2.1084 -3.5904 -1.3245
  170SOPE   C3319230   1.701   4.002   7.243  0.2423  0.4169 -0.5850
  170SOPE   H3X19231   1.746   3.905   7.272  0.4673  0.7281  0.1295
  170SOPE   H3Y19232   1.610   4.017   7.306 -2.5653  0.8352 -4.3838
  170SOPE   C3419233   1.811   4.102   7.289  0.5116  0.0194 -0.4255
  170SOPE   H4X19234   1.794   4.201   7.240  4.9103  0.6261 -1.1509
  170SOPE   H4Y19235   1.893   4.066   7.223 -0.1983 -0.8539 -0.8492
  170SOPE   C3519236   1.836   4.117   7.440 -0.0007  0.3061  0.4355
  170SOPE   H5X19237   1.927   4.176   7.468 -0.2459 -0.0569  2.1253
  170SOPE   H5Y19238   1.848   4.018   7.489 -2.6068 -0.1219  0.3214
  170SOPE   C3619239   1.731   4.195   7.515 -0.2297  0.1662  0.5387
  170SOPE   H6X19240   1.635   4.145   7.487  2.1822 -3.4432 -2.1180
  170SOPE   H6Y19241   1.728   4.294   7.464  1.3131  0.3945  0.8573
  170SOPE   C3719242   1.769   4.228   7.660 -0.4778  0.0603 -0.1744
  170SOPE   H7X19243   1.709   4.314   7.697 -1.2257 -0.7244  0.4623
  170SOPE   H7Y19244   1.874   4.263   7.665 -0.4223  0.0241 -0.8941
  170SOPE   C3819245   1.748   4.110   7.760 -0.0320 -0.2412 -0.0810
  170SOPE   H8X19246   1.835   4.044   7.739 -0.5691 -0.1914 -2.7737
  170SOPE   H8Y19247   1.649   4.063   7.740 -1.0476  1.4729  0.6661
  170SOPE   C3919248   1.744   4.158   7.906 -0.0244  0.3708 -0.2513
  170SOPE   H9X19249   1.817   4.240   7.924  0.8521 -0.0442 -1.6948
  170SOPE   H9Y19250   1.767   4.077   7.979 -1.7788 -0.2786 -0.3605
  170SOPE  C31019251   1.603   4.193   7.950  0.0427 -0.1614 -0.1556
  170SOPE  H10X19252   1.544   4.100   7.961  1.3420 -0.8539  1.3384
  170SOPE  H10Y19253   1.558   4.255   7.870 -1.8849  0.0236  1.0192
  170SOPE  C31119254   1.607   4.272   8.084 -0.1092  0.5073 -0.3610
  170SOPE  H11X19255   1.501   4.301   8.099 -0.7809 -1.4249 -1.0541
  170SOPE  H11Y19256   1.657   4.369   8.066 -0.5392  1.3724  2.5721
  170SOPE  C31219257   1.670   4.190   8.198  0.3737  0.2433  0.6885
  170SOPE  H12X19258   1.780   4.185   8.207  0.2235 -1.2862  2.0763
  170SOPE  H12Y19259   1.631   4.087   8.185 -0.8237  1.0053 -3.0152
  170SOPE  C31319260   1.644   4.237   8.336  0.3998  0.1903 -0.1289
  170SOPE  H13X19261   1.536   4.231   8.364  0.7873  3.4896  2.6885
  170SOPE  H13Y19262   1.663   4.346   8.339  0.9790  0.2113 -2.4612
  170SOPE  C31419263   1.718   4.162   8.451  0.0717 -1.0343 -0.0343
  170SOPE  H14X19264   1.681   4.210   8.544 -0.0120  0.5259 -0.8449
  170SOPE  H14Y19265   1.829   4.164   8.446  0.1423 -1.2400  1.2643
  170SOPE  C31519266   1.678   4.014   8.462  0.1324  1.0483 -0.4511
  170SOPE  H15X19267   1.710   3.979   8.362  4.7648 -0.5164  1.3047
  170SOPE  H15Y19268   1.567   4.008   8.469 -0.0665 -0.1496 -3.4342
  170SOPE  C31619269   1.759   3.944   8.572  0.5762 -0.2639 -0.1123
  170SOPE  H16X19270   1.726   3.966   8.676  1.1168  0.4654 -0.0880
  170SOPE  H16Y19271   1.864   3.977   8.564  0.0646  1.5669  0.3675
  170SOPE  C31719272   1.747   3.788   8.563  0.3459 -0.1316 -0.4361
  170SOPE  H17X19273   1.796   3.745   8.474  0.3561  0.9795 -0.9897
  170SOPE  H17Y19274   1.638   3.770   8.575 -0.6204  4.4353 -0.2263
  170SOPE  C31819275   1.815   3.715   8.671  0.9238 -0.6536 -0.6697
  170SOPE  H18X19276   1.775   3.732   8.774 -1.2590  1.1065 -1.7257
  170SOPE  H18Y19277   1.923   3.740   8.665  0.6422  0.4059 -1.7998
  170SOPE  H18Z19278   1.814   3.605   8.651  1.2112 -0.7399 -0.2375
  171SOPE     N19279   1.624   0.316   6.447  0.5864 -0.3237 -0.3534
  171SOPE   HN119280   1.715   0.354   6.480  0.6440  0.8452 -1.7674
  171SOPE   HN219281   1.629   0.213   6.459  2.7930 -0.4847 -2.1768
  171SOPE   HN319282   1.599   0.349   6.352 -0.3896 -0.3632 -0.1261
  171SOPE   C1219283   1.520   0.351   6.551 -0.8749  0.2105  0.6951
  171SOPE  H12A19284   1.513   0.462   6.544 -0.3302  0.2255  0.2419
  171SOPE  H12B19285   1.564   0.311   6.645 -0.9300 -2.7043 -0.3984
  171SOPE   C1119286   1.393   0.290   6.499 -0.7796 -0.5571  0.6661
  171SOPE  H11A19287   1.322   0.292   6.584 -2.1909 -1.3815 -0.4411
  171SOPE  H11B19288   1.405   0.185   6.466 -2.1418 -0.5535  0.0468
  171SOPE     P19289   1.251   0.494   6.391 -0.3576 -0.1242  0.2706
  171SOPE   O1319290   1.133   0.471   6.303  0.1533 -0.1331 -0.8669
  171SOPE   O1419291   1.336   0.608   6.351  0.3146  0.1751 -0.2098
  171SOPE   O1219292   1.340   0.366   6.388 -0.5492  0.4161 -0.9707
  171SOPE   O1119293   1.203   0.511   6.542  0.6851 -0.1406  0.0022
  171SOPE    C119294   1.068   0.483   6.578  0.0030 -0.2798 -0.1224
  171SOPE    HA19295   1.040   0.377   6.557 -2.7331  0.4016 -0.2860
  171SOPE    HB19296   1.002   0.549   6.517  2.1177 -0.2181 -2.5256
  171SOPE    C219297   1.040   0.489   6.734  0.7130  0.1437  0.4006
  171SOPE    HS19298   0.931   0.511   6.734  0.3952 -1.2618 -1.1752
  171SOPE   O2119299   1.122   0.602   6.781 -0.4613 -0.4024  0.0969
  171SOPE   C2119300   1.079   0.724   6.743  0.1090  0.3974 -0.3457
  171SOPE   O2219301   0.978   0.744   6.677 -0.1672  0.0938  0.0462
  171SOPE   C2219302   1.159   0.833   6.799 -0.0591 -0.3147  0.1356
  171SOPE   H2R19303   1.177   0.905   6.715  2.5927  0.9933  1.6772
  171SOPE   H2S19304   1.251   0.790   6.843 -1.4327 -1.0827  2.4122
  171SOPE    C319305   1.074   0.356   6.814  0.1831 -0.5727  0.2992
  171SOPE    HX19306   1.179   0.321   6.801  0.7134  0.6201  1.1723
  171SOPE    HY19307   1.004   0.290   6.759 -1.1066 -0.1848  1.4268
  171SOPE   O3119308   1.023   0.361   6.948 -0.0207  0.1427  0.0818
  171SOPE   C3119309   1.112   0.429   7.023 -0.8107 -0.2237 -0.1088
  171SOPE   O3219310   1.231   0.452   7.000 -0.1007  0.0008  0.1208
  171SOPE   C3219311   1.046   0.488   7.143  0.3335  0.0582  0.4238
  171SOPE   H2X19312   0.969   0.413   7.171 -0.4562 -0.0933 -1.9572
  171SOPE   H2Y19313   0.996   0.582   7.113  0.6585 -0.0190 -0.3684
  171SOPE   C2319314   1.078   0.918   6.893 -0.2930  0.3534  0.5863
  171SOPE   H3R19315   0.992   0.967   6.844  0.0141  0.3236  0.0069
  171SOPE   H3S19316   1.135   1.010   6.917 -0.2859  0.5362 -0.1069
  171SOPE   C2419317   1.039   0.863   7.028  0.3630 -0.4540 -0.4935
  171SOPE   H4R19318   0.958   0.788   7.018 -0.2222  0.2998 -1.5780
  171SOPE   H4S19319   1.126   0.806   7.068 -2.1508 -4.2421  0.0740
  171SOPE   C2519320   0.976   0.971   7.123 -0.0014 -0.0885  0.0156
  171SOPE   H5R19321   1.028   1.068   7.109 -2.1674  1.1311 -0.0413
  171SOPE   H5S19322   0.870   0.985   7.094 -0.9970 -1.1693  2.7844
  171SOPE   C2619323   0.986   0.923   7.273 -0.2079  0.2063  0.0673
  171SOPE   H6R19324   0.930   0.827   7.282  1.2839 -0.9653 -2.1347
  171SOPE   H6S19325   1.089   0.893   7.301  0.6585  0.8843 -2.1288
  171SOPE   C2719326   0.938   1.017   7.380  0.0620 -0.0073 -0.8989
  171SOPE   H7R19327   0.991   1.112   7.355 -0.2336  0.4625  0.2068
  171SOPE   H7S19328   0.830   1.039   7.365  0.2555  2.1323  0.4148
  171SOPE   C2819329   0.954   0.978   7.524 -0.7383  0.7041 -0.2839
  171SOPE   H8R19330   0.898   0.882   7.529 -2.1859  1.3187 -2.8626
  171SOPE   H8S19331   1.057   0.952   7.556 -0.1225 -0.0410 -2.6628
  171SOPE   C2919332   0.894   1.086   7.621 -0.0751  0.4529  0.2167
  171SOPE   H9119333   0.830   1.168   7.584 -2.4879 -1.1105  0.6921
  171SOPE  C21019334   0.920   1.079   7.751 -0.4612 -0.3554 -0.3739
  171SOPE  H10119335   0.876   1.160   7.811 -3.0106 -1.6998 -0.3145
  171SOPE  C21119336   1.002   0.975   7.820 -0.4929  0.6463 -0.3343
  171SOPE  H11R19337   1.110   0.978   7.793 -0.5588  1.5500 -0.5381
  171SOPE  H11S19338   0.987   0.867   7.800  2.5528 -0.1646  1.0794
  171SOPE  C21219339   0.993   0.990   7.969 -0.5152  0.2314  0.3010
  171SOPE  H12R19340   0.892   0.954   7.998 -0.2588  0.1159  1.0750
  171SOPE  H12S19341   1.010   1.097   7.994 -1.5114  0.1302  1.5279
  171SOPE  C21319342   1.087   0.896   8.049 -0.9728 -0.0199 -0.1265
  171SOPE  H13R19343   1.190   0.922   8.015 -0.3288 -2.5212 -0.2924
  171SOPE  H13S19344   1.071   0.786   8.038 -0.0118 -0.1796 -0.0643
  171SOPE  C21419345   1.063   0.919   8.201  0.2122  0.8365 -0.5113
  171SOPE  H14R19346   0.956   0.908   8.227 -0.0779  0.3596 -1.7964
  171SOPE  H14S19347   1.102   1.020   8.225 -2.1148  1.7297 -0.2589
  171SOPE  C21519348   1.152   0.820   8.291 -0.2762  0.5299 -1.0411
  171SOPE  H15R19349   1.259   0.831   8.262  0.1550 -1.9252 -0.6334
  171SOPE  H15S19350   1.127   0.716   8.260  1.2429  0.1010 -0.8991
  171SOPE  C21619351   1.136   0.862   8.445 -0.5210  0.1430  0.0798
  171SOPE  H16R19352   1.028   0.860   8.468 -0.6148  0.8592 -0.2602
  171SOPE  H16S19353   1.175   0.966   8.456  1.7903 -0.8448  2.0931
  171SOPE  C21719354   1.205   0.757   8.536 -0.0998 -0.0801 -0.0909
  171SOPE  H17R19355   1.311   0.773   8.508 -0.4311 -1.4459 -2.4013
  171SOPE  H17S19356   1.174   0.653   8.513 -0.4035 -0.5279  2.1169
  171SOPE  C21819357   1.182   0.782   8.687  0.2283  0.3953 -0.8221
  171SOPE  H18R19358   1.078   0.757   8.718  0.8495  1.8963  2.9878
  171SOPE  H18S19359   1.205   0.888   8.708  0.5762  0.2853 -0.6479
  171SOPE  H18T19360   1.247   0.716   8.749 -0.5368 -0.8111 -1.2673
  171SOPE   C3319361   1.144   0.504   7.267  1.2813 -0.1611  0.4149
  171SOPE   H3X19362   1.199   0.599   7.247  2.1825 -0.7516  0.0180
  171SOPE   H3Y19363   1.215   0.420   7.283 -0.0902 -1.4227  0.0352
  171SOPE   C3419364   1.055   0.528   7.393  0.7069  0.5723 -0.1945
  171SOPE   H4X19365   0.986   0.441   7.404  0.4566  0.7191 -0.5449
  171SOPE   H4Y19366   0.988   0.616   7.382  0.4823  0.1696 -2.8256
  171SOPE   C3519367   1.132   0.554   7.524 -0.1278 -0.0197  0.3045
  171SOPE   H5X19368   1.203   0.633   7.492  0.3358 -0.4493  0.2478
  171SOPE   H5Y19369   1.183   0.463   7.563 -1.4440 -1.1671 -0.5661
  171SOPE   C3619370   1.043   0.607   7.641  0.1155  0.0239  0.4478
  171SOPE   H6X19371   1.015   0.711   7.615  0.6430 -0.0565 -0.4805
  171SOPE   H6Y19372   1.105   0.627   7.732 -0.1720 -1.0338  0.8977
  171SOPE   C3719373   0.923   0.519   7.673  0.3620 -0.4414  0.2563
  171SOPE   H7X19374   0.956   0.416   7.699 -1.5648 -1.1551  0.0660
  171SOPE   H7Y19375   0.861   0.501   7.582 -0.2161 -1.0153  0.7532
  171SOPE   C3819376   0.836   0.563   7.786 -0.0339 -0.1179  0.2222
  171SOPE   H8X19377   0.740   0.509   7.771  0.3346 -0.2837 -1.8026
  171SOPE   H8Y19378   0.812   0.671   7.774  0.4906 -0.0098  0.1357
  171SOPE   C3919379   0.888   0.531   7.927  0.1817 -0.4059  0.2510
  171SOPE   H9X19380   0.986   0.582   7.940  1.3839 -2.3237 -0.8727
  171SOPE   H9Y19381   0.910   0.424   7.950  0.9785 -0.2012  0.4677
  171SOPE  C31019382   0.789   0.574   8.036  0.9968  0.3031  0.5000
  171SOPE  H10X19383   0.692   0.521   8.032  0.0107  2.1369 -0.7665
  171SOPE  H10Y19384   0.753   0.677   8.017 -0.2688 -0.2971 -0.5135
  171SOPE  C31119385   0.833   0.565   8.185  0.3345  0.4339  0.2731
  171SOPE  H11X19386   0.930   0.619   8.181  0.0593  0.8683 -2.5884
  171SOPE  H11Y19387   0.856   0.461   8.218  1.0906  0.1372 -1.1014
  171SOPE  C31219388   0.742   0.640   8.287  0.7794  0.6546 -0.1712
  171SOPE  H12X19389   0.635   0.623   8.266  1.1081 -1.0886 -0.5648
  171SOPE  H12Y19390   0.766   0.749   8.281  0.0391  0.7651 -1.2829
  171SOPE  C31319391   0.775   0.593   8.434  0.4392 -0.0003  0.5414
  171SOPE  H13X19392   0.877   0.550   8.438  0.4346  0.1139  3.7213
  171SOPE  H13Y19393   0.707   0.507   8.457 -0.3437  0.2697 -0.6491
  171SOPE  C31419394   0.758   0.701   8.533  0.9383 -0.2543  0.1368
  171SOPE  H14X19395   0.808   0.798   8.512  0.5406  0.2071  1.2326
  171SOPE  H14Y19396   0.790   0.665   8.633  1.8855 -0.3304 -0.1871
  171SOPE  C31519397   0.601   0.730   8.556  0.1168 -0.2876  0.0449
  171SOPE  H15X19398   0.541   0.640   8.578 -0.7623  0.5637  1.2496
  171SOPE  H15Y19399   0.562   0.772   8.461  0.5608 -1.1175 -0.5205
  171SOPE  C31619400   0.575   0.812   8.685 -0.1304  0.2416 -0.3672
  171SOPE  H16X19401   0.480   0.870   8.679 -0.1080  0.1460 -1.9839
  171SOPE  H16Y19402   0.652   0.892   8.689  0.4855 -0.3582 -0.1009
  171SOPE  C31719403   0.588   0.728   8.821 -0.3519 -0.7384 -0.4362
  171SOPE  H17X19404   0.682   0.669   8.826 -1.6708 -2.9758 -0.6966
  171SOPE  H17Y19405   0.503   0.657   8.808 -0.8669  0.2145 -2.6841
  171SOPE  C31819406   0.573   0.828   8.936 -0.4532 -0.0753  0.1239
  171SOPE  H18X19407   0.591   0.783   9.037 -0.7398  0.7124  0.5347
  171SOPE  H18Y19408   0.477   0.883   8.935  0.4912  1.6397 -0.2462
  171SOPE  H18Z19409   0.644   0.912   8.923 -1.8565  0.8380 -2.2181
  172SOPE     N19410   3.978   3.239   6.433  0.6169  0.5856  0.0955
  172SOPE   HN119411   4.043   3.159   6.414 -0.6462 -0.4206 -0.1451
  172SOPE   HN219412   3.912   3.248   6.353 -0.5607  0.5542  1.0430
  172SOPE   HN319413   4.028   3.327   6.454 -4.0429  3.3300  1.0146
  172SOPE   C1219414   3.904   3.193   6.557 -0.3614  0.2478  0.5240
  172SOPE  H12A19415   3.972   3.164   6.640 -0.9872 -1.3959  0.5019
  172SOPE  H12B19416   3.847   3.103   6.527 -1.1865  0.9935 -0.2126
  172SOPE   C1119417   3.810   3.300   6.619 -0.3917 -0.0771  0.3737
  172SOPE  H11A19418   3.880   3.372   6.665  1.5818 -1.6441 -0.0517
  172SOPE  H11B19419   3.739   3.256   6.693 -0.8014 -0.7856 -0.4188
  172SOPE     P19420   3.719   3.523   6.505 -0.0530  0.0483  0.2875
  172SOPE   O1319421   3.586   3.561   6.448 -0.0711 -0.3586 -0.0590
  172SOPE   O1419422   3.832   3.575   6.423 -0.3550 -0.8280 -0.7865
  172SOPE   O1219423   3.729   3.364   6.516 -1.0443  0.5151 -0.4248
  172SOPE   O1119424   3.725   3.581   6.649 -0.2372  0.3364  0.3907
  172SOPE    C119425   3.617   3.575   6.741 -0.3892 -0.0000  0.2132
  172SOPE    HA19426   3.655   3.519   6.829  0.7385 -2.1999 -1.5939
  172SOPE    HB19427   3.528   3.519   6.707 -1.2425  0.8472  0.9560
  172SOPE    C219428   3.573   3.712   6.779  0.1053  0.0796 -0.9915
  172SOPE    HS19429   3.578   3.775   6.687  3.2422  0.2137 -0.8208
  172SOPE   O2119430   3.678   3.767   6.867  0.0482  0.6243  0.0726
  172SOPE   C2119431   3.671   3.892   6.910  0.3226  0.5830  0.3105
  172SOPE   O2219432   3.611   3.978   6.848 -0.5507 -0.5319  0.1173
  172SOPE   C2219433   3.738   3.912   7.045 -0.3580  0.1620 -0.3930
  172SOPE   H2R19434   3.737   3.818   7.103 -0.6982 -0.4679 -1.3993
  172SOPE   H2S19435   3.686   3.988   7.107  0.2084  2.2127 -2.2702
  172SOPE    C319436   3.429   3.722   6.838  0.5865  0.0988 -0.0966
  172SOPE    HX19437   3.363   3.691   6.754 -0.3087 -0.9674  0.9637
  172SOPE    HY19438   3.407   3.829   6.859 -1.9803 -0.6101  1.3440
  172SOPE   O3119439   3.402   3.638   6.952 -0.1004 -0.3336 -0.3070
  172SOPE   C3119440   3.387   3.685   7.076  0.2116 -0.8020 -0.1755
  172SOPE   O3219441   3.395   3.801   7.103  0.4956 -0.2732 -0.6067
  172SOPE   C3219442   3.358   3.570   7.173  0.4467 -0.2935 -0.1063
  172SOPE   H2X19443   3.273   3.508   7.138 -0.1848  0.8674 -0.6865
  172SOPE   H2Y19444   3.333   3.620   7.270  3.7866 -1.0669  1.2957
  172SOPE   C2319445   3.881   3.966   7.026  0.3923  0.2887  0.6169
  172SOPE   H3R19446   3.875   4.068   6.981  0.2445  0.0992  0.1976
  172SOPE   H3S19447   3.933   3.897   6.956 -2.3398  1.0587 -2.4382
  172SOPE   C2419448   3.960   3.980   7.153  0.1245 -0.3296  1.0610
  172SOPE   H4R19449   3.905   4.051   7.217 -2.0503 -2.5088  1.7702
  172SOPE   H4S19450   3.964   3.888   7.216 -1.2799 -1.3102 -0.2146
  172SOPE   C2519451   4.105   4.036   7.121  0.3445  0.0031 -0.8954
  172SOPE   H5R19452   4.152   3.956   7.060  1.1781 -1.0491  1.0660
  172SOPE   H5S19453   4.108   4.124   7.053  2.4027 -0.3796 -1.3564
  172SOPE   C2619454   4.179   4.073   7.250 -0.9489  0.1223  0.1559
  172SOPE   H6R19455   4.282   4.108   7.226 -1.1205  0.2091 -0.4530
  172SOPE   H6S19456   4.144   4.162   7.308  0.5220 -0.6653  2.4246
  172SOPE   C2719457   4.189   3.951   7.343 -0.5104 -0.2879  0.4666
  172SOPE   H7R19458   4.094   3.915   7.387 -1.2333  1.1938  0.1805
  172SOPE   H7S19459   4.254   3.869   7.305  0.4140 -0.1215  1.6309
  172SOPE   C2819460   4.266   4.004   7.464 -0.0584 -0.0005  0.1369
  172SOPE   H8R19461   4.354   4.058   7.423  0.8861 -1.7806 -0.2530
  172SOPE   H8S19462   4.192   4.066   7.520 -2.1007 -1.7370 -0.5067
  172SOPE   C2919463   4.322   3.896   7.550 -0.3377 -0.2646 -0.2173
  172SOPE   H9119464   4.416   3.856   7.510  1.0508  1.4092  1.1861
  172SOPE  C21019465   4.282   3.853   7.676  0.3643  0.3543  0.3375
  172SOPE  H10119466   4.335   3.770   7.725 -2.2031 -0.7228  1.4263
  172SOPE  C21119467   4.176   3.913   7.761 -0.2376 -0.4783 -0.2974
  172SOPE  H11R19468   4.107   3.832   7.794 -0.9039  0.7298  1.4208
  172SOPE  H11S19469   4.107   3.979   7.704 -1.9786 -1.5729  0.4429
  172SOPE  C21219470   4.236   3.983   7.889  0.1860  0.1640 -0.0705
  172SOPE  H12R19471   4.258   4.084   7.849  0.2654  0.0082 -0.4164
  172SOPE  H12S19472   4.326   3.930   7.928 -1.0718  0.0479  3.0375
  172SOPE  C21319473   4.129   4.000   8.004 -0.4222 -0.0331  0.9027
  172SOPE  H13R19474   4.024   4.016   7.971  0.7023  2.2407 -1.9398
  172SOPE  H13S19475   4.155   4.096   8.055  2.3102 -0.4245  0.3720
  172SOPE  C21419476   4.139   3.883   8.097 -0.0051  0.1601  0.4338
  172SOPE  H14R19477   4.238   3.883   8.146 -0.2011 -0.7480  0.8433
  172SOPE  H14S19478   4.110   3.791   8.042 -0.5474 -0.0945  1.1222
  172SOPE  C21519479   4.033   3.886   8.201  0.5270  0.0442  0.0061
  172SOPE  H15R19480   3.937   3.924   8.159  0.2976 -0.3189  0.1973
  172SOPE  H15S19481   4.066   3.962   8.276 -0.1551 -0.7014  1.1008
  172SOPE  C21619482   4.008   3.759   8.275  0.0895  0.2453  0.8654
  172SOPE  H16R19483   3.968   3.674   8.216 -0.1242 -1.2706  3.0756
  172SOPE  H16S19484   3.926   3.788   8.344 -1.5544  0.7966 -1.2058
  172SOPE  C21719485   4.124   3.698   8.356  0.3512  0.3153 -0.7996
  172SOPE  H17R19486   4.205   3.675   8.283 -0.1269 -1.2351 -0.8807
  172SOPE  H17S19487   4.098   3.598   8.396 -1.1766  0.7934 -0.5423
  172SOPE  C21819488   4.182   3.789   8.463 -0.0591  0.5417  0.4485
  172SOPE  H18R19489   4.105   3.809   8.540  0.6140  0.7336  1.0746
  172SOPE  H18S19490   4.210   3.885   8.414  0.5601 -0.3225 -0.9738
  172SOPE  H18T19491   4.261   3.731   8.516 -0.8711 -2.0387 -0.9330
  172SOPE   C3319492   3.481   3.482   7.195 -0.6445 -0.0627  0.3681
  172SOPE   H3X19493   3.562   3.552   7.223  1.0332 -2.7892  2.9253
  172SOPE   H3Y19494   3.508   3.432   7.100 -2.1123 -0.6089  0.2043
  172SOPE   C3419495   3.468   3.374   7.296 -0.0780 -0.5692 -0.0510
  172SOPE   H4X19496   3.561   3.314   7.295  0.8491  0.7535  1.6678
  172SOPE   H4Y19497   3.385   3.300   7.283  0.0540 -1.1533  1.9920
  172SOPE   C3519498   3.467   3.433   7.448  0.2773  1.4100  0.5699
  172SOPE   H5X19499   3.366   3.473   7.474 -0.0901 -1.4045  4.2513
  172SOPE   H5Y19500   3.538   3.517   7.460  0.2473  1.1386  3.2043
  172SOPE   C3619501   3.493   3.324   7.551 -0.5324 -0.5768 -0.1168
  172SOPE   H6X19502   3.584   3.270   7.518 -0.9939 -1.3734 -0.1134
  172SOPE   H6Y19503   3.417   3.243   7.553  0.0938 -1.1684  1.1136
  172SOPE   C3719504   3.502   3.372   7.700  0.3789 -0.5736  0.4739
  172SOPE   H7X19505   3.429   3.455   7.712 -1.6891 -2.2497  0.0088
  172SOPE   H7Y19506   3.607   3.404   7.716  1.3335 -2.6927 -1.1189
  172SOPE   C3819507   3.479   3.254   7.807 -0.4763 -0.2818  0.3645
  172SOPE   H8X19508   3.558   3.179   7.783 -1.1966 -0.5378 -1.3557
  172SOPE   H8Y19509   3.378   3.211   7.792 -1.3890  1.4547  1.2569
  172SOPE   C3919510   3.486   3.309   7.947  0.2854  0.3946  0.0172
  172SOPE   H9X19511   3.408   3.389   7.944  1.9877  2.1645 -2.9514
  172SOPE   H9Y19512   3.570   3.375   7.977 -0.2466  0.8592  0.5150
  172SOPE  C31019513   3.448   3.212   8.063  0.0590  0.3176 -0.1511
  172SOPE  H10X19514   3.524   3.133   8.078  0.7796  0.9108 -0.5707
  172SOPE  H10Y19515   3.344   3.178   8.044  0.0739  0.7657 -1.0995
  172SOPE  C31119516   3.446   3.290   8.201  0.9897  0.0400 -0.2379
  172SOPE  H11X19517   3.373   3.373   8.193 -0.5179 -1.2389 -0.3132
  172SOPE  H11Y19518   3.542   3.343   8.223  0.1706  1.2239  0.5984
  172SOPE  C31219519   3.436   3.193   8.318  0.1185 -0.4074  0.3782
  172SOPE  H12X19520   3.502   3.224   8.402  0.2449 -0.4036  0.2765
  172SOPE  H12Y19521   3.453   3.090   8.279  1.2299 -0.0955 -0.0042
  172SOPE  C31319522   3.299   3.206   8.380 -0.3702  0.2777  0.0497
  172SOPE  H13X19523   3.272   3.116   8.440 -0.5672 -0.8624 -1.6774
  172SOPE  H13Y19524   3.219   3.219   8.304 -0.3843  0.3957  0.0844
  172SOPE  C31419525   3.278   3.332   8.473 -0.3388  0.2982  0.8253
  172SOPE  H14X19526   3.316   3.414   8.408 -1.0271 -0.6326 -0.8016
  172SOPE  H14Y19527   3.341   3.332   8.565 -1.2027 -0.5266  1.4322
  172SOPE  C31519528   3.134   3.364   8.502  0.2116  0.0906  0.1215
  172SOPE  H15X19529   3.088   3.297   8.579  2.0220 -2.0349 -0.5459
  172SOPE  H15Y19530   3.069   3.349   8.413  1.0828 -0.2539 -0.4749
  172SOPE  C31619531   3.131   3.519   8.553 -0.4638 -0.1587  0.1509
  172SOPE  H16X19532   3.152   3.584   8.465 -1.3687  1.2817  0.9598
  172SOPE  H16Y19533   3.225   3.535   8.610  1.6650 -0.5747 -2.9619
  172SOPE  C31719534   3.008   3.574   8.623  0.4567  0.4926  0.6913
  172SOPE  H17X19535   3.023   3.683   8.636  0.5035  0.7760 -1.4509
  172SOPE  H17Y19536   2.995   3.526   8.723 -0.1496  1.9005  1.3107
  172SOPE  C31819537   2.871   3.550   8.556 -0.4697  0.7191  0.5484
  172SOPE  H18X19538   2.783   3.565   8.623 -2.1949  1.6547 -1.7887
  172SOPE  H18Y19539   2.866   3.450   8.506  3.7347  0.4933  0.2428
  172SOPE  H18Z19540   2.842   3.630   8.485 -1.5110 -0.3450 -0.2965
  173SAPI   C1219541   4.100   4.629  11.335 -0.4391 -0.4553  0.1288
  173SAPI    H219542   4.087   4.739  11.347 -0.2530 -0.6683  2.8023
  173SAPI    O219543   4.222   4.587  11.398  0.1168  0.0430  0.7906
  173SAPI   HO219544   4.288   4.570  11.330  1.7239  2.7602  1.5222
  173SAPI   C1319545   3.978   4.567  11.394 -0.1988 -1.0541  0.7469
  173SAPI    H319546   3.889   4.610  11.342 -1.5839 -3.1516  1.2479
  173SAPI    O319547   3.971   4.615  11.528  0.2171 -0.2304  0.0917
  173SAPI   HO319548   4.049   4.579  11.569  0.4928  1.0898  0.7628
  173SAPI   C1419549   3.979   4.411  11.378 -0.3298 -0.2354 -0.5811
  173SAPI    H419550   4.079   4.386  11.419 -0.5039  0.2652  0.1917
  173SAPI    O419551   3.875   4.347  11.452 -0.1389  0.6870  0.1483
  173SAPI   HO419552   3.892   4.343  11.546 -0.5409  1.4531  0.2661
  173SAPI   C1519553   3.989   4.379  11.234  0.1701 -0.9570  0.4987
  173SAPI    H519554   3.899   4.428  11.190  0.4860  0.6749  1.5697
  173SAPI    O519555   3.968   4.239  11.206  0.1127 -0.7120 -0.5002
  173SAPI   HO519556   3.889   4.221  11.257 -1.2584 -0.2110 -2.3238
  173SAPI   C1619557   4.104   4.456  11.158 -0.1612  0.0120  0.8272
  173SAPI    H619558   4.198   4.412  11.198 -0.0665  1.0072  1.7527
  173SAPI    O619559   4.090   4.433  11.019 -0.2668 -0.7504  0.0691
  173SAPI   HO619560   4.121   4.511  10.973  0.8478 -1.3731 -0.2632
  173SAPI   C1119561   4.099   4.603  11.183 -0.3328  0.5178  0.3396
  173SAPI    H119562   4.010   4.654  11.141  0.9800  0.5964 -2.6078
  173SAPI     P19563   4.200   4.816  11.056 -0.3490  0.1324  0.1189
  173SAPI   O1319564   4.323   4.893  11.077 -0.3028  0.1785 -0.1142
  173SAPI   O1419565   4.080   4.896  11.086  0.4848 -0.1993  0.2691
  173SAPI   O1219566   4.218   4.667  11.130 -0.4007 -0.3467  0.1715
  173SAPI   O1119567   4.186   4.766  10.910 -0.0883  0.2756 -0.0171
  173SAPI    C119568   4.270   4.806  10.797 -0.4179 -0.2467  0.3189
  173SAPI    HA19569   4.365   4.758  10.826 -0.2521  1.1492  2.3170
  173SAPI    HB19570   4.240   4.751  10.706 -2.1773  2.2491 -0.7324
  173SAPI    C219571   4.257   4.955  10.762  0.0725 -0.1476  0.1097
  173SAPI    HS19572   4.281   5.007  10.857 -1.6484  3.3545 -1.2217
  173SAPI   O2119573   4.120   4.979  10.726  0.0929  0.1449  0.1221
  173SAPI   C2119574   4.083   5.098  10.703  0.2482 -0.4009  0.6757
  173SAPI   O2219575   4.145   5.199  10.732 -0.4954 -0.2810 -0.3034
  173SAPI   C2219576   3.957   5.093  10.617  0.2075  0.0312  0.1835
  173SAPI   H2R19577   3.913   4.991  10.611  1.2345 -0.3966 -0.3800
  173SAPI   H2S19578   3.883   5.158  10.669  1.4707  1.6773 -0.0045
  173SAPI    C319579   4.357   5.000  10.646  0.5131  0.4711 -0.1578
  173SAPI    HX19580   4.456   4.953  10.659 -0.1259 -0.8010  0.2424
  173SAPI    HY19581   4.360   5.111  10.649  2.7748  0.5063 -1.8048
  173SAPI   O3119582   4.299   4.957  10.523 -0.4474  0.4630  0.5561
  173SAPI   C3119583   4.356   5.003  10.411  0.5851  0.7549 -0.3626
  173SAPI   O3219584   4.442   5.085  10.401 -0.3212 -0.1773  0.0324
  173SAPI   C3219585   4.291   4.928  10.294 -0.3648  0.1548  0.7093
  173SAPI   H2X19586   4.181   4.928  10.313 -0.7167  3.2518 -0.6003
  173SAPI   H2Y19587   4.329   4.825  10.286 -2.4384 -0.5636 -1.2943
  173SAPI   C2319588   3.973   5.146  10.471 -0.4587  0.1174 -0.1554
  173SAPI   H3R19589   4.038   5.077  10.413 -0.9916 -1.1716  0.7226
  173SAPI   H3S19590   4.033   5.238  10.482  3.0325 -1.8974 -0.7827
  173SAPI   C2419591   3.833   5.152  10.407  0.2644  0.0329  0.1816
  173SAPI   H4R19592   3.836   5.225  10.322 -1.1303 -0.3771 -0.2449
  173SAPI   H4S19593   3.758   5.194  10.477 -0.0338 -0.6689  0.2911
  173SAPI   C2519594   3.783   5.020  10.358 -0.1765  1.2245  0.9526
  173SAPI   H5R19595   3.741   4.951  10.433  1.3314 -1.0195 -0.1575
  173SAPI   C2619596   3.790   4.973  10.234 -0.6269  0.2097  0.8679
  173SAPI   H6R19597   3.752   4.872  10.215  1.3081 -0.2793 -0.7294
  173SAPI   C2719598   3.854   5.052  10.120 -0.7780  0.5271 -0.6044
  173SAPI   H7R19599   3.922   4.994  10.053 -1.5308  1.3495 -2.1306
  173SAPI   H7S19600   3.926   5.130  10.154  0.0879  0.4805 -2.2209
  173SAPI   C2819601   3.746   5.140  10.053  0.1312 -0.7957  0.4842
  173SAPI   H8R19602   3.700   5.206  10.128 -1.5741 -0.4351 -0.8013
  173SAPI   C2919603   3.732   5.151   9.917 -0.1581  0.1151 -0.3818
  173SAPI   H9R19604   3.655   5.217   9.874 -1.6643 -0.5209  1.2286
  173SAPI  C21019605   3.804   5.062   9.815  0.1778 -0.3537  0.3304
  173SAPI  H10R19606   3.728   5.011   9.752  0.3432 -0.1806 -0.0138
  173SAPI  H10S19607   3.865   4.984   9.865  0.7128 -1.8165 -2.4204
  173SAPI  C21119608   3.906   5.146   9.738  0.0551  0.3959  0.0283
  173SAPI  H11R19609   3.990   5.191   9.793  1.0313  0.1962 -1.2386
  173SAPI  C21219610   3.933   5.133   9.603  0.7153 -0.9603 -0.5674
  173SAPI  H12R19611   3.988   5.217   9.559 -1.5925  1.0436  0.1605
  173SAPI  C21319612   3.849   5.044   9.512  0.6243  0.2487  0.1126
  173SAPI  H13R19613   3.829   4.943   9.553 -1.6878  1.0682  1.1664
  173SAPI  H13S19614   3.900   5.030   9.414 -2.8889 -2.0703 -1.6169
  173SAPI  C21419615   3.712   5.098   9.493  0.0274 -0.4341  0.4543
  173SAPI  H14R19616   3.630   5.051   9.549  0.2263 -1.8723 -0.4126
  173SAPI  C21519617   3.678   5.191   9.404 -0.5436  0.3446  0.2537
  173SAPI  H15R19618   3.572   5.216   9.392 -0.6852 -0.0547  0.6593
  173SAPI  C21619619   3.767   5.258   9.300 -0.2837 -0.7504 -0.6295
  173SAPI  H16R19620   3.876   5.248   9.317  0.1800  1.3822 -1.9881
  173SAPI  H16S19621   3.748   5.366   9.283  1.4592 -0.6431 -2.2671
  173SAPI  C21719622   3.740   5.205   9.156 -0.2690  0.0062  0.8069
  173SAPI  H17R19623   3.630   5.196   9.144 -0.3748 -0.9302  2.3125
  173SAPI  H17S19624   3.780   5.102   9.148 -0.7064 -0.1562  0.6844
  173SAPI  C21819625   3.802   5.289   9.041 -0.3783 -0.1843 -0.2117
  173SAPI  H18R19626   3.912   5.272   9.042 -0.3384 -0.0585  1.7856
  173SAPI  H18S19627   3.786   5.399   9.048  1.4986  0.0402  4.9143
  173SAPI  C21919628   3.749   5.241   8.907 -0.2633 -0.0173  0.2441
  173SAPI  H19R19629   3.798   5.303   8.829 -0.8092 -0.5567 -0.5463
  173SAPI  H19S19630   3.638   5.239   8.904 -0.2398 -0.0984 -1.0302
  173SAPI  C22019631   3.790   5.098   8.866  0.3035 -0.1409  0.8389
  173SAPI  H20R19632   3.901   5.090   8.857  0.0877 -1.0955 -2.7150
  173SAPI  H20S19633   3.749   5.068   8.767  0.5920 -0.7919  0.9150
  173SAPI  H20T19634   3.766   5.030   8.950  0.3979 -1.5845 -0.2752
  173SAPI   C3319635   4.323   5.002  10.155 -0.3952  0.1295 -0.2622
  173SAPI   H3X19636   4.431   4.986  10.131 -0.2657  0.3996  0.1308
  173SAPI   H3Y19637   4.305   5.108  10.184 -2.3706  0.8924 -3.8012
  173SAPI   C3419638   4.233   4.972  10.032 -0.1465  0.0388 -0.3753
  173SAPI   H4X19639   4.142   5.035  10.050  0.2125  0.1318  1.3672
  173SAPI   H4Y19640   4.203   4.865  10.040 -0.2085 -0.1563 -2.7206
  173SAPI   C3519641   4.302   5.015   9.897 -0.1272  0.5857 -0.7273
  173SAPI   H5X19642   4.409   4.992   9.915 -0.2282  1.9194  2.1762
  173SAPI   H5Y19643   4.287   5.124   9.883  0.6321  0.6210 -1.2807
  173SAPI   C3619644   4.243   4.941   9.782 -0.2034 -0.1931 -0.9518
  173SAPI   H6X19645   4.133   4.953   9.798  0.0649  0.3261  0.5964
  173SAPI   H6Y19646   4.269   4.834   9.789 -0.9275 -0.7679 -4.7427
  173SAPI   C3719647   4.292   4.991   9.652 -0.1595 -0.6189  0.9232
  173SAPI   H7X19648   4.403   4.989   9.661  0.0398 -2.5814 -1.1522
  173SAPI   H7Y19649   4.263   5.097   9.635  1.4244 -0.4507 -1.1298
  173SAPI   C3819650   4.240   4.914   9.531 -0.5731  0.1065  0.1912
  173SAPI   H8X19651   4.129   4.915   9.536 -0.6394 -0.1758 -0.9840
  173SAPI   H8Y19652   4.283   4.812   9.534 -0.0037  0.3388  3.5686
  173SAPI   C3919653   4.300   4.968   9.398  0.8426 -0.0989  0.0150
  173SAPI   H9X19654   4.407   4.941   9.411  0.0008 -2.9354  1.9448
  173SAPI   H9Y19655   4.294   5.079   9.389 -1.8441 -0.1802  0.1442
  173SAPI  C31019656   4.238   4.896   9.272 -0.3085  0.4888 -0.4523
  173SAPI  H10X19657   4.211   4.790   9.295  1.0924 -0.0047 -0.9644
  173SAPI  H10Y19658   4.310   4.884   9.188 -1.6140  0.5057 -1.5935
  173SAPI  C31119659   4.122   4.969   9.209  0.8781 -0.4577  0.4695
  173SAPI  H11X19660   4.152   5.076   9.203 -1.9871  0.4487  0.3782
  173SAPI  H11Y19661   4.034   4.977   9.277  0.7395 -2.3106  0.5601
  173SAPI  C31219662   4.068   4.915   9.074  0.1431  0.3689  0.7531
  173SAPI  H12X19663   4.151   4.913   9.000 -0.0489 -1.4338  0.5408
  173SAPI  H12Y19664   3.980   4.977   9.047  0.8495  1.0383 -0.0667
  173SAPI  C31319665   4.027   4.767   9.096  0.8268 -0.2873 -0.3782
  173SAPI  H13X19666   3.928   4.770   9.147  0.1418 -0.2510 -1.6652
  173SAPI  H13Y19667   4.107   4.703   9.138  0.6591  0.7173  1.5690
  173SAPI  C31419668   3.980   4.690   8.968  0.6868 -0.5965 -0.2479
  173SAPI  H14X19669   3.920   4.767   8.916  0.9167 -0.6015 -0.5243
  173SAPI  H14Y19670   3.919   4.608   9.012 -2.4630  1.6449 -0.1518
  173SAPI  C31519671   4.087   4.630   8.880 -0.3834  0.4898 -0.1525
  173SAPI  H15X19672   4.168   4.704   8.863  0.0216 -0.2376 -1.5094
  173SAPI  H15Y19673   4.050   4.606   8.778  1.2538 -3.1926 -0.0425
  173SAPI  C31619674   4.145   4.495   8.938 -0.0775  1.0554 -0.3141
  173SAPI  H16X19675   4.078   4.414   8.902 -2.6291  2.5714  0.8054
  173SAPI  H16Y19676   4.120   4.499   9.046 -0.6044 -2.9123 -0.1368
  173SAPI  C31719677   4.292   4.478   8.910 -0.1592 -0.0472 -0.5985
  173SAPI  H17X19678   4.315   4.511   8.806  2.9541 -2.3100 -0.7403
  173SAPI  H17Y19679   4.322   4.371   8.912 -1.0686 -0.3095 -0.4818
  173SAPI  C31819680   4.384   4.546   9.012  0.4116  0.1606  0.2055
  173SAPI  H18X19681   4.350   4.520   9.114 -0.3117  0.5298  0.0676
  173SAPI  H18Y19682   4.384   4.657   9.003  2.0281  0.1796  0.1655
  173SAPI  H18Z19683   4.492   4.522   9.000  0.7941  1.6885  0.2937
  174SAPI   C1219684   6.740   0.451  10.987  0.4684 -0.1870  0.0450
  174SAPI    H219685   6.634   0.484  10.996  0.9952  1.4402  0.9071
  174SAPI    O219686   6.789   0.493  10.864 -0.0497 -0.1230 -0.1399
  174SAPI   HO219687   6.739   0.449  10.795  1.7438  1.0823 -2.3812
  174SAPI   C1319688   6.816   0.522  11.098 -0.0550 -0.0887 -0.1523
  174SAPI    H319689   6.766   0.492  11.193 -2.8577 -1.1888 -1.8727
  174SAPI    O319690   6.802   0.666  11.091  0.2796  0.2979 -0.6329
  174SAPI   HO319691   6.837   0.696  11.007 -1.8351  1.2392 -1.2535
  174SAPI   C1419692   6.959   0.479  11.104 -0.3168 -0.4840  0.1447
  174SAPI    H419693   7.004   0.505  11.006  0.3526 -0.5003  0.4451
  174SAPI    O419694   7.041   0.538  11.204 -0.0513  0.1976  0.7790
  174SAPI   HO419695   7.120   0.572  11.161 -1.1168  1.1419 -0.5735
  174SAPI   C1519696   6.972   0.332  11.116 -0.4797 -0.1278  0.4600
  174SAPI    H519697   6.934   0.302  11.216  0.3575 -0.5930  0.6474
  174SAPI    O519698   7.112   0.299  11.115 -0.4057 -0.0716 -0.6064
  174SAPI   HO519699   7.154   0.341  11.191  0.3714 -0.5404 -0.7582
  174SAPI   C1619700   6.901   0.261  11.003  0.0448  0.4670 -0.1062
  174SAPI    H619701   6.937   0.295  10.904 -1.8832 -0.1025 -1.0534
  174SAPI    O619702   6.907   0.118  11.019  0.4388  0.4783 -0.0869
  174SAPI   HO619703   6.858   0.099  11.099  1.8959 -0.5834  0.5931
  174SAPI   C1119704   6.749   0.299  11.004  0.2224  0.4280 -0.1257
  174SAPI    H119705   6.716   0.267  11.105  0.2917  0.2656 -0.1528
  174SAPI     P19706   6.517   0.207  10.916 -0.1983 -0.2941 -0.3455
  174SAPI   O1319707   6.478   0.200  11.060 -0.0070 -0.2633 -0.3760
  174SAPI   O1419708   6.482   0.087  10.836 -0.2997  0.0639 -0.4603
  174SAPI   O1219709   6.677   0.237  10.897  0.3293  0.1155  0.0457
  174SAPI   O1119710   6.461   0.344  10.861 -0.5232  0.1541  0.3573
  174SAPI    C119711   6.413   0.381  10.731 -0.3860 -0.1598 -0.9830
  174SAPI    HA19712   6.386   0.286  10.680  1.9313 -1.4066 -0.0558
  174SAPI    HB19713   6.325   0.447  10.749 -0.5750 -0.7415  0.3838
  174SAPI    C219714   6.506   0.468  10.648 -0.1797  0.0610  0.7648
  174SAPI    HS19715   6.456   0.489  10.551  1.1829  3.2825  0.6439
  174SAPI   O2119716   6.635   0.413  10.638 -0.1996 -0.1655 -0.0708
  174SAPI   C2119717   6.643   0.312  10.560  0.2700 -0.7375  0.0995
  174SAPI   O2219718   6.551   0.279  10.485 -0.4640  0.4184 -0.0443
  174SAPI   C2219719   6.776   0.242  10.561 -0.7893  0.2371 -0.1402
  174SAPI   H2R19720   6.841   0.292  10.636 -1.7049  1.7359 -0.2958
  174SAPI   H2S19721   6.769   0.135  10.590  1.7704  0.2268  0.6630
  174SAPI    C319722   6.511   0.619  10.702 -0.6153 -0.9670  0.4470
  174SAPI    HX19723   6.556   0.611  10.803 -0.2799 -2.9361  0.1988
  174SAPI    HY19724   6.407   0.656  10.716 -0.0492  0.6803  0.4337
  174SAPI   O3119725   6.596   0.700  10.616  0.6816  0.5694 -0.1732
  174SAPI   C3119726   6.541   0.765  10.518 -0.1452  0.0616  1.1722
  174SAPI   O3219727   6.418   0.768  10.495 -0.2803 -0.1982 -0.3017
  174SAPI   C3219728   6.646   0.850  10.445  0.3051 -0.2412 -0.5792
  174SAPI   H2X19729   6.740   0.791  10.435  1.9010  1.4674  2.8156
  174SAPI   H2Y19730   6.662   0.942  10.506 -0.9499  0.3711 -1.1341
  174SAPI   C2319731   6.852   0.232  10.416  0.3671  0.1831  0.3497
  174SAPI   H3R19732   6.782   0.212  10.332 -0.3237  1.1481  0.6897
  174SAPI   H3S19733   6.921   0.145  10.432  0.7922  0.8040  2.1048
  174SAPI   C2419734   6.946   0.350  10.383 -0.4548 -0.2990  0.2090
  174SAPI   H4R19735   7.008   0.361  10.475 -1.1706 -2.4560  1.0119
  174SAPI   H4S19736   6.896   0.448  10.379  1.5622  0.7307 -1.9397
  174SAPI   C2519737   7.032   0.327  10.259  0.0377  0.1217 -0.1807
  174SAPI   H5R19738   7.110   0.253  10.283  0.3110  0.8949  1.5057
  174SAPI   C2619739   7.014   0.380  10.132  0.1623  0.8452 -0.3690
  174SAPI   H6R19740   7.077   0.339  10.051 -0.8372 -0.8860 -0.3249
  174SAPI   C2719741   6.907   0.474  10.100  0.5761 -0.0768 -0.3768
  174SAPI   H7R19742   6.814   0.457  10.159 -0.8130  1.4153 -1.9943
  174SAPI   H7S19743   6.870   0.459   9.996  2.6772  2.8539 -1.6875
  174SAPI   C2819744   6.965   0.614  10.104 -0.2972  0.9279 -0.1164
  174SAPI   H8R19745   7.024   0.642  10.193 -0.5570  2.8387 -0.4977
  174SAPI   C2919746   6.980   0.702   9.998 -0.1063  1.0274 -0.1852
  174SAPI   H9R19747   7.015   0.805  10.014 -1.3960  1.3752  0.6181
  174SAPI  C21019748   6.948   0.674   9.856 -0.3864  0.3509  0.3286
  174SAPI  H10R19749   6.976   0.569   9.832  0.4899  0.8774 -1.0452
  174SAPI  H10S19750   7.011   0.744   9.797  1.3209  0.3674  2.0666
  174SAPI  C21119751   6.796   0.690   9.823 -0.7673  0.2482  1.1151
  174SAPI  H11R19752   6.728   0.693   9.909 -2.0826  1.2167  0.0751
  174SAPI  C21219753   6.745   0.713   9.700  0.3401  0.0279 -0.4019
  174SAPI  H12R19754   6.635   0.719   9.691 -0.0962 -1.2369  2.7751
  174SAPI  C21319755   6.812   0.717   9.561  0.2989 -0.0654 -0.1229
  174SAPI  H13R19756   6.840   0.613   9.535 -1.1031 -0.6631  0.5962
  174SAPI  H13S19757   6.912   0.763   9.575  1.1185 -1.7895 -0.0653
  174SAPI  C21419758   6.737   0.771   9.443 -0.3068 -1.0855 -0.1082
  174SAPI  H14R19759   6.630   0.795   9.453 -0.3966 -2.0807  1.6088
  174SAPI  C21519760   6.797   0.794   9.323  0.4300  0.0999  0.4524
  174SAPI  H15R19761   6.740   0.838   9.240  0.9547 -1.1786 -0.6220
  174SAPI  C21619762   6.945   0.780   9.286  0.2737  0.1853  0.3037
  174SAPI  H16R19763   6.995   0.716   9.362 -0.9307  0.7142  1.5934
  174SAPI  H16S19764   6.994   0.880   9.287  1.3253 -0.2810 -1.2084
  174SAPI  C21719765   6.955   0.719   9.144 -0.0075 -0.0111  0.7702
  174SAPI  H17R19766   6.868   0.655   9.117 -1.7859  1.3951  2.8078
  174SAPI  H17S19767   7.041   0.652   9.125  0.2746  0.8212 -1.1407
  174SAPI  C21819768   6.953   0.842   9.046 -0.6437 -0.1188 -0.4775
  174SAPI  H18R19769   7.047   0.897   9.065 -0.3544 -0.5136 -0.7492
  174SAPI  H18S19770   6.864   0.905   9.067  1.3006  2.5484  0.1781
  174SAPI  C21919771   6.940   0.796   8.898 -0.4648 -0.4584  0.6834
  174SAPI  H19R19772   6.852   0.733   8.872 -1.2696  2.2020 -4.1849
  174SAPI  H19S19773   7.037   0.754   8.864  0.1383  2.6672 -1.9559
  174SAPI  C22019774   6.907   0.913   8.805  0.2811  0.4402  0.6388
  174SAPI  H20R19775   6.982   0.995   8.813 -2.4460  3.0164  2.0266
  174SAPI  H20S19776   6.804   0.954   8.814  1.2703  3.4546 -0.3997
  174SAPI  H20T19777   6.927   0.873   8.703  3.6471 -0.4515  1.5043
  174SAPI   C3319778   6.583   0.901  10.311  0.1456  0.2932 -0.7102
  174SAPI   H3X19779   6.519   0.988  10.338  1.0496  0.5452  0.7420
  174SAPI   H3Y19780   6.528   0.816  10.266 -1.4722  1.5815 -1.2764
  174SAPI   C3419781   6.683   0.963  10.211  0.0386 -0.3768  0.1560
  174SAPI   H4X19782   6.752   0.877  10.195 -1.0110 -1.0593 -0.8176
  174SAPI   H4Y19783   6.732   1.053  10.254 -0.8316  0.5686 -0.7799
  174SAPI   C3519784   6.624   0.989  10.073  0.3611  0.1109 -0.5401
  174SAPI   H5X19785   6.552   1.074  10.071  0.9231  0.6266 -3.7348
  174SAPI   H5Y19786   6.576   0.893  10.041 -2.0053  0.0165  2.7478
  174SAPI   C3619787   6.734   1.036   9.981 -0.8638  0.2986  0.7509
  174SAPI   H6X19788   6.808   0.954   9.971  0.1483  1.3384 -0.5967
  174SAPI   H6Y19789   6.795   1.124  10.011 -0.5588  0.9375 -1.5095
  174SAPI   C3719790   6.675   1.057   9.837 -0.2918 -0.1994 -0.0649
  174SAPI   H7X19791   6.599   1.137   9.850  0.7747  0.5155  2.2748
  174SAPI   H7Y19792   6.624   0.964   9.804  1.2558 -0.7268 -1.1015
  174SAPI   C3819793   6.776   1.103   9.731  0.5613  0.3618  0.5951
  174SAPI   H8X19794   6.851   1.024   9.708 -0.3067 -0.0827 -0.9088
  174SAPI   H8Y19795   6.839   1.189   9.760  1.9349  0.2962 -1.9199
  174SAPI   C3919796   6.702   1.136   9.601  0.0335  1.0554 -0.1985
  174SAPI   H9X19797   6.656   1.237   9.609 -4.2890 -0.6172 -1.2017
  174SAPI   H9Y19798   6.611   1.077   9.579 -0.0215  1.3212 -0.7088
  174SAPI  C31019799   6.812   1.136   9.489  0.3717 -0.0405  0.2727
  174SAPI  H10X19800   6.830   1.033   9.452 -1.7816 -0.1246 -0.7107
  174SAPI  H10Y19801   6.899   1.182   9.541 -0.4292  0.5223  1.1567
  174SAPI  C31119802   6.779   1.225   9.367 -0.3809  0.2733 -0.6074
  174SAPI  H11X19803   6.777   1.333   9.391  2.2607 -0.0205  1.3562
  174SAPI  H11Y19804   6.678   1.197   9.330 -0.4086  0.9006 -1.0134
  174SAPI  C31219805   6.889   1.204   9.259 -0.2980 -0.6060  0.4419
  174SAPI  H12X19806   6.857   1.115   9.201  0.0969  0.8790 -2.2425
  174SAPI  H12Y19807   6.981   1.170   9.311  0.5276 -0.7608 -1.0532
  174SAPI  C31319808   6.915   1.317   9.162 -0.5958  0.5529  0.2063
  174SAPI  H13X19809   7.017   1.292   9.127 -1.3985 -2.1237 -0.4297
  174SAPI  H13Y19810   6.930   1.417   9.208  3.0487 -0.3737  1.3223
  174SAPI  C31419811   6.813   1.306   9.051  0.4118  0.7894 -0.1026
  174SAPI  H14X19812   6.721   1.355   9.087  0.9836  0.3842  2.0343
  174SAPI  H14Y19813   6.788   1.202   9.018  0.0004 -0.0073  2.4566
  174SAPI  C31519814   6.848   1.391   8.936  0.2875  0.4857 -0.2112
  174SAPI  H15X19815   6.929   1.341   8.879  1.0584  1.0554  0.3580
  174SAPI  H15Y19816   6.885   1.491   8.968  1.2806  0.5036 -1.3625
  174SAPI  C31619817   6.723   1.396   8.848 -0.2786 -0.5956  0.0060
  174SAPI  H16X19818   6.634   1.410   8.912 -1.5495 -0.8233 -1.6297
  174SAPI  H16Y19819   6.707   1.293   8.809  0.3419 -0.8439  0.4056
  174SAPI  C31719820   6.725   1.489   8.730 -0.0509 -0.4526 -0.4607
  174SAPI  H17X19821   6.815   1.474   8.667  0.3258 -0.3897  0.0546
  174SAPI  H17Y19822   6.715   1.591   8.774 -0.1127 -0.5208 -0.3144
  174SAPI  C31819823   6.601   1.475   8.638 -0.5440  0.0153  0.3152
  174SAPI  H18X19824   6.613   1.375   8.592  0.4828  0.2180  0.1214
  174SAPI  H18Y19825   6.595   1.555   8.562  0.3189 -0.2751 -0.0667
  174SAPI  H18Z19826   6.507   1.476   8.697  0.5441  0.2800  2.1325
  175SAPI   C1219827   2.933   6.376   6.715  0.5426  0.5620 -0.8349
  175SAPI    H219828   2.822   6.378   6.709  0.3978 -1.8400  0.1409
  175SAPI    O219829   2.993   6.500   6.754 -0.3188 -0.0584 -0.3405
  175SAPI   HO219830   2.924   6.546   6.803 -1.9851  0.5802 -3.0493
  175SAPI   C1319831   2.967   6.270   6.819  0.0764  0.0370 -0.3960
  175SAPI    H319832   2.932   6.168   6.793  0.7461 -0.1803 -0.4518
  175SAPI    O319833   2.908   6.305   6.944  0.6890 -0.1599  0.1680
  175SAPI   HO319834   2.865   6.235   6.994 -1.4012  1.4008  0.6817
  175SAPI   C1419835   3.122   6.244   6.821 -0.2196 -0.0797 -0.5608
  175SAPI    H419836   3.174   6.341   6.835 -1.1273  0.3420 -0.0275
  175SAPI    O419837   3.173   6.161   6.921  0.0193 -0.0729 -0.2770
  175SAPI   HO419838   3.239   6.114   6.868  1.5691  0.8753  0.7289
  175SAPI   C1519839   3.174   6.190   6.688 -0.3241 -0.4740 -0.3384
  175SAPI    H519840   3.122   6.095   6.660  1.4371 -1.5016 -0.2992
  175SAPI    O519841   3.318   6.166   6.693 -0.2588 -0.0783  0.1249
  175SAPI   HO519842   3.344   6.075   6.672 -0.1615 -0.4252  1.6554
  175SAPI   C1619843   3.130   6.290   6.581 -0.2041  0.0891  0.8846
  175SAPI    H619844   3.182   6.386   6.604 -0.7693  1.0993 -1.6872
  175SAPI    O619845   3.176   6.257   6.450  0.4517  0.1350  0.5261
  175SAPI   HO619846   3.164   6.335   6.396 -2.0156  0.7011  1.7555
  175SAPI   C1119847   2.984   6.320   6.580 -0.0196  0.4133  0.4704
  175SAPI    H119848   2.922   6.233   6.548  0.1503  1.0382 -1.7095
  175SAPI     P19849   2.809   6.419   6.392  0.0515  0.1295 -0.3092
  175SAPI   O1319850   2.783   6.278   6.341  0.0118 -0.1820 -0.0284
  175SAPI   O1419851   2.813   6.523   6.292  0.1406 -0.4029  0.1684
  175SAPI   O1219852   2.950   6.423   6.487  0.4949 -0.8536  0.7324
  175SAPI   O1119853   2.694   6.452   6.493  0.0316  0.3769  0.2483
  175SAPI    C119854   2.631   6.576   6.515  0.3370  0.1137 -0.0266
  175SAPI    HA19855   2.652   6.641   6.428 -1.0045 -0.1396 -0.5545
  175SAPI    HB19856   2.522   6.579   6.533  0.1329  0.9139 -1.2941
  175SAPI    C219857   2.685   6.636   6.653  0.0735  0.3159  0.1672
  175SAPI    HS19858   2.795   6.618   6.660 -0.0056 -0.0055  0.6557
  175SAPI   O2119859   2.603   6.570   6.752 -0.1395 -0.1424 -0.5457
  175SAPI   C2119860   2.657   6.577   6.864 -0.3465 -0.0413  0.0080
  175SAPI   O2219861   2.771   6.622   6.889 -0.1826 -0.1446  0.7932
  175SAPI   C2219862   2.556   6.522   6.968 -0.3640  0.1464 -0.6473
  175SAPI   H2R19863   2.455   6.523   6.922  0.0231  1.2360 -1.5317
  175SAPI   H2S19864   2.578   6.414   6.982 -1.9762 -0.1295 -0.0638
  175SAPI    C319865   2.657   6.791   6.649 -0.1568  0.4528 -0.2911
  175SAPI    HX19866   2.548   6.807   6.668 -0.6343  0.7479 -2.8157
  175SAPI    HY19867   2.672   6.826   6.544  1.9547  1.4041  0.2875
  175SAPI   O3119868   2.720   6.874   6.746  0.4137  0.8752 -0.2990
  175SAPI   C3119869   2.848   6.887   6.719 -1.0522 -0.9326 -0.1995
  175SAPI   O3219870   2.906   6.839   6.624 -0.0099  0.5570  0.2706
  175SAPI   C3219871   2.929   6.961   6.829  0.1156 -0.8295  0.0433
  175SAPI   H2X19872   2.864   7.015   6.900 -0.8084 -2.2459  0.3095
  175SAPI   H2Y19873   3.003   7.028   6.780 -0.8553  1.1494  1.1595
  175SAPI   C2319874   2.538   6.598   7.104  0.3667 -0.0370 -0.2561
  175SAPI   H3R19875   2.532   6.704   7.072 -2.2761 -0.9209 -3.1926
  175SAPI   H3S19876   2.626   6.595   7.173  1.3180  1.2169 -1.3759
  175SAPI   C2419877   2.408   6.572   7.182 -0.1032 -0.1494 -0.1278
  175SAPI   H4R19878   2.337   6.581   7.097 -0.7550  0.2962  0.4411
  175SAPI   H4S19879   2.375   6.660   7.241  0.1686  0.1563 -0.4325
  175SAPI   C2519880   2.388   6.443   7.251  0.4997 -0.4419  0.1433
  175SAPI   H5R19881   2.371   6.356   7.187  0.2790 -1.9091  2.0785
  175SAPI   C2619882   2.396   6.415   7.382 -0.1342  0.5757 -0.2521
  175SAPI   H6R19883   2.360   6.317   7.417 -0.4150  1.3427  1.7537
  175SAPI   C2719884   2.434   6.516   7.486  0.4574  0.4296 -0.8541
  175SAPI   H7R19885   2.418   6.622   7.458 -1.9550  0.4130  0.1341
  175SAPI   H7S19886   2.543   6.514   7.505  0.2734  2.1535  0.6457
  175SAPI   C2819887   2.369   6.497   7.620 -0.3623 -0.3331  0.3042
  175SAPI   H8R19888   2.308   6.405   7.618 -0.8882  0.0208 -0.6387
  175SAPI   C2919889   2.385   6.573   7.730  0.6607  0.6069 -0.1868
  175SAPI   H9R19890   2.321   6.536   7.812  2.3071 -2.9059 -0.2914
  175SAPI  C21019891   2.481   6.693   7.734 -0.8282  0.1716  0.5605
  175SAPI  H10R19892   2.433   6.765   7.665 -3.5023  1.1043  3.2050
  175SAPI  H10S19893   2.578   6.664   7.687 -0.4709 -0.4937  1.6764
  175SAPI  C21119894   2.495   6.748   7.873 -0.7350 -0.4434 -0.8612
  175SAPI  H11R19895   2.409   6.811   7.898 -1.4086 -0.8550 -2.0626
  175SAPI  C21219896   2.581   6.715   7.972  0.0098  0.0136 -1.0405
  175SAPI  H12R19897   2.582   6.774   8.065  4.2473 -1.8145  0.2939
  175SAPI  C21319898   2.691   6.615   7.953  0.3520  0.1474  0.5202
  175SAPI  H13R19899   2.789   6.664   7.940 -0.0436  0.9082  0.3684
  175SAPI  H13S19900   2.685   6.551   7.862 -3.1709  1.0369 -0.0166
  175SAPI  C21419901   2.706   6.524   8.066  0.1320  0.5390  0.6496
  175SAPI  H14R19902   2.645   6.434   8.049  2.3232 -0.9415  0.1679
  175SAPI  C21519903   2.785   6.528   8.176  0.6476  1.1418  0.1524
  175SAPI  H15R19904   2.785   6.438   8.240 -1.0108  1.1972  0.2577
  175SAPI  C21619905   2.882   6.642   8.210  0.3726 -0.4187 -0.6397
  175SAPI  H16R19906   2.892   6.713   8.124  0.9202 -1.0597 -1.1160
  175SAPI  H16S19907   2.981   6.616   8.253 -0.9445 -0.1642  2.8540
  175SAPI  C21719908   2.802   6.732   8.318 -0.1280 -0.2113 -0.3715
  175SAPI  H17R19909   2.702   6.757   8.276 -1.2283 -2.6183  0.6116
  175SAPI  H17S19910   2.872   6.818   8.325 -0.0219 -0.3136 -0.1589
  175SAPI  C21819911   2.760   6.659   8.454  0.5053 -0.0715  0.3742
  175SAPI  H18R19912   2.723   6.557   8.430 -0.4389 -0.5852  3.6166
  175SAPI  H18S19913   2.687   6.730   8.497 -0.1680 -0.7037  0.2906
  175SAPI  C21919914   2.888   6.652   8.544 -0.3085 -0.0040  0.4646
  175SAPI  H19R19915   2.850   6.649   8.649  2.4838  0.7190  1.5937
  175SAPI  H19S19916   2.952   6.741   8.527  0.7821 -0.5900  1.3460
  175SAPI  C22019917   2.973   6.522   8.541  0.0369 -0.2769 -0.4416
  175SAPI  H20R19918   3.049   6.523   8.622 -2.1844  2.3525  1.8382
  175SAPI  H20S19919   3.021   6.506   8.442  1.4329 -1.5312  0.4056
  175SAPI  H20T19920   2.905   6.441   8.573  1.2669 -0.3286  2.2797
  175SAPI   C3319921   2.998   6.852   6.925 -0.4973  0.1007 -0.0206
  175SAPI   H3X19922   3.056   6.782   6.861 -2.7945 -1.1771 -0.8206
  175SAPI   H3Y19923   2.918   6.812   6.990  0.1924  1.2601  1.5999
  175SAPI   C3419924   3.097   6.912   7.023  0.3525 -0.1063 -0.3128
  175SAPI   H4X19925   3.173   6.982   6.980 -0.7502  1.8426  0.7368
  175SAPI   H4Y19926   3.157   6.839   7.082  1.1920  2.7301  2.6679
  175SAPI   C3519927   3.022   7.000   7.130  0.2150  0.2028 -0.3047
  175SAPI   H5X19928   2.936   6.944   7.171 -0.1881  1.6787  0.9440
  175SAPI   H5Y19929   2.976   7.079   7.067 -0.7159 -0.8838 -1.0063
  175SAPI   C3619930   3.115   7.063   7.236 -0.1819 -0.6460  0.1034
  175SAPI   H6X19931   3.183   7.136   7.187 -1.0432  0.0049 -0.1545
  175SAPI   H6Y19932   3.184   7.001   7.297  0.7100  1.3169  1.1623
  175SAPI   C3719933   3.041   7.129   7.351  0.1857 -0.1062  0.0373
  175SAPI   H7X19934   2.994   7.052   7.414 -0.8046  1.8783  1.8468
  175SAPI   H7Y19935   2.971   7.199   7.300  2.7024  1.7577 -1.0987
  175SAPI   C3819936   3.134   7.201   7.449 -0.7218 -0.4077 -0.1716
  175SAPI   H8X19937   3.204   7.275   7.404  0.3256 -0.1550  1.7619
  175SAPI   H8Y19938   3.191   7.116   7.491  1.5724  1.2562  0.2378
  175SAPI   C3919939   3.056   7.263   7.568 -0.2769  0.3654  0.3146
  175SAPI   H9X19940   2.978   7.190   7.598  1.1822 -0.7055  1.6871
  175SAPI   H9Y19941   3.002   7.359   7.556 -2.1901 -0.3246  2.7637
  175SAPI  C31019942   3.133   7.278   7.695  0.3884 -0.3705  0.3951
  175SAPI  H10X19943   3.228   7.331   7.676  0.7740 -0.1750  2.5398
  175SAPI  H10Y19944   3.165   7.182   7.742  1.6585  0.1507  0.6307
  175SAPI  C31119945   3.048   7.348   7.814  0.3158 -0.4991  0.0803
  175SAPI  H11X19946   2.954   7.294   7.838  1.7652 -2.8899  0.7450
  175SAPI  H11Y19947   3.022   7.447   7.770 -1.4019 -0.9133  0.1031
  175SAPI  C31219948   3.131   7.367   7.942  0.2403 -0.6394  0.7920
  175SAPI  H12X19949   3.225   7.411   7.903 -1.3618  1.6854 -0.7008
  175SAPI  H12Y19950   3.150   7.266   7.984 -1.4795 -1.4469 -0.2506
  175SAPI  C31319951   3.066   7.464   8.039 -0.2322  0.8757 -0.0652
  175SAPI  H13X19952   3.057   7.568   7.999  1.0591  0.9796 -0.1586
  175SAPI  H13Y19953   3.142   7.477   8.120  0.8898 -0.9381 -0.7627
  175SAPI  C31419954   2.932   7.412   8.096  0.3830 -0.7435  0.0261
  175SAPI  H14X19955   2.933   7.302   8.115  0.4395 -0.4920  1.6273
  175SAPI  H14Y19956   2.862   7.430   8.012 -1.6123  0.4702  1.8530
  175SAPI  C31519957   2.884   7.483   8.225  0.8700  0.5044 -0.1453
  175SAPI  H15X19958   2.893   7.591   8.201  1.2056  0.0583 -2.1972
  175SAPI  H15Y19959   2.960   7.465   8.303  2.6505  1.2248 -1.6495
  175SAPI  C31619960   2.736   7.458   8.266 -0.4797 -0.4957 -0.1787
  175SAPI  H16X19961   2.714   7.350   8.280 -0.1570 -0.5238  0.1285
  175SAPI  H16Y19962   2.669   7.488   8.183  0.5551 -0.0541 -0.8832
  175SAPI  C31719963   2.689   7.515   8.402  0.0889  0.4977  0.1355
  175SAPI  H17X19964   2.699   7.626   8.396 -1.9080  0.7000 -0.1663
  175SAPI  H17Y19965   2.748   7.479   8.489 -1.4724 -1.9736  0.2530
  175SAPI  C31819966   2.546   7.468   8.441  0.7449  0.5355 -0.2318
  175SAPI  H18X19967   2.547   7.357   8.433  0.9609  0.5875 -1.0235
  175SAPI  H18Y19968   2.474   7.509   8.366  2.5470  0.2892 -2.1995
  175SAPI  H18Z19969   2.519   7.492   8.546  0.5428 -1.0299  0.1016
  176SAPI   C1219970   1.983   6.241   6.963  0.1873 -0.4418 -0.2155
  176SAPI    H219971   2.019   6.142   6.998  0.5693 -1.3647 -3.0392
  176SAPI    O219972   1.838   6.249   6.964  0.1116  0.5534  0.4059
  176SAPI   HO219973   1.798   6.203   6.890 -0.0162  1.0854  0.1353
  176SAPI   C1319974   2.035   6.341   7.060 -0.2908 -1.1514  0.4890
  176SAPI    H319975   2.146   6.330   7.061  0.1059  0.8240 -3.1948
  176SAPI    O319976   1.983   6.303   7.188 -0.0653 -0.5112  0.3789
  176SAPI   HO319977   1.901   6.263   7.160  0.7553 -0.9464 -1.6144
  176SAPI   C1419978   2.007   6.486   7.023  1.2592 -0.6893 -0.6444
  176SAPI    H419979   1.899   6.508   7.022  1.2039  0.2264  3.8493
  176SAPI    O419980   2.065   6.573   7.124  0.0510  0.1296  0.3294
  176SAPI   HO419981   2.021   6.550   7.206 -1.8132  1.6730 -0.1486
  176SAPI   C1519982   2.069   6.513   6.881  0.2180 -0.4544  0.6242
  176SAPI    H519983   2.179   6.503   6.892  0.1384 -2.2990  0.1006
  176SAPI    O519984   2.048   6.647   6.838  0.2896  0.2038  0.1841
  176SAPI   HO519985   1.954   6.665   6.836 -0.0523 -1.4071 -0.4090
  176SAPI   C1619986   2.014   6.408   6.783 -0.0994  0.0503  0.3143
  176SAPI    H619987   1.906   6.431   6.773 -0.0644 -0.4544 -1.4191
  176SAPI    O619988   2.071   6.426   6.656 -0.3863 -0.8136 -0.7842
  176SAPI   HO619989   2.108   6.342   6.627 -0.6767 -1.1186 -0.2805
  176SAPI   C1119990   2.037   6.263   6.824 -0.7039  0.0819  0.4594
  176SAPI    H119991   2.146   6.242   6.833  0.2836  3.5706 -1.4642
  176SAPI     P19992   2.086   6.087   6.638 -0.0904  0.3296  0.0152
  176SAPI   O1319993   2.185   6.183   6.584  0.5189  0.0082 -0.2702
  176SAPI   O1419994   2.018   5.997   6.540  0.0825  1.0643 -0.3065
  176SAPI   O1219995   1.975   6.164   6.740 -0.3435 -0.5525 -0.1704
  176SAPI   O1119996   2.150   5.991   6.745  0.1391 -0.1245 -0.4617
  176SAPI    C119997   2.067   5.886   6.812  1.1211 -0.3223 -0.3497
  176SAPI    HA19998   1.985   5.934   6.870  0.0820 -0.0220 -2.0140
  176SAPI    HB19999   2.009   5.820   6.744 -0.0093  0.6743 -0.3871
  176SAPI    C220000   2.139   5.783   6.901  0.8193  0.3938 -0.2879
  176SAPI    HS20001   2.085   5.694   6.938  2.2170  0.3231  1.7561
  176SAPI   O2120002   2.202   5.850   7.009  0.1220 -0.1351 -0.0662
  176SAPI   C2120003   2.125   5.899   7.104 -1.0326  0.0942  0.8528
  176SAPI   O2220004   2.011   5.872   7.123  0.1308 -0.0784 -0.1505
  176SAPI   C2220005   2.200   6.002   7.189  1.0947 -0.0807 -0.1626
  176SAPI   H2R20006   2.300   5.958   7.210  0.0297 -2.7423 -0.3603
  176SAPI   H2S20007   2.217   6.094   7.128  0.2239 -0.3063 -0.7675
  176SAPI    C320008   2.252   5.723   6.814  0.6704  1.4757  0.0875
  176SAPI    HX20009   2.312   5.806   6.772  0.5001  0.6312 -1.9488
  176SAPI    HY20010   2.219   5.673   6.721 -1.4030  0.4517  1.3017
  176SAPI   O3120011   2.340   5.631   6.886 -0.8558 -0.7668  0.3952
  176SAPI   C3120012   2.340   5.502   6.856 -0.0654  0.0003  0.0141
  176SAPI   O3220013   2.252   5.448   6.792  0.5016 -0.5605  0.0411
  176SAPI   C3220014   2.476   5.444   6.900 -0.0275  0.4236  0.0300
  176SAPI   H2X20015   2.498   5.473   7.005  0.9372 -3.0745  0.9166
  176SAPI   H2Y20016   2.555   5.483   6.832 -0.5094 -0.3996 -1.0272
  176SAPI   C2320017   2.134   6.031   7.325 -0.3419 -0.2648 -0.1750
  176SAPI   H3R20018   2.032   6.070   7.303  0.3430  1.8771  0.2285
  176SAPI   H3S20019   2.193   6.112   7.373  1.8601 -0.1792 -2.7659
  176SAPI   C2420020   2.128   5.910   7.418 -0.2618  0.4065 -0.3038
  176SAPI   H4R20021   2.078   5.831   7.359  1.3301 -1.3596  0.5849
  176SAPI   H4S20022   2.061   5.935   7.503 -0.1170  0.0111 -0.0679
  176SAPI   C2520023   2.259   5.853   7.464  0.6802 -0.1064 -0.1499
  176SAPI   H5R20024   2.290   5.758   7.419  1.0782  0.8075 -1.8877
  176SAPI   C2620025   2.329   5.915   7.559  0.2095  0.4367  0.2582
  176SAPI   H6R20026   2.421   5.864   7.592 -0.8598 -0.2252  2.4076
  176SAPI   C2720027   2.290   6.042   7.634  0.1393  0.3083  0.9045
  176SAPI   H7R20028   2.182   6.069   7.627 -0.0147 -0.2189  1.1388
  176SAPI   H7S20029   2.359   6.117   7.590  0.8430 -1.8627 -2.0264
  176SAPI   C2820030   2.299   6.014   7.777  0.1140  0.5640 -0.0909
  176SAPI   H8R20031   2.232   5.940   7.822  0.3403 -0.0102 -0.6749
  176SAPI   C2920032   2.387   6.075   7.855 -0.4244 -0.2519 -0.0245
  176SAPI   H9R20033   2.389   6.033   7.957 -4.7818 -1.1994 -0.1029
  176SAPI  C21020034   2.497   6.173   7.817  0.0223 -0.0792  0.1954
  176SAPI  H10R20035   2.517   6.237   7.905  1.8089  1.4363 -1.2227
  176SAPI  H10S20036   2.460   6.243   7.738 -0.3301  0.3190  0.7084
  176SAPI  C21120037   2.623   6.107   7.769  0.6064 -0.2554 -0.1336
  176SAPI  H11R20038   2.632   5.998   7.783  1.3380 -0.0330  1.3112
  176SAPI  C21220039   2.745   6.162   7.747  0.6545  0.2322  0.4747
  176SAPI  H12R20040   2.821   6.093   7.708 -1.0415 -0.6413 -1.4927
  176SAPI  C21320041   2.770   6.309   7.746 -0.3525 -0.1415 -0.1220
  176SAPI  H13R20042   2.774   6.341   7.852  0.9842 -1.5047  0.2667
  176SAPI  H13S20043   2.701   6.372   7.685  0.0662 -0.7500 -1.2720
  176SAPI  C21420044   2.906   6.347   7.684  0.0961 -0.6440  0.6519
  176SAPI  H14R20045   2.910   6.337   7.574 -1.8582  4.0066 -0.1138
  176SAPI  C21520046   3.014   6.406   7.734  0.3691  0.5186  0.3913
  176SAPI  H15R20047   3.105   6.428   7.676  0.3570 -1.0830 -0.2712
  176SAPI  C21620048   3.040   6.450   7.873  0.2560 -0.7264 -0.1299
  176SAPI  H16R20049   2.955   6.418   7.936 -0.2028  1.9301  0.7373
  176SAPI  H16S20050   3.031   6.560   7.885 -1.2864 -1.1152  4.5016
  176SAPI  C21720051   3.171   6.396   7.924 -0.4724 -0.6663 -0.0028
  176SAPI  H17R20052   3.252   6.423   7.852  0.5250 -1.4465  0.7898
  176SAPI  H17S20053   3.169   6.285   7.925 -0.9190 -0.7719 -2.9319
  176SAPI  C21820054   3.201   6.440   8.060  0.3862  0.3506 -0.3411
  176SAPI  H18R20055   3.280   6.380   8.108 -0.7476 -1.4982 -0.6822
  176SAPI  H18S20056   3.111   6.407   8.116  0.1579  0.0225 -0.8893
  176SAPI  C21920057   3.228   6.586   8.073  0.3984  0.2093  0.1420
  176SAPI  H19R20058   3.134   6.638   8.045 -0.1724 -1.1922 -0.6301
  176SAPI  H19S20059   3.302   6.594   7.990  0.0049  1.2466 -0.1282
  176SAPI  C22020060   3.285   6.636   8.208  0.5252 -0.4862  0.0965
  176SAPI  H20R20061   3.211   6.636   8.290  1.6898  2.4834  1.3008
  176SAPI  H20S20062   3.330   6.737   8.192  2.3470 -0.9090  2.1273
  176SAPI  H20T20063   3.372   6.569   8.222  0.2805 -1.3554 -2.0979
  176SAPI   C3320064   2.485   5.294   6.910  0.5042 -0.8911  0.1937
  176SAPI   H3X20065   2.471   5.241   6.813 -2.3313 -0.6474  0.3968
  176SAPI   H3Y20066   2.399   5.262   6.972  0.9528  0.5401  1.6180
  176SAPI   C3420067   2.630   5.251   6.969  0.3046 -0.3730  0.3592
  176SAPI   H4X20068   2.681   5.349   6.960 -1.2027  0.7082  2.8183
  176SAPI   H4Y20069   2.680   5.182   6.897  0.8143  0.0910  0.2589
  176SAPI   C3520070   2.620   5.183   7.105 -0.6301 -0.8632  0.1520
  176SAPI   H5X20071   2.611   5.073   7.096  0.9107 -1.3531  3.2533
  176SAPI   H5Y20072   2.527   5.221   7.154 -0.1964 -0.8313  0.9672
  176SAPI   C3620073   2.744   5.223   7.192 -0.0082 -0.6180  0.2857
  176SAPI   H6X20074   2.761   5.328   7.162 -0.9045 -0.6577 -0.4038
  176SAPI   H6Y20075   2.823   5.153   7.156  0.1237 -0.9209  1.1541
  176SAPI   C3720076   2.726   5.197   7.343  0.3204 -0.8586  0.2918
  176SAPI   H7X20077   2.735   5.088   7.364 -1.8352 -1.3365 -0.9570
  176SAPI   H7Y20078   2.626   5.232   7.375  1.7240  3.7447  0.3152
  176SAPI   C3820079   2.824   5.278   7.431  0.0129 -0.4287  0.1279
  176SAPI   H8X20080   2.786   5.381   7.445  0.8101 -0.2274  0.8740
  176SAPI   H8Y20081   2.927   5.290   7.391 -0.1468  1.4023  0.1909
  176SAPI   C3920082   2.834   5.229   7.577  0.7617 -0.4888 -0.3515
  176SAPI   H9X20083   2.900   5.140   7.581  1.2867 -0.2441 -2.5720
  176SAPI   H9Y20084   2.733   5.194   7.609 -1.2056  2.1071 -3.1938
  176SAPI  C31020085   2.863   5.340   7.681 -0.8778  0.6230 -0.3178
  176SAPI  H10X20086   2.784   5.418   7.680 -1.7648 -0.1859 -3.2303
  176SAPI  H10Y20087   2.957   5.388   7.646  0.2064 -1.4843 -0.4041
  176SAPI  C31120088   2.894   5.278   7.822 -0.7373 -0.2837  0.2157
  176SAPI  H11X20089   2.975   5.204   7.807 -0.7897 -0.7335  1.9372
  176SAPI  H11Y20090   2.813   5.215   7.863  0.3151 -1.9144 -0.1024
  176SAPI  C31220091   2.943   5.392   7.921  0.0256  0.3362  0.3664
  176SAPI  H12X20092   2.858   5.448   7.966 -0.7686 -0.6785  0.1693
  176SAPI  H12Y20093   3.005   5.469   7.870  1.7405  0.2366  2.1940
  176SAPI  C31320094   3.039   5.343   8.026  0.2849  0.3737 -0.1135
  176SAPI  H13X20095   3.124   5.303   7.967  1.3465  0.7688  1.1159
  176SAPI  H13Y20096   2.985   5.269   8.089  1.0607  0.3649  0.5572
  176SAPI  C31420097   3.096   5.442   8.123 -0.1194  0.5682 -0.5493
  176SAPI  H14X20098   3.005   5.497   8.156 -0.6845 -0.8684  0.3749
  176SAPI  H14Y20099   3.170   5.516   8.085 -0.4114  1.5638  0.7165
  176SAPI  C31520100   3.169   5.372   8.245 -0.2119  0.0825 -0.2674
  176SAPI  H15X20101   3.247   5.301   8.212  1.0073  0.6288  1.3042
  176SAPI  H15Y20102   3.089   5.320   8.303  0.0587 -0.5419 -0.4461
  176SAPI  C31620103   3.260   5.470   8.326  0.2873 -0.2868  0.3567
  176SAPI  H16X20104   3.353   5.499   8.273  0.0264  1.2423  0.6846
  176SAPI  H16Y20105   3.286   5.406   8.413  2.4553  1.2634  0.9090
  176SAPI  C31720106   3.178   5.589   8.372  0.4870  0.3309 -0.1790
  176SAPI  H17X20107   3.080   5.549   8.407 -0.6504  1.8057 -1.5433
  176SAPI  H17Y20108   3.145   5.656   8.290 -1.5948 -1.0743 -0.5731
  176SAPI  C31820109   3.243   5.683   8.478 -0.1178 -0.9064  0.1325
  176SAPI  H18X20110   3.179   5.766   8.515  1.6101  1.4354 -1.8174
  176SAPI  H18Y20111   3.332   5.732   8.434 -0.8128  2.7357  2.3856
  176SAPI  H18Z20112   3.283   5.635   8.570  0.6358 -0.2035  0.1785
  177SLPC     N20113   2.248   1.599  11.211 -0.0854 -0.0583 -0.2024
  177SLPC   C1320114   2.357   1.656  11.292  0.3856 -0.7767 -0.3457
  177SLPC  H13A20115   2.447   1.675  11.235 -1.2052 -1.1622 -3.1328
  177SLPC  H13B20116   2.323   1.745  11.342  0.1622 -1.4602  0.7416
  177SLPC  H13C20117   2.392   1.594  11.374  0.2538  1.5176  1.5513
  177SLPC   C1420118   2.219   1.691  11.092 -0.6447  0.1662 -0.0641
  177SLPC  H14A20119   2.149   1.769  11.116 -0.5153 -0.1686  1.4849
  177SLPC  H14B20120   2.306   1.727  11.038 -1.2996 -0.0876 -1.3140
  177SLPC  H14C20121   2.163   1.634  11.020  0.5027  1.5122 -2.1252
  177SLPC   C1520122   2.127   1.587  11.284 -0.2719  0.4402 -0.1415
  177SLPC  H15A20123   2.138   1.512  11.361 -0.2247 -0.2365 -0.7927
  177SLPC  H15B20124   2.077   1.675  11.320  0.5159  1.5142 -1.5905
  177SLPC  H15C20125   2.051   1.553  11.215 -1.2767 -0.5749  1.3909
  177SLPC   C1220126   2.297   1.464  11.160 -0.1855  0.3674  0.0036
  177SLPC  H12A20127   2.325   1.408  11.248 -1.1525  1.1071  0.8036
  177SLPC  H12B20128   2.379   1.485  11.093  1.0630  2.6638  2.0679
  177SLPC   C1120129   2.196   1.372  11.095  0.0743  0.3490 -0.3096
  177SLPC  H11A20130   2.140   1.325  11.179  0.7593  0.6800  0.3412
  177SLPC  H11B20131   2.256   1.289  11.050  0.2684 -1.0299  2.2971
  177SLPC     P20132   1.962   1.428  10.999 -0.0251 -0.1050 -0.1441
  177SLPC   O1320133   1.913   1.397  11.134 -0.3885  0.6799 -0.2638
  177SLPC   O1420134   1.913   1.558  10.949 -0.2663  0.3736  0.2140
  177SLPC   O1220135   2.121   1.444  10.999 -0.0585 -0.2320  0.1563
  177SLPC   O1120136   1.929   1.311  10.901  0.4404 -0.1184  0.1600
  177SLPC    C120137   2.004   1.283  10.783  0.0425  0.2560 -1.3174
  177SLPC    HA20138   2.111   1.272  10.809 -0.5902  1.9102  2.7814
  177SLPC    HB20139   1.968   1.181  10.755 -1.7476  0.3688  0.3543
  177SLPC    C220140   1.990   1.369  10.660  0.3513 -0.3647 -0.2035
  177SLPC    HS20141   2.043   1.466  10.673  1.9340 -1.5122  2.8078
  177SLPC   O2120142   1.850   1.379  10.627  0.0742  0.2185 -0.0808
  177SLPC   C2120143   1.805   1.496  10.590  0.3729  0.4878 -0.7461
  177SLPC   O2220144   1.863   1.599  10.613 -0.3183  0.4617 -0.2986
  177SLPC   C2220145   1.664   1.486  10.527  0.3281  0.0720 -0.0107
  177SLPC   H2R20146   1.665   1.414  10.442 -0.8186  2.0077 -1.7468
  177SLPC   H2S20147   1.602   1.458  10.614 -0.4821 -1.0741 -0.9181
  177SLPC    C320148   2.063   1.292  10.551 -0.5900 -0.4792  0.4089
  177SLPC    HX20149   2.032   1.186  10.544 -0.0913 -0.5956 -0.1181
  177SLPC    HY20150   2.171   1.276  10.572 -0.7997 -2.1513  0.3777
  177SLPC   O3120151   2.052   1.341  10.410  0.0374 -0.5275  0.0989
  177SLPC   C3120152   1.960   1.274  10.341 -0.1519 -0.7001  0.2311
  177SLPC   O3220153   1.901   1.174  10.378  0.5267 -0.6550 -0.0844
  177SLPC   C3220154   1.942   1.345  10.206 -0.1818  0.2924  0.8717
  177SLPC   H2X20155   2.013   1.291  10.140  0.8970  0.2932  2.0068
  177SLPC   H2Y20156   1.980   1.449  10.217 -2.3460  1.2401 -0.0410
  177SLPC   C2320157   1.607   1.616  10.458  0.2532  0.2883  0.1299
  177SLPC   H3R20158   1.684   1.647  10.384  1.3143  1.1298  1.5322
  177SLPC   H3S20159   1.584   1.689  10.538 -3.1875 -0.0451 -0.3844
  177SLPC   C2420160   1.480   1.599  10.390 -0.4442 -0.9648 -0.2248
  177SLPC   H4R20161   1.409   1.563  10.467  0.8927  2.5153  2.9704
  177SLPC   H4S20162   1.500   1.519  10.316  0.6209  1.3039 -2.5633
  177SLPC   C2520163   1.444   1.728  10.324  0.1288  0.2679 -0.2103
  177SLPC   H5R20164   1.509   1.733  10.235  3.2472  0.3515  1.9174
  177SLPC   H5S20165   1.457   1.822  10.381 -2.0707  1.4797 -1.5905
  177SLPC   C2620166   1.298   1.723  10.269 -0.7902  0.9827 -0.5246
  177SLPC   H6R20167   1.229   1.683  10.346 -0.4128 -1.0035 -1.1713
  177SLPC   H6S20168   1.311   1.651  10.186  0.0268  0.0328  0.3964
  177SLPC   C2720169   1.257   1.855  10.212 -0.0913 -0.9069  0.1217
  177SLPC   H7R20170   1.302   1.876  10.113 -1.5948  2.1692 -0.0307
  177SLPC   H7S20171   1.278   1.940  10.281  2.0623 -1.3735  0.1270
  177SLPC   C2820172   1.104   1.864  10.186 -0.4064 -0.0854  0.0466
  177SLPC   H8R20173   1.048   1.860  10.281 -1.0962 -0.9509 -0.3793
  177SLPC   H8S20174   1.068   1.774  10.132 -1.2556  2.1198 -3.3922
  177SLPC   C2920175   1.060   1.992  10.115  0.7191  0.2359 -0.2319
  177SLPC   H9R20176   1.082   2.087  10.165 -0.0543  0.3287 -0.0565
  177SLPC  C21020177   1.008   1.982   9.991  0.2818 -0.3941  0.3852
  177SLPC  H10R20178   0.976   2.071   9.934 -0.9517 -0.8352  0.3534
  177SLPC  C21120179   0.972   1.857   9.915  0.3216  0.3439  0.8442
  177SLPC  H11R20180   0.893   1.797   9.965  0.5600  0.4463  1.3499
  177SLPC  H11S20181   0.919   1.892   9.824  0.4312 -0.0038  0.6450
  177SLPC  C21220182   1.079   1.768   9.856 -0.2114  0.2997 -0.2256
  177SLPC  H12R20183   1.184   1.798   9.872  0.2382 -0.0428 -2.2083
  177SLPC  C21320184   1.058   1.661   9.783  0.9935  0.5841  0.2471
  177SLPC  H13R20185   1.143   1.596   9.760  1.5973  1.0727  1.0602
  177SLPC  C21420186   0.919   1.604   9.755 -0.1415 -0.4092 -0.3666
  177SLPC  H14R20187   0.853   1.634   9.839  0.0791 -2.0669  0.4582
  177SLPC  H14S20188   0.920   1.493   9.765  1.7228 -0.2930  1.8587
  177SLPC  C21520189   0.853   1.638   9.621 -0.7826 -1.0203 -0.3140
  177SLPC  H15R20190   0.813   1.742   9.615  0.0361 -0.6365  0.6595
  177SLPC  H15S20191   0.756   1.584   9.614 -0.8797 -0.8818 -0.0185
  177SLPC  C21620192   0.928   1.592   9.496  0.2895 -0.3370 -0.8776
  177SLPC  H16R20193   0.937   1.482   9.479 -0.0431 -0.2463 -1.6901
  177SLPC  H16S20194   1.032   1.631   9.505 -0.1975  0.6644  0.8546
  177SLPC  C21720195   0.851   1.647   9.376 -0.6646 -0.5440 -0.3704
  177SLPC  H17R20196   0.849   1.758   9.374 -1.0841 -0.5498 -0.3535
  177SLPC  H17S20197   0.748   1.608   9.384 -0.6333 -0.3377  1.5688
  177SLPC  C21820198   0.905   1.601   9.236  0.2969 -1.1195 -0.3438
  177SLPC  H18R20199   1.014   1.621   9.232  0.0393  0.1455 -1.9989
  177SLPC  H18S20200   0.853   1.659   9.156 -2.1984 -0.5484  1.5491
  177SLPC  H18T20201   0.883   1.493   9.224  0.6282 -1.2388  0.0799
  177SLPC   C3320202   1.796   1.336  10.163  0.0455  0.3379 -0.0102
  177SLPC   H3X20203   1.716   1.366  10.234 -0.3903 -1.6519  0.3892
  177SLPC   H3Y20204   1.776   1.232  10.130  0.5331  0.7708 -1.8135
  177SLPC   C3420205   1.771   1.424  10.039 -0.1450 -0.1517  0.6484
  177SLPC   H4X20206   1.678   1.384   9.994 -0.3647 -0.1487  1.1009
  177SLPC   H4Y20207   1.855   1.411   9.967  0.7263  2.2203  1.1386
  177SLPC   C3520208   1.755   1.575  10.053 -0.1735  0.1326 -0.4266
  177SLPC   H5X20209   1.855   1.623  10.052 -0.8820  1.8555  1.6984
  177SLPC   H5Y20210   1.708   1.595  10.152  0.3609 -2.2016  0.3674
  177SLPC   C3620211   1.672   1.634   9.941 -0.0092 -0.6776  0.0344
  177SLPC   H6X20212   1.742   1.634   9.855 -0.0630  0.3377 -0.0181
  177SLPC   H6Y20213   1.659   1.742   9.962  1.8696 -0.3020 -0.5342
  177SLPC   C3720214   1.524   1.593   9.906  0.4292 -0.5198  0.5618
  177SLPC   H7X20215   1.456   1.610   9.992 -2.0682 -4.6688 -0.3185
  177SLPC   H7Y20216   1.516   1.488   9.871 -0.0536  0.2222 -1.7312
  177SLPC   C3820217   1.450   1.691   9.804 -0.6178 -0.3813 -0.0136
  177SLPC   H8X20218   1.468   1.798   9.828  2.3232 -0.9644  0.8109
  177SLPC   H8Y20219   1.342   1.669   9.813 -1.1320  2.3057  1.6381
  177SLPC   C3920220   1.505   1.666   9.665  0.3882  0.1261 -0.3870
  177SLPC   H9X20221   1.521   1.556   9.655 -3.3186 -0.6020  0.2533
  177SLPC   H9Y20222   1.602   1.720   9.662  1.6015 -1.8909  0.7503
  177SLPC  C31020223   1.417   1.725   9.552 -0.2614 -0.6422  0.6508
  177SLPC  H10X20224   1.401   1.833   9.569 -1.6277 -1.0737  2.4565
  177SLPC  H10Y20225   1.318   1.674   9.542 -0.7137  0.5407 -1.5306
  177SLPC  C31120226   1.485   1.704   9.413 -0.4172  0.3401 -0.5209
  177SLPC  H11X20227   1.508   1.599   9.386  0.8173  0.4115  0.1782
  177SLPC  H11Y20228   1.587   1.746   9.408  0.8770 -2.4340  0.5506
  177SLPC  C31220229   1.391   1.762   9.308 -0.5357 -0.5748 -0.8898
  177SLPC  H12X20230   1.372   1.870   9.329  0.1701 -1.2309  4.8824
  177SLPC  H12Y20231   1.294   1.710   9.325 -0.9861  0.4372 -0.2219
  177SLPC  C31320232   1.432   1.740   9.166 -0.6581  0.1753 -0.0863
  177SLPC  H13X20233   1.475   1.638   9.163  2.1307  1.2443  0.3901
  177SLPC  H13Y20234   1.510   1.816   9.144 -1.3756  0.4650 -1.8140
  177SLPC  C31420235   1.315   1.758   9.067 -0.5434  0.4017  0.4874
  177SLPC  H14X20236   1.267   1.858   9.077  0.7089  1.0334  0.2901
  177SLPC  H14Y20237   1.238   1.689   9.109 -1.2972  1.2204  0.4737
  177SLPC  C31520238   1.350   1.725   8.922  0.1021 -0.2359 -0.0719
  177SLPC  H15X20239   1.393   1.623   8.911  2.1430  0.3684  1.7179
  177SLPC  H15Y20240   1.437   1.782   8.884 -0.2677  0.1512 -0.3477
  177SLPC  C31620241   1.227   1.744   8.839  0.1443  0.1797  0.2882
  177SLPC  H16X20242   1.134   1.702   8.884 -0.2078  2.5019  1.8874
  177SLPC  H16Y20243   1.228   1.692   8.740  2.5943  1.5788 -0.5004
  177SLPC  C31720244   1.198   1.891   8.811 -0.5787 -0.1904  0.5346
  177SLPC  H17X20245   1.290   1.942   8.773  1.7035 -3.3591  1.3770
  177SLPC  H17Y20246   1.163   1.940   8.904 -0.5050 -0.6549  0.8113
  177SLPC  C31820247   1.086   1.899   8.707 -0.0242 -0.9825 -0.4832
  177SLPC  H18X20248   0.998   1.837   8.736 -0.7469  0.1981 -0.0954
  177SLPC  H18Y20249   1.125   1.857   8.612  0.8304 -0.4330 -0.3866
  177SLPC  H18Z20250   1.057   2.005   8.692 -1.8067 -1.1966  1.0748
  178SLPC     N20251   5.093   3.638  11.338 -0.3621 -0.6742 -0.4639
  178SLPC   C1320252   5.223   3.589  11.270 -0.1816 -0.8596  0.1336
  178SLPC  H13A20253   5.204   3.492  11.226 -2.2022 -0.3313 -0.2681
  178SLPC  H13B20254   5.264   3.656  11.196  0.3865  0.9029  1.9578
  178SLPC  H13C20255   5.294   3.577  11.351 -0.9666 -0.9132  0.8340
  178SLPC   C1420256   5.117   3.766  11.420  0.0951 -0.3984  0.4399
  178SLPC  H14A20257   5.203   3.750  11.484 -1.1749 -0.9018  2.0665
  178SLPC  H14B20258   5.143   3.846  11.352 -0.1053  2.0167  2.9759
  178SLPC  H14C20259   5.031   3.797  11.478 -0.3508 -1.8224  0.5595
  178SLPC   C1520260   5.042   3.529  11.432  0.1520  0.0865  0.6250
  178SLPC  H15A20261   5.116   3.514  11.509 -2.5917  1.3541  3.7222
  178SLPC  H15B20262   4.950   3.555  11.482 -1.2633 -0.2566 -1.6207
  178SLPC  H15C20263   5.024   3.442  11.370  0.4994  1.8429 -2.1204
  178SLPC   C1220264   4.989   3.669  11.231  0.0154  0.4277 -0.2775
  178SLPC  H12A20265   5.032   3.745  11.167  1.3646  3.1187  3.4896
  178SLPC  H12B20266   4.909   3.727  11.274  0.4073  1.8249 -1.3489
  178SLPC   C1120267   4.929   3.559  11.144  0.0053 -0.1409 -0.0838
  178SLPC  H11A20268   4.848   3.594  11.077  0.1312  0.4424  0.0627
  178SLPC  H11B20269   4.877   3.484  11.208  0.6498 -1.0999 -0.6612
  178SLPC     P20270   5.064   3.340  11.064 -0.0179  0.2944 -0.0966
  178SLPC   O1320271   5.151   3.293  11.171  0.2681  0.1829 -0.3819
  178SLPC   O1420272   4.939   3.262  11.048  0.1945 -0.0133 -0.6815
  178SLPC   O1220273   5.039   3.496  11.077 -0.3636 -0.3512 -0.5435
  178SLPC   O1120274   5.147   3.322  10.931 -0.2248  0.4600 -0.1375
  178SLPC    C120275   5.120   3.399  10.808  0.0393 -0.2018  0.1927
  178SLPC    HA20276   5.089   3.504  10.824 -1.0541 -0.2761 -1.2200
  178SLPC    HB20277   5.215   3.402  10.750  0.3141 -0.3427  0.6271
  178SLPC    C220278   5.012   3.341  10.717  0.2923 -0.4248  0.2301
  178SLPC    HS20279   4.924   3.339  10.784 -0.0172 -0.6433 -0.1800
  178SLPC   O2120280   5.054   3.214  10.657  0.1061 -0.1224  0.6068
  178SLPC   C2120281   4.947   3.132  10.644 -0.1127 -0.1395  0.6215
  178SLPC   O2220282   4.837   3.153  10.687 -0.0665 -0.3104  0.0602
  178SLPC   C2220283   4.987   3.013  10.557  0.6011  0.4828 -0.3701
  178SLPC   H2R20284   5.098   3.011  10.566  0.5610 -0.1300  0.0643
  178SLPC   H2S20285   4.948   2.922  10.607  1.3281  1.2048  1.6156
  178SLPC    C320286   4.969   3.434  10.600 -0.3366  0.3682  0.6673
  178SLPC    HX20287   4.918   3.523  10.643 -2.7884 -0.7333  0.1849
  178SLPC    HY20288   4.896   3.386  10.531  2.8271 -1.4138 -1.7256
  178SLPC   O3120289   5.086   3.469  10.520 -1.2222 -0.6416  0.2081
  178SLPC   C3120290   5.079   3.585  10.438 -0.5353  0.5741 -0.3534
  178SLPC   O3220291   4.981   3.656  10.444  0.1392  0.2447  0.0550
  178SLPC   C3220292   5.201   3.600  10.337 -0.1997  0.3042 -0.2268
  178SLPC   H2X20293   5.257   3.504  10.339  0.6967  0.7717 -1.3993
  178SLPC   H2Y20294   5.264   3.672  10.392  1.1266 -0.8526 -0.1682
  178SLPC   C2320295   4.943   3.025  10.414  1.0621 -0.9229 -0.5614
  178SLPC   H3R20296   4.841   3.070  10.410  2.1432  1.7933  0.0327
  178SLPC   H3S20297   4.938   2.921  10.375 -1.8426 -1.5603  1.2124
  178SLPC   C2420298   5.044   3.105  10.329  0.3242 -0.0869  0.9450
  178SLPC   H4R20299   5.137   3.047  10.348  0.3729 -1.3219 -2.4327
  178SLPC   H4S20300   5.046   3.208  10.369  1.8886  0.0285  0.6269
  178SLPC   C2520301   5.002   3.111  10.177  0.6917 -0.7495 -0.0485
  178SLPC   H5R20302   4.995   3.007  10.138 -2.6322 -0.7184  0.1582
  178SLPC   H5S20303   5.094   3.153  10.131  2.8215 -4.7327  0.1918
  178SLPC   C2620304   4.884   3.201  10.160  0.0699  0.4347 -0.3919
  178SLPC   H6R20305   4.897   3.286  10.230 -1.0124 -0.9133  1.5286
  178SLPC   H6S20306   4.791   3.150  10.194 -0.2016  0.2155 -1.4082
  178SLPC   C2720307   4.871   3.261  10.021  0.0325 -0.1775 -0.5029
  178SLPC   H7R20308   4.968   3.314  10.007 -0.7086  1.2625 -0.4541
  178SLPC   H7S20309   4.807   3.352  10.031  1.4832  0.7123  1.3548
  178SLPC   C2820310   4.828   3.178   9.893 -0.3593 -0.5410 -0.3282
  178SLPC   H8R20311   4.909   3.103   9.881 -0.7633 -1.5099  2.2930
  178SLPC   H8S20312   4.811   3.251   9.812 -0.3073 -1.1117 -0.8667
  178SLPC   C2920313   4.694   3.114   9.909  1.2774  0.0714 -0.2244
  178SLPC   H9R20314   4.662   3.117  10.015  0.3356 -0.4881 -0.4825
  178SLPC  C21020315   4.604   3.087   9.815 -0.1640  0.0218  0.0904
  178SLPC  H10R20316   4.502   3.051   9.835 -0.7499  1.0763 -0.8512
  178SLPC  C21120317   4.630   3.109   9.667 -0.1198 -0.3932  0.2704
  178SLPC  H11R20318   4.707   3.187   9.647 -0.1936 -0.7022 -1.3291
  178SLPC  H11S20319   4.532   3.148   9.631  0.9001  1.8048 -0.3028
  178SLPC  C21220320   4.656   2.982   9.580  0.0514 -0.1481 -0.8830
  178SLPC  H12R20321   4.689   2.895   9.639 -2.3456  0.3721  1.4317
  178SLPC  C21320322   4.656   2.973   9.446 -0.0345  0.2132 -0.5414
  178SLPC  H13R20323   4.685   2.877   9.401 -1.2221  0.0312 -0.9431
  178SLPC  C21420324   4.632   3.073   9.341 -0.7257  0.2171 -0.1248
  178SLPC  H14R20325   4.708   3.153   9.356  1.1260 -1.3888 -0.4989
  178SLPC  H14S20326   4.526   3.107   9.332 -0.4756  1.2656  0.6584
  178SLPC  C21520327   4.661   2.996   9.208  0.0391 -0.5275  0.2572
  178SLPC  H15R20328   4.588   2.913   9.196 -1.1634  0.8022 -2.6512
  178SLPC  H15S20329   4.761   2.949   9.196 -0.3610 -1.7447  1.4078
  178SLPC  C21620330   4.647   3.066   9.072 -0.1751  0.1003 -0.2661
  178SLPC  H16R20331   4.710   3.157   9.074 -0.6098  0.3960  0.0794
  178SLPC  H16S20332   4.539   3.091   9.064 -0.5000 -1.4954 -1.5036
  178SLPC  C21720333   4.683   2.976   8.946  0.4728 -0.1411  0.1048
  178SLPC  H17R20334   4.645   2.877   8.978  1.3243 -0.1932  1.0108
  178SLPC  H17S20335   4.791   2.955   8.932  0.3982 -0.8159  0.5145
  178SLPC  C21820336   4.614   3.004   8.813  0.6125 -0.2291  0.1997
  178SLPC  H18R20337   4.508   2.974   8.827  1.0964 -1.8990  0.5175
  178SLPC  H18S20338   4.656   2.947   8.727 -1.8703 -0.3203 -1.0567
  178SLPC  H18T20339   4.596   3.108   8.777 -1.1779 -1.0238 -1.4256
  178SLPC   C3320340   5.171   3.649  10.196 -0.0775  0.1214  0.3778
  178SLPC   H3X20341   5.268   3.655  10.143 -1.0244 -0.6746 -1.5551
  178SLPC   H3Y20342   5.125   3.750  10.199  0.4217  0.3378  0.9127
  178SLPC   C3420343   5.085   3.546  10.126  0.6411 -0.5622 -0.0630
  178SLPC   H4X20344   5.003   3.528  10.198  0.5479  1.8871  0.5427
  178SLPC   H4Y20345   5.137   3.450  10.108  3.5502  0.7941  0.3481
  178SLPC   C3520346   5.035   3.597   9.991 -0.1540  0.1917 -0.2272
  178SLPC   H5X20347   5.044   3.707   9.997  2.3623  0.0286  0.4743
  178SLPC   H5Y20348   4.937   3.555   9.962  0.5948 -0.2379 -2.3356
  178SLPC   C3620349   5.130   3.545   9.877 -0.4009  0.2649 -0.0599
  178SLPC   H6X20350   5.138   3.435   9.868  0.3796  0.3325 -0.2647
  178SLPC   H6Y20351   5.232   3.578   9.907 -0.6598  0.1928  0.9205
  178SLPC   C3720352   5.099   3.586   9.733  0.4517 -0.0754  0.1620
  178SLPC   H7X20353   5.195   3.599   9.679  1.1360  2.8813  1.9059
  178SLPC   H7Y20354   5.063   3.690   9.745 -0.3203 -0.6040  2.9840
  178SLPC   C3820355   5.004   3.492   9.649  1.0270 -0.6338 -0.3540
  178SLPC   H8X20356   4.898   3.491   9.682  1.0047  0.5126 -0.3368
  178SLPC   H8Y20357   5.046   3.390   9.661  1.2877 -0.2931  2.0863
  178SLPC   C3920358   5.016   3.535   9.500  0.0722 -0.1435 -0.2208
  178SLPC   H9X20359   5.105   3.498   9.446  1.3592  0.9496  1.0435
  178SLPC   H9Y20360   5.035   3.645   9.492 -2.3125  0.2459 -1.3090
  178SLPC  C31020361   4.888   3.500   9.416 -0.2473  0.2966  0.1200
  178SLPC  H10X20362   4.791   3.538   9.453 -0.4168 -1.4837  1.6287
  178SLPC  H10Y20363   4.897   3.390   9.417 -0.6732  0.2521 -0.6553
  178SLPC  C31120364   4.905   3.547   9.270 -0.5553 -0.4557 -0.3393
  178SLPC  H11X20365   5.007   3.525   9.232 -0.8252 -0.4278 -1.1080
  178SLPC  H11Y20366   4.898   3.657   9.253 -1.3286 -0.7494 -2.1742
  178SLPC  C31220367   4.803   3.468   9.182  0.0432 -0.7048  1.1603
  178SLPC  H12X20368   4.700   3.496   9.215  0.7277  1.0344  1.9648
  178SLPC  H12Y20369   4.812   3.359   9.205 -1.0572 -0.8390  1.0286
  178SLPC  C31320370   4.809   3.478   9.030  0.3811  0.3738  0.3450
  178SLPC  H13X20371   4.783   3.582   9.002 -2.5700 -0.1783  0.7357
  178SLPC  H13Y20372   4.731   3.415   8.982 -0.0869  0.8130  0.5135
  178SLPC  C31420373   4.942   3.445   8.966  0.0202  0.4133  0.3318
  178SLPC  H14X20374   5.001   3.362   9.011 -0.4144 -0.1770 -0.1702
  178SLPC  H14Y20375   5.008   3.533   8.979 -0.3344  0.8998 -0.9820
  178SLPC  C31520376   4.928   3.420   8.811  0.2727  0.2142  0.4129
  178SLPC  H15X20377   4.883   3.510   8.763  0.5670  0.6361  0.9162
  178SLPC  H15Y20378   5.021   3.443   8.755  0.7636  0.6550  1.3902
  178SLPC  C31620379   4.852   3.288   8.772 -0.6570  0.3369 -0.2313
  178SLPC  H16X20380   4.744   3.291   8.800 -0.7607 -3.1813  0.2552
  178SLPC  H16Y20381   4.899   3.198   8.818  0.3287  1.4864  1.1318
  178SLPC  C31720382   4.853   3.262   8.620  0.6480  0.3594 -0.2822
  178SLPC  H17X20383   4.813   3.161   8.594  2.2788  0.0849 -1.9539
  178SLPC  H17Y20384   4.960   3.268   8.589  1.0918 -1.9641  0.6165
  178SLPC  C31820385   4.762   3.350   8.545 -0.7155 -0.0995  0.5343
  178SLPC  H18X20386   4.656   3.324   8.568 -0.6250  0.2826  1.4374
  178SLPC  H18Y20387   4.781   3.337   8.436  1.5981  0.3424  0.8373
  178SLPC  H18Z20388   4.772   3.459   8.565 -0.7965  0.2914 -1.3990
  179SLPC     N20389   5.657   6.153  10.233  0.1422 -0.0752 -0.6016
  179SLPC   C1320390   5.603   6.028  10.161 -0.4807  0.0202 -0.3139
  179SLPC  H13A20391   5.500   6.027  10.128 -0.5198 -2.6700 -0.3102
  179SLPC  H13B20392   5.661   6.025  10.069  0.6294  1.0475  0.3205
  179SLPC  H13C20393   5.617   5.940  10.222 -1.6599  0.1667  0.1855
  179SLPC   C1420394   5.643   6.261  10.135  0.4084 -0.2234  0.0278
  179SLPC  H14A20395   5.678   6.232  10.037 -1.1074 -0.7265 -0.3971
  179SLPC  H14B20396   5.537   6.283  10.130  0.3160 -0.7703 -0.4807
  179SLPC  H14C20397   5.688   6.351  10.176  0.8792 -0.4085 -0.0830
  179SLPC   C1520398   5.797   6.130  10.257  0.2888 -0.8481 -0.4146
  179SLPC  H15A20399   5.863   6.142  10.173  3.8073 -0.7515  2.1527
  179SLPC  H15B20400   5.841   6.202  10.324  0.8797 -2.4905  1.0415
  179SLPC  H15C20401   5.810   6.035  10.307  1.5144 -0.5989 -0.2289
  179SLPC   C1220402   5.579   6.185  10.362  0.1398 -0.2907 -0.3403
  179SLPC  H12A20403   5.599   6.111  10.438 -1.7275 -0.4060  0.0948
  179SLPC  H12B20404   5.474   6.188  10.338  0.2020  0.1339 -0.5772
  179SLPC   C1120405   5.608   6.317  10.434 -0.5248 -0.2227 -0.7667
  179SLPC  H11A20406   5.713   6.323  10.470 -0.5315 -1.6553 -0.4709
  179SLPC  H11B20407   5.543   6.302  10.523 -1.3218 -0.5616 -1.3915
  179SLPC     P20408   5.440   6.504  10.397  0.2051 -0.0832 -0.2467
  179SLPC   O1320409   5.322   6.420  10.372 -0.5328  0.1020  0.7845
  179SLPC   O1420410   5.464   6.568  10.531  0.0633  0.0228  0.1770
  179SLPC   O1220411   5.576   6.433  10.356  0.6831 -0.1845  0.1866
  179SLPC   O1120412   5.429   6.625  10.292  0.0550 -0.4420  0.3059
  179SLPC    C120413   5.535   6.673  10.212 -0.2500  0.2349  0.8116
  179SLPC    HA20414   5.551   6.778  10.246  1.6709 -0.6779  2.9570
  179SLPC    HB20415   5.625   6.608  10.216 -0.4516 -0.5339 -3.2865
  179SLPC    C220416   5.483   6.682  10.064  0.0191 -0.7610  0.2727
  179SLPC    HS20417   5.398   6.753  10.054 -0.4950 -1.3631  0.2405
  179SLPC   O2120418   5.435   6.546  10.028 -0.2158  0.3781  0.6796
  179SLPC   C2120419   5.317   6.558   9.963 -0.0556  0.2513 -0.4060
  179SLPC   O2220420   5.259   6.653   9.927  0.0394 -0.7379  0.3927
  179SLPC   C2220421   5.278   6.407   9.939 -0.3459 -0.5782 -0.0240
  179SLPC   H2R20422   5.310   6.385   9.835 -1.2670 -0.0208 -0.4346
  179SLPC   H2S20423   5.334   6.328   9.995  0.8561  1.4532  1.7840
  179SLPC    C320424   5.602   6.721   9.973 -0.1651 -0.3413  0.4414
  179SLPC    HX20425   5.664   6.629   9.976 -1.0239 -0.9336  0.3463
  179SLPC    HY20426   5.681   6.791  10.007 -0.7118 -0.2276  1.5192
  179SLPC   O3120427   5.575   6.746   9.838  0.0169  0.1912 -0.5580
  179SLPC   C3120428   5.513   6.863   9.827  0.3697 -0.1776  0.3704
  179SLPC   O3220429   5.510   6.945   9.918 -0.2105 -0.0649  0.6274
  179SLPC   C3220430   5.464   6.877   9.686  0.6154  0.5355 -0.1507
  179SLPC   H2X20431   5.372   6.940   9.688 -0.6190 -1.2052  0.3174
  179SLPC   H2Y20432   5.420   6.779   9.657  0.9349  0.0966  0.8202
  179SLPC   C2320433   5.125   6.388   9.973 -0.8388  0.1711  0.0841
  179SLPC   H3R20434   5.104   6.456  10.059 -0.7465 -0.1494  0.3610
  179SLPC   H3S20435   5.114   6.282  10.004 -0.4512  0.5893  1.7520
  179SLPC   C2420436   5.033   6.402   9.852  0.3388  0.4768 -0.5135
  179SLPC   H4R20437   5.063   6.324   9.779  1.6955 -1.3353  1.8156
  179SLPC   H4S20438   5.058   6.502   9.811  0.5446  0.1155 -1.2768
  179SLPC   C2520439   4.887   6.384   9.895  0.5017 -0.1255 -0.0258
  179SLPC   H5R20440   4.872   6.434   9.993 -1.3078 -2.4062  0.9494
  179SLPC   H5S20441   4.860   6.280   9.922 -3.0588  0.5500 -0.5440
  179SLPC   C2620442   4.783   6.424   9.789  0.0190 -0.6048  0.3833
  179SLPC   H6R20443   4.789   6.534   9.774 -0.1144 -0.5526  0.7080
  179SLPC   H6S20444   4.689   6.401   9.845 -0.4361  0.9560  0.3198
  179SLPC   C2720445   4.777   6.339   9.657  0.2714 -1.0145 -0.0551
  179SLPC   H7R20446   4.716   6.246   9.662 -0.4946 -0.5067  0.0433
  179SLPC   H7S20447   4.879   6.306   9.626 -0.1503 -0.5864 -2.0071
  179SLPC   C2820448   4.734   6.428   9.548  0.4789  0.1122 -0.2630
  179SLPC   H8R20449   4.778   6.392   9.453  0.7399 -0.5955  0.1182
  179SLPC   H8S20450   4.762   6.535   9.556 -0.1972  0.2079  1.0743
  179SLPC   C2920451   4.580   6.417   9.531 -0.1551 -0.8323 -0.0759
  179SLPC   H9R20452   4.534   6.411   9.631  0.1236 -0.8879  0.0490
  179SLPC  C21020453   4.506   6.416   9.422  0.0938 -0.3180 -0.1483
  179SLPC  H10R20454   4.396   6.415   9.425 -0.0783 -0.6148 -3.2993
  179SLPC  C21120455   4.564   6.419   9.285  0.3959  0.4074  0.0571
  179SLPC  H11R20456   4.654   6.484   9.287  1.0474 -0.5099  1.4716
  179SLPC  H11S20457   4.496   6.478   9.220 -0.3328  0.0578  0.4906
  179SLPC  C21220458   4.606   6.282   9.224 -0.1202 -0.3143 -0.2409
  179SLPC  H12R20459   4.633   6.207   9.299 -2.0939  0.1410  1.0218
  179SLPC  C21320460   4.618   6.251   9.092 -0.0094  0.6839  0.2952
  179SLPC  H13R20461   4.657   6.152   9.062  2.0999  1.6684 -0.4108
  179SLPC  C21420462   4.590   6.347   8.978 -0.4013  0.9566 -0.1060
  179SLPC  H14R20463   4.505   6.413   9.006 -1.6567 -0.5562 -0.2658
  179SLPC  H14S20464   4.545   6.286   8.897 -0.0549  2.3442 -1.3947
  179SLPC  C21520465   4.708   6.417   8.910 -0.6073 -0.1867 -0.9446
  179SLPC  H15R20466   4.774   6.338   8.867  1.5650  1.0573 -0.0680
  179SLPC  H15S20467   4.771   6.472   8.983 -0.5650  2.4215 -2.7986
  179SLPC  C21620468   4.663   6.529   8.820  0.4053 -0.3575  0.5893
  179SLPC  H16R20469   4.595   6.493   8.740  0.6414  0.9699 -0.2187
  179SLPC  H16S20470   4.760   6.557   8.774  0.9952 -0.8569  1.4713
  179SLPC  C21720471   4.622   6.657   8.896  0.2130 -0.8851 -0.8666
  179SLPC  H17R20472   4.675   6.692   8.987 -1.4768 -1.4054  0.3694
  179SLPC  H17S20473   4.523   6.632   8.941 -0.6107 -0.1086 -2.2001
  179SLPC  C21820474   4.611   6.778   8.802  0.2513  0.0134 -0.1705
  179SLPC  H18R20475   4.713   6.821   8.788  0.4452 -0.3173  0.2138
  179SLPC  H18S20476   4.544   6.859   8.838  1.4725  0.6596  0.7167
  179SLPC  H18T20477   4.576   6.745   8.702  1.0123  0.0907 -0.4720
  179SLPC   C3320478   5.559   6.936   9.576  0.0351  0.5860  0.5612
  179SLPC   H3X20479   5.633   6.867   9.531  0.6819  1.4688  0.2469
  179SLPC   H3Y20480   5.609   7.023   9.623 -0.5468  0.8317  0.7428
  179SLPC   C3420481   5.461   6.986   9.463  0.5207 -0.0421 -0.3023
  179SLPC   H4X20482   5.403   7.072   9.502  1.2764  0.0479  0.6461
  179SLPC   H4Y20483   5.398   6.901   9.431  1.1632 -0.8719  0.5911
  179SLPC   C3520484   5.538   7.049   9.338  0.4197 -0.3504  0.6489
  179SLPC   H5X20485   5.605   6.973   9.291  1.7627  1.3535 -0.3394
  179SLPC   H5Y20486   5.604   7.134   9.366 -0.1387  1.2677 -2.4670
  179SLPC   C3620487   5.442   7.107   9.238  0.0364  0.7442  0.2201
  179SLPC   H6X20488   5.379   7.179   9.295 -1.1435 -0.1156  0.0421
  179SLPC   H6Y20489   5.381   7.021   9.201 -1.3504  2.3221 -1.3514
  179SLPC   C3720490   5.506   7.180   9.116 -0.0703  0.4840 -0.6047
  179SLPC   H7X20491   5.570   7.113   9.056 -1.3890 -1.6775  0.2939
  179SLPC   H7Y20492   5.574   7.256   9.161 -0.8290  0.3596  0.7886
  179SLPC   C3820493   5.395   7.236   9.034  0.3393  0.7203 -0.1333
  179SLPC   H8X20494   5.341   7.323   9.076 -1.1727  0.9012 -2.3245
  179SLPC   H8Y20495   5.321   7.154   9.036  0.2542  0.8006  0.0431
  179SLPC   C3920496   5.435   7.266   8.889  0.1790 -0.1368  0.5245
  179SLPC   H9X20497   5.340   7.268   8.831  0.5086 -0.3433 -0.0371
  179SLPC   H9Y20498   5.496   7.177   8.862  2.5280  0.8382  2.3245
  179SLPC  C31020499   5.511   7.397   8.854 -0.5149 -0.3401  0.0699
  179SLPC  H10X20500   5.605   7.395   8.913  0.3234  0.2001 -1.2047
  179SLPC  H10Y20501   5.442   7.482   8.873  0.4297  0.5884 -0.5557
  179SLPC  C31120502   5.561   7.396   8.711  0.6244 -0.0928 -0.0845
  179SLPC  H11X20503   5.467   7.415   8.654 -0.4922  0.1575  1.7704
  179SLPC  H11Y20504   5.608   7.302   8.674  0.3541  0.0257 -0.7430
  179SLPC  C31220505   5.644   7.522   8.677  0.3230  0.6140 -0.4232
  179SLPC  H12X20506   5.727   7.515   8.750  0.8122 -2.5519 -1.1288
  179SLPC  H12Y20507   5.578   7.609   8.694  3.1731  2.7560  0.3541
  179SLPC  C31320508   5.708   7.520   8.537  0.3091  0.0586  0.3867
  179SLPC  H13X20509   5.775   7.432   8.531  0.3554 -0.0049  1.7154
  179SLPC  H13Y20510   5.767   7.609   8.506 -0.0068  0.7117  1.5880
  179SLPC  C31420511   5.599   7.508   8.430 -0.2357  0.2832  0.4053
  179SLPC  H14X20512   5.530   7.594   8.441  0.7190  1.0861  0.2641
  179SLPC  H14Y20513   5.546   7.410   8.428 -0.6421  0.4646  1.6995
  179SLPC  C31520514   5.661   7.527   8.289  0.5783 -1.0952 -0.2597
  179SLPC  H15X20515   5.737   7.450   8.265  0.5702 -0.8918 -0.9469
  179SLPC  H15Y20516   5.708   7.628   8.291  0.0854 -0.8699  0.9405
  179SLPC  C31620517   5.556   7.534   8.180  0.0504  0.1852  0.5796
  179SLPC  H16X20518   5.479   7.454   8.189 -1.0019  1.1364  0.2821
  179SLPC  H16Y20519   5.600   7.518   8.079  0.7294 -0.4355  0.9635
  179SLPC  C31720520   5.495   7.678   8.174 -1.1410 -0.1611 -0.2361
  179SLPC  H17X20521   5.576   7.754   8.179 -2.7144  1.5483  0.1416
  179SLPC  H17Y20522   5.439   7.705   8.267 -0.4707  0.8021 -0.0948
  179SLPC  C31820523   5.404   7.699   8.053 -0.0100  0.3132  0.3010
  179SLPC  H18X20524   5.316   7.634   8.038  0.1558  0.4236 -1.2359
  179SLPC  H18Y20525   5.460   7.681   7.959 -0.0288 -1.8983  0.6573
  179SLPC  H18Z20526   5.358   7.800   8.068  0.2355  0.4038  0.4391
  180SLPC     N20527   1.599   4.679  11.077  0.3336  0.0930  0.2199
  180SLPC   C1320528   1.641   4.815  11.110 -0.1646 -0.3922  0.4738
  180SLPC  H13A20529   1.683   4.816  11.209  0.7022 -1.4279  0.1378
  180SLPC  H13B20530   1.720   4.847  11.045  1.3009 -1.5945  1.5917
  180SLPC  H13C20531   1.578   4.899  11.087 -0.3602 -0.4935  0.6358
  180SLPC   C1420532   1.497   4.637  11.177  0.1290 -0.1502 -0.3362
  180SLPC  H14A20533   1.406   4.694  11.178  1.5733  2.2478  0.2529
  180SLPC  H14B20534   1.456   4.541  11.147 -3.8405  1.8704 -2.1061
  180SLPC  H14C20535   1.535   4.633  11.278 -0.1543  0.2596 -0.2109
  180SLPC   C1520536   1.719   4.589  11.071 -0.7125  0.3821  0.3450
  180SLPC  H15A20537   1.789   4.618  10.993 -0.7780 -0.2118  0.0625
  180SLPC  H15B20538   1.778   4.600  11.161  0.2822  1.0795 -0.3615
  180SLPC  H15C20539   1.689   4.487  11.051 -0.2230 -0.2759  2.7141
  180SLPC   C1220540   1.531   4.665  10.940  0.4050  0.2180  0.1069
  180SLPC  H12A20541   1.600   4.683  10.859 -0.2145  0.4643 -0.3704
  180SLPC  H12B20542   1.462   4.748  10.934  0.4817  0.4168  1.4440
  180SLPC   C1120543   1.462   4.530  10.913  0.3166 -0.2437  0.1846
  180SLPC  H11A20544   1.371   4.512  10.975  1.5516  0.5530  2.3722
  180SLPC  H11B20545   1.526   4.447  10.951 -0.1175  0.1250  1.8073
  180SLPC     P20546   1.275   4.531  10.725 -0.0123  0.1271  0.1444
  180SLPC   O1320547   1.184   4.519  10.835 -0.1186 -0.3341 -0.3792
  180SLPC   O1420548   1.262   4.648  10.635  0.4875  0.4247  0.3634
  180SLPC   O1220549   1.427   4.519  10.777 -0.4155 -0.4445 -0.2034
  180SLPC   O1120550   1.261   4.397  10.635 -0.6981 -0.0084 -0.1283
  180SLPC    C120551   1.343   4.369  10.522 -0.2906 -0.2783 -0.3718
  180SLPC    HA20552   1.411   4.452  10.496 -0.6365 -0.4776 -2.0294
  180SLPC    HB20553   1.412   4.286  10.549 -1.0696 -0.2298  1.9431
  180SLPC    C220554   1.264   4.337  10.395 -0.4500  0.2287 -0.0487
  180SLPC    HS20555   1.339   4.294  10.326  1.0290  1.6722  0.6073
  180SLPC   O2120556   1.226   4.463  10.343  0.2869  0.1257  0.2547
  180SLPC   C2120557   1.309   4.542  10.275  0.3888  0.0926 -0.0486
  180SLPC   O2220558   1.425   4.512  10.241  0.3047 -0.2506  0.5444
  180SLPC   C2220559   1.233   4.677  10.255  0.0614  0.3630 -0.3511
  180SLPC   H2R20560   1.131   4.645  10.226  0.9464 -1.2849 -1.8377
  180SLPC   H2S20561   1.234   4.729  10.353 -0.6509  3.6112 -1.9294
  180SLPC    C320562   1.154   4.233  10.425  0.3695  0.0341  0.9365
  180SLPC    HX20563   1.115   4.242  10.529 -0.7418 -1.2459  0.6633
  180SLPC    HY20564   1.201   4.133  10.415  0.4848  0.2936 -1.6162
  180SLPC   O3120565   1.044   4.229  10.326 -0.0078  0.1510 -0.1098
  180SLPC   C3120566   0.931   4.302  10.363 -0.3459  0.4381  0.0027
  180SLPC   O3220567   0.915   4.368  10.464 -0.3172 -0.0077  0.3421
  180SLPC   C3220568   0.827   4.269  10.273  0.3457 -0.7001  0.5442
  180SLPC   H2X20569   0.818   4.159  10.266  0.0313 -0.5834 -1.7556
  180SLPC   H2Y20570   0.853   4.307  10.172  0.5383  1.3248  1.3064
  180SLPC   C2320571   1.297   4.764  10.147  0.7590 -0.1440 -0.5594
  180SLPC   H3R20572   1.402   4.730  10.134  0.1012 -2.7318  0.3361
  180SLPC   H3S20573   1.289   4.871  10.176  0.3082 -0.7280  1.6003
  180SLPC   C2420574   1.221   4.745  10.017  0.0544 -0.7164 -0.1568
  180SLPC   H4R20575   1.237   4.835   9.953 -1.6693 -0.9873 -1.0592
  180SLPC   H4S20576   1.112   4.751  10.041  0.3261  3.8414  0.8526
  180SLPC   C2520577   1.276   4.632   9.929 -0.7443  0.7615 -0.7775
  180SLPC   H5R20578   1.252   4.530   9.967  0.9225  1.0800  1.3760
  180SLPC   H5S20579   1.387   4.626   9.932 -0.6937  1.3048  2.7561
  180SLPC   C2620580   1.231   4.637   9.791  0.1035 -0.3462  0.5072
  180SLPC   H6R20581   1.236   4.745   9.766 -1.1573 -0.1133  1.2152
  180SLPC   H6S20582   1.123   4.616   9.800  0.1255 -1.5016 -1.4471
  180SLPC   C2720583   1.296   4.548   9.690  0.2183  0.2748 -0.7172
  180SLPC   H7R20584   1.277   4.438   9.693  1.0794  0.1103 -0.9471
  180SLPC   H7S20585   1.407   4.545   9.690  0.2112 -0.1193 -0.8994
  180SLPC   C2820586   1.248   4.588   9.550 -0.5098 -0.3852 -0.6218
  180SLPC   H8R20587   1.139   4.598   9.534 -0.9404  0.5118  2.3253
  180SLPC   H8S20588   1.274   4.503   9.484 -2.1733 -1.8739  0.5692
  180SLPC   C2920589   1.309   4.710   9.495 -0.0539 -0.3724 -0.7706
  180SLPC   H9R20590   1.356   4.781   9.565 -3.0890  2.1121 -1.0226
  180SLPC  C21020591   1.327   4.728   9.358  0.1995 -0.1114 -0.3223
  180SLPC  H10R20592   1.363   4.823   9.315 -3.1226  1.4795  0.0948
  180SLPC  C21120593   1.284   4.629   9.251 -0.1449 -0.7253 -0.2548
  180SLPC  H11R20594   1.248   4.690   9.166 -1.3046 -2.3809 -1.0095
  180SLPC  H11S20595   1.200   4.566   9.290 -0.2485  0.8626  2.3689
  180SLPC  C21220596   1.396   4.546   9.188  0.2926  0.4252 -0.0215
  180SLPC  H12R20597   1.497   4.576   9.217  0.3514  0.3916 -0.1921
  180SLPC  C21320598   1.381   4.446   9.096  0.2849  0.1309  0.1576
  180SLPC  H13R20599   1.469   4.401   9.047 -1.7070 -2.5974 -1.1689
  180SLPC  C21420600   1.256   4.415   9.029 -0.6952 -0.7423 -0.7191
  180SLPC  H14R20601   1.249   4.484   8.943  1.2013  1.5519  0.8437
  180SLPC  H14S20602   1.167   4.442   9.090  0.5361  0.7772  0.4924
  180SLPC  C21520603   1.262   4.267   8.992 -0.5065  0.4145 -0.2014
  180SLPC  H15R20604   1.163   4.235   8.953 -0.4037  2.3302 -2.1972
  180SLPC  H15S20605   1.291   4.197   9.073  0.8407 -0.7681 -1.6201
  180SLPC  C21620606   1.354   4.243   8.869  0.2782 -0.4836  0.6177
  180SLPC  H16R20607   1.460   4.260   8.895  0.6247  0.2651 -1.1344
  180SLPC  H16S20608   1.321   4.306   8.783 -1.0479 -1.0618  0.6677
  180SLPC  C21720609   1.359   4.095   8.824  0.4262 -0.5749 -0.6174
  180SLPC  H17R20610   1.260   4.044   8.824  0.5998 -0.9136 -0.5240
  180SLPC  H17S20611   1.431   4.044   8.892  3.6397  0.0391 -3.2806
  180SLPC  C21820612   1.416   4.076   8.685 -0.4112  0.4754  1.1497
  180SLPC  H18R20613   1.437   3.969   8.663 -1.2389  0.0281  2.3713
  180SLPC  H18S20614   1.511   4.131   8.676 -0.3789  0.4751  1.4760
  180SLPC  H18T20615   1.353   4.117   8.603 -1.0934 -0.1093  1.3633
  180SLPC   C3320616   0.683   4.301  10.332 -0.0823  0.6651  0.9211
  180SLPC   H3X20617   0.656   4.409  10.331  1.7406  1.2145 -1.9145
  180SLPC   H3Y20618   0.672   4.266  10.437 -0.9183 -2.0262 -0.0067
  180SLPC   C3420619   0.564   4.239  10.244 -0.7993  0.5332  0.6811
  180SLPC   H4X20620   0.456   4.252  10.269 -1.4860  0.2358 -1.8614
  180SLPC   H4Y20621   0.577   4.129  10.236 -2.6926  0.3181  0.0064
  180SLPC   C3520622   0.572   4.281  10.096  0.5181 -0.3984 -0.1220
  180SLPC   H5X20623   0.659   4.241  10.038 -0.8200 -2.9516 -0.5119
  180SLPC   H5Y20624   0.571   4.392  10.092  2.5921 -0.3112  0.2515
  180SLPC   C3620625   0.455   4.219  10.021 -0.4136  0.1203  0.1488
  180SLPC   H6X20626   0.361   4.234  10.078 -1.7155 -2.6829 -1.0648
  180SLPC   H6Y20627   0.466   4.108  10.018  0.7196  0.2310 -2.0596
  180SLPC   C3720628   0.442   4.271   9.876 -0.1115 -0.2917  0.4029
  180SLPC   H7X20629   0.492   4.370   9.865 -0.5835 -0.0634  0.2689
  180SLPC   H7Y20630   0.339   4.284   9.836  0.8208  1.4188 -1.6941
  180SLPC   C3820631   0.523   4.172   9.786  0.3429 -0.4186  0.3964
  180SLPC   H8X20632   0.478   4.073   9.808 -1.6164  0.3542  0.0820
  180SLPC   H8Y20633   0.622   4.165   9.836 -0.2426  1.9550  2.0635
  180SLPC   C3920634   0.546   4.202   9.640  0.2530  0.6672  0.3650
  180SLPC   H9X20635   0.589   4.115   9.586 -1.1024  0.9684 -1.2785
  180SLPC   H9Y20636   0.611   4.290   9.620 -1.6139  2.2127  0.7824
  180SLPC  C31020637   0.420   4.250   9.566  0.4729 -0.4689  0.2997
  180SLPC  H10X20638   0.403   4.353   9.602 -3.0898 -1.1233  0.8713
  180SLPC  H10Y20639   0.344   4.172   9.591  1.8643 -3.0276 -2.7011
  180SLPC  C31120640   0.441   4.260   9.409 -0.1239 -0.3853  0.6107
  180SLPC  H11X20641   0.525   4.194   9.378  1.8421  0.9113  2.8536
  180SLPC  H11Y20642   0.490   4.358   9.390 -0.3241 -0.6904 -1.8751
  180SLPC  C31220643   0.317   4.252   9.318 -0.3208  0.7094 -0.5907
  180SLPC  H12X20644   0.233   4.297   9.376  0.9040  1.5956  0.5501
  180SLPC  H12Y20645   0.294   4.145   9.303  0.3181  0.6110 -0.8651
  180SLPC  C31320646   0.343   4.303   9.173  0.6181 -0.4716 -0.3341
  180SLPC  H13X20647   0.398   4.225   9.117  0.6833 -2.0271  1.7732
  180SLPC  H13Y20648   0.408   4.393   9.182 -0.7589  0.5886 -0.5871
  180SLPC  C31420649   0.212   4.329   9.101 -0.6741 -0.7126  0.7033
  180SLPC  H14X20650   0.151   4.401   9.161  0.2324  0.6358  0.0411
  180SLPC  H14Y20651   0.163   4.229   9.093  1.1490 -1.6606  0.9163
  180SLPC  C31520652   0.231   4.365   8.947 -0.6393  0.1987  0.7975
  180SLPC  H15X20653   0.153   4.317   8.884 -1.6227  1.6114  0.9002
  180SLPC  H15Y20654   0.321   4.312   8.909 -2.2540 -1.2469 -1.2151
  180SLPC  C31620655   0.233   4.517   8.914  0.3108 -0.1299  0.5631
  180SLPC  H16X20656   0.312   4.569   8.972  1.1604  0.1378 -0.7944
  180SLPC  H16Y20657   0.135   4.558   8.944 -0.9834 -2.5563 -0.0452
  180SLPC  C31720658   0.257   4.540   8.763  0.6549  0.1038  0.3052
  180SLPC  H17X20659   0.223   4.644   8.743  1.2827  0.3982  0.7251
  180SLPC  H17Y20660   0.193   4.472   8.704  0.3026 -0.9756  1.8606
  180SLPC  C31820661   0.403   4.522   8.721  0.2569 -0.4420 -0.1956
  180SLPC  H18X20662   0.428   4.416   8.743 -0.4603 -0.7245 -0.7064
  180SLPC  H18Y20663   0.470   4.580   8.788 -0.3351 -0.4658  0.4221
  180SLPC  H18Z20664   0.435   4.527   8.614  1.1025  1.4356  0.0985
  181SLPC     N20665   2.826   0.988  11.285  0.2066 -0.6948  0.6155
  181SLPC   C1320666   2.866   0.844  11.315 -0.1352 -0.3704 -0.0919
  181SLPC  H13A20667   2.970   0.819  11.301  0.0528 -0.9942  2.0366
  181SLPC  H13B20668   2.844   0.814  11.416 -1.3903 -0.5662 -0.3980
  181SLPC  H13C20669   2.814   0.778  11.246 -1.1003  0.4758 -0.1976
  181SLPC   C1420670   2.897   1.081  11.377 -0.0362 -0.1592 -0.0672
  181SLPC  H14A20671   2.893   1.051  11.480 -0.2635 -1.0784 -0.3395
  181SLPC  H14B20672   3.002   1.081  11.351 -0.5193  0.8167 -2.2303
  181SLPC  H14C20673   2.875   1.187  11.370  1.7132  0.2090 -0.5786
  181SLPC   C1520674   2.685   0.994  11.321  0.7100  0.0799 -0.9167
  181SLPC  H15A20675   2.656   1.098  11.317 -0.7174 -0.1707  1.3444
  181SLPC  H15B20676   2.622   0.938  11.253  2.6433 -1.5979 -1.4263
  181SLPC  H15C20677   2.659   0.959  11.420  0.6608  0.0359 -0.9448
  181SLPC   C1220678   2.848   1.028  11.140  0.6461  0.4111 -1.0637
  181SLPC  H12A20679   2.797   1.121  11.118 -1.5381 -0.8468 -1.6052
  181SLPC  H12B20680   2.802   0.953  11.077 -3.6956  2.9705 -1.3179
  181SLPC   C1120681   2.994   1.034  11.087  0.1796  0.1190 -0.0102
  181SLPC  H11A20682   2.976   1.054  10.979 -0.0457 -0.0372 -0.0008
  181SLPC  H11B20683   3.040   0.932  11.093 -2.1262 -0.8908  1.6197
  181SLPC     P20684   3.075   1.289  11.100  0.1441 -0.4039  0.3555
  181SLPC   O1320685   2.930   1.337  11.102 -0.2846  0.0144 -1.0407
  181SLPC   O1420686   3.160   1.364  11.194  0.0949 -0.1052  0.0650
  181SLPC   O1220687   3.074   1.135  11.144  0.0076  0.0985  0.2253
  181SLPC   O1120688   3.125   1.294  10.955  0.6539  0.8143  0.3393
  181SLPC    C120689   3.049   1.318  10.839  0.0149 -0.6870 -0.0575
  181SLPC    HA20690   2.940   1.318  10.863  0.0173  3.2654  0.6327
  181SLPC    HB20691   3.070   1.424  10.814  1.0913 -0.2100  2.5472
  181SLPC    C220692   3.081   1.219  10.724  0.1280 -0.4065  0.1456
  181SLPC    HS20693   3.191   1.203  10.724  0.2943  0.2411 -2.2899
  181SLPC   O2120694   3.027   1.277  10.602 -0.0978 -0.9579  0.3705
  181SLPC   C2120695   3.117   1.348  10.536 -0.3452  0.8814  0.4905
  181SLPC   O2220696   3.233   1.374  10.579  0.8878 -0.6759 -0.2357
  181SLPC   C2220697   3.066   1.390  10.401  0.6634 -0.2943 -0.0068
  181SLPC   H2R20698   2.961   1.356  10.394  0.3856  0.4588  0.4506
  181SLPC   H2S20699   3.058   1.500  10.415 -3.0393 -0.0165 -2.8228
  181SLPC    C320700   3.022   1.076  10.743 -0.0555  0.4733  0.1362
  181SLPC    HX20701   2.925   1.094  10.795  0.2991 -0.5362  1.1815
  181SLPC    HY20702   3.099   1.024  10.803 -1.6744  0.2411  2.1128
  181SLPC   O3120703   3.010   1.013  10.613  0.0972 -0.7273 -0.5513
  181SLPC   C3120704   2.938   0.899  10.633  0.3229  0.8839  0.3317
  181SLPC   O3220705   2.928   0.847  10.743  0.0684 -0.0796  0.2390
  181SLPC   C3220706   2.893   0.835  10.503 -0.3646 -0.1006 -0.1750
  181SLPC   H2X20707   2.786   0.863  10.489  0.0104  1.0645 -0.8747
  181SLPC   H2Y20708   2.905   0.728  10.531  1.2082  0.6659  2.4300
  181SLPC   C2320709   3.159   1.365  10.282  0.7333  0.1287  0.5573
  181SLPC   H3R20710   3.128   1.262  10.255 -3.6984  1.1024  1.1278
  181SLPC   H3S20711   3.263   1.365  10.321  0.4772 -1.4684  1.3212
  181SLPC   C2420712   3.144   1.467  10.163 -0.0815 -0.4995 -0.0424
  181SLPC   H4R20713   3.225   1.465  10.087  0.4082 -1.5622  0.4836
  181SLPC   H4S20714   3.153   1.566  10.213  1.4741 -0.9051  0.5294
  181SLPC   C2520715   3.015   1.445  10.087  0.6346 -0.1240 -1.0637
  181SLPC   H5R20716   2.927   1.456  10.155  1.5681 -1.3225  0.4035
  181SLPC   H5S20717   3.013   1.343  10.043 -0.1221 -0.6986  0.2391
  181SLPC   C2620718   2.999   1.531   9.961 -0.3778  0.5701  0.4350
  181SLPC   H6R20719   3.031   1.631   9.998 -2.9631  1.0414  1.5607
  181SLPC   H6S20720   2.893   1.542   9.933 -0.6823 -1.2300  0.7479
  181SLPC   C2720721   3.084   1.495   9.829  0.1428  0.4725 -0.5265
  181SLPC   H7R20722   3.045   1.393   9.808  0.7847 -0.1389  1.0681
  181SLPC   H7S20723   3.192   1.483   9.854 -0.0848 -1.4901 -0.3279
  181SLPC   C2820724   3.064   1.598   9.712 -0.5351  0.5459  0.2319
  181SLPC   H8R20725   3.104   1.693   9.756  0.7176  0.6716 -1.0917
  181SLPC   H8S20726   2.955   1.606   9.693 -0.5571 -1.3741 -0.6836
  181SLPC   C2920727   3.139   1.567   9.587  0.4085  0.5360 -0.0967
  181SLPC   H9R20728   3.232   1.510   9.597 -0.8623 -1.5611  0.5017
  181SLPC  C21020729   3.107   1.600   9.462 -0.3188  0.4933  0.1605
  181SLPC  H10R20730   3.177   1.571   9.383 -1.8772  0.0485 -1.1247
  181SLPC  C21120731   2.994   1.680   9.405  0.3880 -0.3465  0.2909
  181SLPC  H11R20732   2.989   1.775   9.463 -1.1948  0.1198 -0.5450
  181SLPC  H11S20733   2.896   1.632   9.427 -0.8575  0.8613 -2.1362
  181SLPC  C21220734   3.006   1.701   9.251  0.4609 -0.3337 -0.7006
  181SLPC  H12R20735   3.096   1.660   9.203  0.6350  0.2716 -0.8920
  181SLPC  C21320736   2.921   1.777   9.184 -0.8811  0.4951 -0.2109
  181SLPC  H13R20737   2.938   1.784   9.076 -1.0409 -0.8612 -0.3314
  181SLPC  C21420738   2.807   1.858   9.244  0.3994  0.0985 -0.0100
  181SLPC  H14R20739   2.830   1.966   9.232 -0.8426  0.2882 -0.9483
  181SLPC  H14S20740   2.789   1.832   9.351  2.1663  2.2684  0.8876
  181SLPC  C21520741   2.665   1.818   9.190 -0.7442  0.7628 -0.0383
  181SLPC  H15R20742   2.626   1.723   9.231 -1.8120  0.9522 -0.5941
  181SLPC  H15S20743   2.671   1.808   9.079  1.1130  1.0148 -0.0013
  181SLPC  C21620744   2.561   1.927   9.219 -0.1801 -0.6781  0.2271
  181SLPC  H16R20745   2.580   2.016   9.155 -0.3174 -1.5770 -1.1051
  181SLPC  H16S20746   2.572   1.949   9.327  0.0040  1.2721 -0.1491
  181SLPC  C21720747   2.425   1.884   9.168  0.0440  0.4243 -0.3618
  181SLPC  H17R20748   2.357   1.960   9.212  1.5677  1.2514  0.6462
  181SLPC  H17S20749   2.389   1.790   9.216  0.3864  0.2915 -0.3633
  181SLPC  C21820750   2.404   1.864   9.016 -0.6748 -0.0020 -0.4345
  181SLPC  H18R20751   2.413   1.967   8.975 -1.5056  0.0050 -0.6142
  181SLPC  H18S20752   2.304   1.825   8.988 -1.7731  1.2469  1.5554
  181SLPC  H18T20753   2.479   1.794   8.974 -0.1416  0.6642 -0.6203
  181SLPC   C3320754   2.979   0.865  10.374 -0.4376  0.0347  0.6629
  181SLPC   H3X20755   2.976   0.771  10.315  0.8040  0.5822 -0.2999
  181SLPC   H3Y20756   3.086   0.879  10.398 -0.4340  3.2936 -0.7182
  181SLPC   C3420757   2.931   0.984  10.295  0.1996  0.0225  0.1783
  181SLPC   H4X20758   2.965   1.081  10.339 -1.7000  1.1668 -0.7454
  181SLPC   H4Y20759   2.821   0.999  10.294  0.2701  0.5932  0.4594
  181SLPC   C3520760   2.968   0.980  10.144 -0.1379  0.4573  0.0823
  181SLPC   H5X20761   2.950   0.878  10.103 -2.3452  1.5210 -1.8813
  181SLPC   H5Y20762   3.077   1.001  10.140 -0.6731  3.6062 -2.7505
  181SLPC   C3620763   2.884   1.074  10.062  0.5033  0.3794  0.5952
  181SLPC   H6X20764   2.886   1.173  10.112  2.3939 -0.0492  1.4471
  181SLPC   H6Y20765   2.779   1.039  10.062  0.0707  1.4589 -2.0468
  181SLPC   C3720766   2.922   1.078   9.913 -0.2830  0.0558 -0.5594
  181SLPC   H7X20767   2.912   0.974   9.876  2.0271 -0.4704  0.1611
  181SLPC   H7Y20768   3.032   1.095   9.913 -0.3369  0.5200 -2.2498
  181SLPC   C3820769   2.841   1.163   9.812  0.0368 -0.2733  0.1041
  181SLPC   H8X20770   2.829   1.269   9.842  1.1543 -0.0725 -0.1043
  181SLPC   H8Y20771   2.741   1.121   9.788 -0.2166  0.9289 -1.0159
  181SLPC   C3920772   2.907   1.173   9.672  0.6388 -0.0805 -0.4826
  181SLPC   H9X20773   2.914   1.072   9.626  1.8116 -0.5389  0.6520
  181SLPC   H9Y20774   3.003   1.222   9.697  0.1021 -0.5997  3.1478
  181SLPC  C31020775   2.826   1.271   9.579  0.2324 -0.6692  0.1686
  181SLPC  H10X20776   2.863   1.375   9.582 -1.0246 -0.1791 -0.4499
  181SLPC  H10Y20777   2.720   1.265   9.613 -0.4977 -0.8164 -1.9575
  181SLPC  C31120778   2.836   1.242   9.432  0.7208 -0.7442  0.2536
  181SLPC  H11X20779   2.801   1.139   9.409 -1.9196 -0.3820  2.2060
  181SLPC  H11Y20780   2.944   1.256   9.407  0.3908  1.7036 -0.0507
  181SLPC  C31220781   2.766   1.343   9.343 -0.5164 -0.0011 -0.0262
  181SLPC  H12X20782   2.771   1.443   9.393 -1.6163 -0.0880  0.2687
  181SLPC  H12Y20783   2.658   1.321   9.331 -0.5346 -0.0673  0.2469
  181SLPC  C31320784   2.821   1.335   9.198  0.1055  0.4690  0.1410
  181SLPC  H13X20785   2.836   1.229   9.168 -2.0680 -0.3789  1.8511
  181SLPC  H13Y20786   2.919   1.387   9.198 -0.0646  0.7948  0.6082
  181SLPC  C31420787   2.730   1.413   9.097 -0.1260 -0.3357  0.1153
  181SLPC  H14X20788   2.733   1.523   9.111  0.8925  0.1430 -2.9785
  181SLPC  H14Y20789   2.624   1.378   9.104  0.0817 -1.1952 -0.7256
  181SLPC  C31520790   2.763   1.384   8.950 -0.5629 -0.4039 -0.1285
  181SLPC  H15X20791   2.717   1.288   8.917  0.7167 -0.7408 -1.0191
  181SLPC  H15Y20792   2.873   1.370   8.946 -0.8637 -3.3743 -2.1192
  181SLPC  C31620793   2.706   1.478   8.847  0.2883  0.5081  0.4430
  181SLPC  H16X20794   2.602   1.513   8.869  0.5796  0.4913  1.9392
  181SLPC  H16Y20795   2.718   1.429   8.748 -1.2275  3.1388 -1.1689
  181SLPC  C31720796   2.785   1.608   8.822  0.2066  0.0685  0.0743
  181SLPC  H17X20797   2.884   1.569   8.790 -1.0719 -1.0777 -2.8158
  181SLPC  H17Y20798   2.794   1.677   8.909 -0.1439 -0.9838  0.9845
  181SLPC  C31820799   2.731   1.687   8.704 -0.6297 -0.2269 -0.1647
  181SLPC  H18X20800   2.815   1.747   8.665 -0.8466  1.6333  2.0340
  181SLPC  H18Y20801   2.654   1.764   8.726 -0.7501 -0.0568 -1.1265
  181SLPC  H18Z20802   2.702   1.621   8.619  3.4524 -0.2479 -1.7282
  182SLPC     N20803   6.793   2.540  11.001  0.7645 -0.2287 -0.7653
  182SLPC   C1320804   6.641   2.555  10.982  0.6044 -0.1419  0.1405
  182SLPC  H13A20805   6.606   2.656  10.998 -0.2009 -0.6166  1.6475
  182SLPC  H13B20806   6.608   2.544  10.880  2.1591  1.3158 -0.5685
  182SLPC  H13C20807   6.582   2.497  11.051 -0.6577  2.4455  1.3591
  182SLPC   C1420808   6.828   2.403  10.953  0.6672 -0.2913 -1.0236
  182SLPC  H14A20809   6.796   2.397  10.850 -1.4080  0.6656 -0.5006
  182SLPC  H14B20810   6.934   2.383  10.960  0.9791  0.8353 -2.1463
  182SLPC  H14C20811   6.777   2.331  11.014  0.0930  0.8234 -0.1481
  182SLPC   C1520812   6.834   2.552  11.151  0.6895 -0.2087 -0.4324
  182SLPC  H15A20813   6.942   2.546  11.159  1.0170  1.9609 -2.0429
  182SLPC  H15B20814   6.800   2.648  11.186  0.1078  0.4891 -2.6931
  182SLPC  H15C20815   6.797   2.473  11.214 -0.2235  0.1456 -0.5109
  182SLPC   C1220816   6.864   2.644  10.913 -0.0235  0.3799  0.6742
  182SLPC  H12A20817   6.964   2.612  10.890  0.0718  2.3259 -2.2381
  182SLPC  H12B20818   6.878   2.732  10.974  1.3659  0.5804  0.1113
  182SLPC   C1120819   6.793   2.692  10.781  0.4883  0.0333  0.1081
  182SLPC  H11A20820   6.758   2.604  10.723 -0.4530  0.0855  0.5733
  182SLPC  H11B20821   6.869   2.743  10.717  1.0043  1.1303  1.5510
  182SLPC     P20822   6.696   2.937  10.778  0.1089  0.0507  0.3201
  182SLPC   O1320823   6.604   3.011  10.868 -0.9771 -0.9753  0.3419
  182SLPC   O1420824   6.843   2.979  10.791  0.5073  0.2286  0.0372
  182SLPC   O1220825   6.681   2.780  10.795 -0.6209 -0.1222  0.0265
  182SLPC   O1120826   6.655   2.949  10.622  0.4374  0.0909  0.4120
  182SLPC    C120827   6.741   2.902  10.515 -0.8709 -0.4119  0.3473
  182SLPC    HA20828   6.845   2.885  10.550 -0.5292 -1.0523 -0.9055
  182SLPC    HB20829   6.699   2.808  10.472 -1.7631  0.1137  0.0383
  182SLPC    C220830   6.767   3.006  10.398 -0.7318 -0.1078  0.0238
  182SLPC    HS20831   6.806   3.104  10.430  0.1073  0.5817 -2.7812
  182SLPC   O2120832   6.647   3.029  10.341 -0.7387 -0.3519  0.0323
  182SLPC   C2120833   6.631   3.142  10.283  0.0688 -0.3033  0.3230
  182SLPC   O2220834   6.711   3.233  10.274 -0.5133 -0.1551  0.7467
  182SLPC   C2220835   6.494   3.147  10.204  0.6773  0.9187  0.5243
  182SLPC   H2R20836   6.413   3.120  10.275 -0.3428  1.4154 -0.4284
  182SLPC   H2S20837   6.480   3.248  10.160  1.4961  1.6188  1.7860
  182SLPC    C320838   6.872   2.957  10.290  0.4568 -0.6727 -0.0945
  182SLPC    HX20839   6.964   2.939  10.351  0.3804 -0.4629  0.0860
  182SLPC    HY20840   6.924   3.030  10.224  0.3404  0.1591  0.7177
  182SLPC   O3120841   6.832   2.842  10.211  0.1832  0.0111 -0.2474
  182SLPC   C3120842   6.872   2.723  10.235 -1.2868  0.1121  0.2155
  182SLPC   O3220843   6.941   2.691  10.331  0.4189 -0.4095 -0.0281
  182SLPC   C3220844   6.819   2.626  10.128  0.1797  0.3329  0.2174
  182SLPC   H2X20845   6.732   2.567  10.166  1.1791 -1.8128 -0.6769
  182SLPC   H2Y20846   6.896   2.548  10.111 -1.8728 -2.2650  1.8355
  182SLPC   C2320847   6.472   3.046  10.089 -0.4011  0.0046  0.4439
  182SLPC   H3R20848   6.467   2.946  10.139  0.0532  0.0948  0.6757
  182SLPC   H3S20849   6.559   3.056  10.022 -1.2919 -1.3265 -0.9732
  182SLPC   C2420850   6.345   3.077  10.013  0.1895 -0.1718  0.2951
  182SLPC   H4R20851   6.358   3.161   9.941 -1.4496 -0.4435 -0.3572
  182SLPC   H4S20852   6.265   3.108  10.084 -0.1124  2.0781 -0.9353
  182SLPC   C2520853   6.292   2.956   9.932 -0.1361 -0.0755  0.0752
  182SLPC   H5R20854   6.224   2.902  10.001  0.3596 -0.4555  0.2664
  182SLPC   H5S20855   6.377   2.886   9.917 -0.3814 -0.2736 -0.4206
  182SLPC   C2620856   6.222   2.985   9.796  0.0409 -0.7255  0.2194
  182SLPC   H6R20857   6.282   3.047   9.726  0.9042 -1.8702 -0.0815
  182SLPC   H6S20858   6.130   3.046   9.808 -1.6720 -3.4112  1.9394
  182SLPC   C2720859   6.162   2.865   9.718 -0.0713  0.1071  0.6574
  182SLPC   H7R20860   6.066   2.845   9.771 -0.3660  0.5851  0.3178
  182SLPC   H7S20861   6.226   2.775   9.725 -0.3693  0.0100  2.9295
  182SLPC   C2820862   6.107   2.895   9.580  0.1811 -0.8029  0.0212
  182SLPC   H8R20863   6.039   2.983   9.588  2.6229  1.1684  0.2462
  182SLPC   H8S20864   6.026   2.828   9.542 -0.9057 -0.7986  2.1417
  182SLPC   C2920865   6.196   2.939   9.471 -0.5721 -0.0056  0.0190
  182SLPC   H9R20866   6.283   2.994   9.510 -1.3953  0.2956  1.4992
  182SLPC  C21020867   6.177   2.928   9.339 -0.9638  0.4866  0.0974
  182SLPC  H10R20868   6.258   2.954   9.269 -0.7291  1.0686  0.5767
  182SLPC  C21120869   6.060   2.871   9.262  0.5340  0.7674  0.0731
  182SLPC  H11R20870   6.028   2.951   9.193  1.6171  0.2785 -1.0379
  182SLPC  H11S20871   5.972   2.850   9.328 -1.3135  1.9073 -1.8992
  182SLPC  C21220872   6.080   2.759   9.164  0.6032  0.0160  0.6849
  182SLPC  H12R20873   6.100   2.663   9.213  1.3300 -0.0148  0.3382
  182SLPC  C21320874   6.073   2.745   9.031 -0.3424  0.1137  0.0017
  182SLPC  H13R20875   6.074   2.642   8.994 -0.3968  0.8217 -2.0700
  182SLPC  C21420876   6.047   2.852   8.927 -0.1700 -0.4838 -0.3846
  182SLPC  H14R20877   5.941   2.886   8.927 -0.5313 -1.5248  0.5796
  182SLPC  H14S20878   6.072   2.804   8.830 -0.3362 -0.1902 -0.5724
  182SLPC  C21520879   6.132   2.982   8.928  0.8048  0.1179 -0.1965
  182SLPC  H15R20880   6.240   2.974   8.956  0.1634  0.7247  2.7349
  182SLPC  H15S20881   6.090   3.036   9.014 -1.5422 -4.6360  2.0238
  182SLPC  C21620882   6.119   3.041   8.789  0.1961 -0.5050  0.1284
  182SLPC  H16R20883   6.013   3.040   8.756 -0.5061  0.1181  2.2060
  182SLPC  H16S20884   6.181   2.989   8.713 -0.0462  0.6556 -0.9023
  182SLPC  C21720885   6.152   3.194   8.777 -0.5351  0.2513  0.0138
  182SLPC  H17R20886   6.255   3.200   8.819 -1.0132 -0.0116  1.2599
  182SLPC  H17S20887   6.078   3.247   8.841 -1.0259  0.8125 -0.9946
  182SLPC  C21820888   6.142   3.234   8.624  0.0624 -0.5657 -0.4128
  182SLPC  H18R20889   6.037   3.224   8.589 -0.2606  0.3808  0.2500
  182SLPC  H18S20890   6.218   3.176   8.567  2.0923  0.5065  1.0656
  182SLPC  H18T20891   6.169   3.341   8.607 -1.6739  0.2198  1.4528
  182SLPC   C3320892   6.769   2.694   9.995 -0.6945  0.1604 -0.1698
  182SLPC   H3X20893   6.696   2.774  10.018  0.1128  0.1221  2.9593
  182SLPC   H3Y20894   6.710   2.615   9.945 -0.4437  1.0178 -1.9112
  182SLPC   C3420895   6.887   2.745   9.915  0.5813  0.2564  0.6421
  182SLPC   H4X20896   6.976   2.690   9.953 -0.2358 -3.9847 -2.7274
  182SLPC   H4Y20897   6.897   2.848   9.953  0.1583 -0.1739  1.9892
  182SLPC   C3520898   6.866   2.738   9.759 -0.4704 -0.4642 -0.3316
  182SLPC   H5X20899   6.866   2.632   9.726 -2.9847 -0.2248 -1.2989
  182SLPC   H5Y20900   6.946   2.799   9.712 -0.1710 -0.2450  0.4472
  182SLPC   C3620901   6.717   2.773   9.710  0.2986 -0.6021 -0.5257
  182SLPC   H6X20902   6.692   2.862   9.772  2.4438 -0.0120 -0.4219
  182SLPC   H6Y20903   6.653   2.684   9.723 -1.2757 -0.0212 -3.4222
  182SLPC   C3720904   6.698   2.829   9.569  0.6324 -0.7431  0.3833
  182SLPC   H7X20905   6.753   2.773   9.491  0.1201  0.4273 -0.8500
  182SLPC   H7Y20906   6.735   2.933   9.567  1.0862 -0.9157 -0.9252
  182SLPC   C3820907   6.542   2.839   9.530 -0.5580  0.0674 -0.2460
  182SLPC   H8X20908   6.504   2.928   9.584 -3.2064 -0.5034 -1.0658
  182SLPC   H8Y20909   6.488   2.754   9.575 -0.2784  0.4186  0.7718
  182SLPC   C3920910   6.527   2.851   9.373 -0.1492  0.0256  0.6886
  182SLPC   H9X20911   6.434   2.803   9.337  1.1594 -0.7982 -1.8946
  182SLPC   H9Y20912   6.612   2.796   9.326  0.2598  0.5113  0.8405
  182SLPC  C31020913   6.531   2.993   9.321  0.0572  0.9024  0.0976
  182SLPC  H10X20914   6.618   3.047   9.361 -0.1925  2.2097 -1.0429
  182SLPC  H10Y20915   6.444   3.045   9.367  0.0171 -1.2520  2.7278
  182SLPC  C31120916   6.532   3.002   9.164  0.3411  0.2648 -0.3453
  182SLPC  H11X20917   6.438   2.950   9.135  0.5701  0.0568 -0.7226
  182SLPC  H11Y20918   6.629   2.952   9.144 -0.0972  0.0754 -2.1312
  182SLPC  C31220919   6.547   3.134   9.089 -0.1030  0.5972  0.1678
  182SLPC  H12X20920   6.613   3.207   9.141 -0.7173  1.8905 -0.8046
  182SLPC  H12Y20921   6.447   3.181   9.099 -0.0878  1.0458 -1.5375
  182SLPC  C31320922   6.576   3.114   8.941  0.8802 -0.0016  0.1993
  182SLPC  H13X20923   6.502   3.046   8.894  0.7478 -0.6138  1.2663
  182SLPC  H13Y20924   6.666   3.049   8.951 -0.6510 -1.9742  1.8782
  182SLPC  C31420925   6.619   3.247   8.886 -0.1519  0.9820 -0.4061
  182SLPC  H14X20926   6.715   3.280   8.932 -0.7020  0.6630  1.0232
  182SLPC  H14Y20927   6.541   3.324   8.904 -2.8673 -2.0837  2.1340
  182SLPC  C31520928   6.636   3.242   8.737  0.6010 -0.2137  0.3680
  182SLPC  H15X20929   6.693   3.152   8.703 -1.8450 -1.9173  0.4992
  182SLPC  H15Y20930   6.698   3.326   8.700 -2.0063  1.5228 -0.2794
  182SLPC  C31620931   6.508   3.240   8.652  0.3780  0.5309  0.4929
  182SLPC  H16X20932   6.447   3.331   8.670  0.7789  0.7496  0.7742
  182SLPC  H16Y20933   6.448   3.149   8.670  0.4732  0.3350 -0.1605
  182SLPC  C31720934   6.532   3.258   8.503  0.1147 -0.1568  0.4798
  182SLPC  H17X20935   6.579   3.357   8.487 -1.9202  0.7787 -0.0841
  182SLPC  H17Y20936   6.432   3.267   8.456 -0.4864 -0.7089  1.6094
  182SLPC  C31820937   6.617   3.140   8.443  0.3025  0.1567  0.4948
  182SLPC  H18X20938   6.726   3.142   8.468  0.3465  0.7696  0.2635
  182SLPC  H18Y20939   6.625   3.125   8.333 -0.1367 -0.7470  0.5736
  182SLPC  H18Z20940   6.578   3.045   8.487  3.8329 -1.6705  0.1067
  183SLPC     N20941   1.742   4.048  10.740 -0.5833 -0.9349  0.3662
  183SLPC   C1320942   1.879   4.065  10.810  0.2793 -0.6274 -0.0796
  183SLPC  H13A20943   1.894   4.169  10.837  0.0494 -0.9753  1.4635
  183SLPC  H13B20944   1.880   4.004  10.899  0.7329 -2.7273 -1.4639
  183SLPC  H13C20945   1.961   4.038  10.746 -0.1929 -2.0441 -0.1068
  183SLPC   C1420946   1.739   4.116  10.609  0.1708  0.0147  0.2284
  183SLPC  H14A20947   1.645   4.119  10.557  0.7065 -1.2681 -0.8695
  183SLPC  H14B20948   1.769   4.219  10.623 -1.1810  0.3130  1.1290
  183SLPC  H14C20949   1.810   4.070  10.542  0.3054 -1.2383  1.1978
  183SLPC   C1520950   1.643   4.108  10.835 -0.0562  0.1432  0.3588
  183SLPC  H15A20951   1.680   4.207  10.854  1.2990 -0.6590  2.3152
  183SLPC  H15B20952   1.541   4.102  10.801  0.4329 -1.0258 -1.0091
  183SLPC  H15C20953   1.645   4.053  10.929  0.2087 -0.5821 -0.0625
  183SLPC   C1220954   1.699   3.900  10.734 -0.2862  0.9493 -0.2034
  183SLPC  H12A20955   1.591   3.893  10.735 -0.2575  0.3160 -0.9429
  183SLPC  H12B20956   1.736   3.861  10.828 -0.8641  1.5619  0.2840
  183SLPC   C1120957   1.757   3.811  10.618  0.3683 -0.8479 -0.3716
  183SLPC  H11A20958   1.752   3.857  10.517  1.1164 -2.1048 -1.0034
  183SLPC  H11B20959   1.706   3.713  10.609 -2.3414  0.4802 -0.8088
  183SLPC     P20960   1.943   3.701  10.776 -0.2957 -0.1038 -0.0927
  183SLPC   O1320961   2.081   3.751  10.810  0.4922 -0.1919 -0.0292
  183SLPC   O1420962   1.847   3.697  10.891  0.4104 -0.2436  1.0296
  183SLPC   O1220963   1.893   3.793  10.654  0.6053 -0.0396  0.4682
  183SLPC   O1120964   1.946   3.556  10.713 -0.0937 -0.0651  0.2023
  183SLPC    C120965   2.062   3.482  10.695 -0.8132 -0.1411  0.4920
  183SLPC    HA20966   2.154   3.545  10.700 -0.1037 -0.9646 -1.2866
  183SLPC    HB20967   2.083   3.414  10.781  0.6551  0.2823  0.5088
  183SLPC    C220968   2.056   3.395  10.563  0.5620 -0.5156  0.5276
  183SLPC    HS20969   2.156   3.354  10.541 -0.3184 -1.4333 -2.1985
  183SLPC   O2120970   2.025   3.486  10.458 -0.0540 -0.5406 -0.2323
  183SLPC   C2120971   2.113   3.581  10.432 -0.2418  0.7300  0.0538
  183SLPC   O2220972   2.226   3.594  10.471 -0.0273 -0.4763  0.1406
  183SLPC   C2220973   2.035   3.679  10.336  0.4676 -0.9730  0.2837
  183SLPC   H2R20974   1.954   3.720  10.399 -0.7752  1.9276 -2.8499
  183SLPC   H2S20975   2.094   3.766  10.297  0.1116 -1.2664 -0.9566
  183SLPC    C320976   1.945   3.281  10.561 -0.4044 -0.3775  0.0776
  183SLPC    HX20977   1.850   3.339  10.553  0.1830  0.4907 -0.8338
  183SLPC    HY20978   1.952   3.213  10.649  2.1403  1.3217  1.2963
  183SLPC   O3120979   1.963   3.195  10.444  0.0921  0.2863  0.3017
  183SLPC   C3120980   1.854   3.131  10.394  0.7728 -0.3887 -0.3834
  183SLPC   O3220981   1.744   3.126  10.445  0.2273 -0.8709  0.4747
  183SLPC   C3220982   1.885   3.050  10.270  0.9338 -0.2612  0.3827
  183SLPC   H2X20983   1.811   2.966  10.269  0.1471  0.3651  2.2399
  183SLPC   H2Y20984   1.986   3.005  10.267  0.1074 -2.1836 -1.9855
  183SLPC   C2320985   1.969   3.620  10.206 -0.0247  0.1492 -0.3461
  183SLPC   H3R20986   1.881   3.679  10.173  0.6758  1.2447 -0.2964
  183SLPC   H3S20987   1.920   3.522  10.225  0.9584  0.1886  3.0195
  183SLPC   C2420988   2.054   3.620  10.080 -0.4439  0.2513 -0.1052
  183SLPC   H4R20989   2.154   3.580  10.106 -0.7005 -0.9347 -0.8504
  183SLPC   H4S20990   2.076   3.728  10.070 -2.9447  0.8558  0.2150
  183SLPC   C2520991   1.994   3.559   9.956  0.5041  0.4264 -0.0368
  183SLPC   H5R20992   1.893   3.602   9.942 -0.5057 -1.4091  1.1429
  183SLPC   H5S20993   1.982   3.449   9.965 -0.2836  0.4353 -0.8647
  183SLPC   C2620994   2.074   3.589   9.826  0.3468  0.3601 -0.9795
  183SLPC   H6R20995   2.020   3.534   9.746 -0.2163 -0.8830  0.1988
  183SLPC   H6S20996   2.181   3.559   9.833  0.1004 -0.2458  0.7900
  183SLPC   C2720997   2.096   3.734   9.787 -0.1871 -0.1548  0.0929
  183SLPC   H7R20998   2.130   3.804   9.866  0.3746  1.8789 -1.8357
  183SLPC   H7S20999   1.997   3.774   9.758 -0.1471 -0.8521 -1.0908
  183SLPC   C2821000   2.178   3.744   9.659 -0.4570  0.4049 -0.0130
  183SLPC   H8R21001   2.114   3.704   9.578 -2.4925 -0.8491  2.0693
  183SLPC   H8S21002   2.269   3.681   9.673 -0.4778  0.5129  0.6828
  183SLPC   C2921003   2.219   3.889   9.642  0.6197 -0.4602 -0.2915
  183SLPC   H9R21004   2.222   3.946   9.736 -0.5087  5.3918 -3.3132
  183SLPC  C21021005   2.235   3.959   9.529  0.2109 -0.7519 -0.6935
  183SLPC  H10R21006   2.252   4.068   9.538  1.7056 -1.0983  1.1014
  183SLPC  C21121007   2.220   3.910   9.383 -0.5316  0.4697 -0.1014
  183SLPC  H11R21008   2.131   3.952   9.332 -0.6815  0.8917  0.5052
  183SLPC  H11S21009   2.203   3.801   9.379 -1.2772  0.5984 -2.0925
  183SLPC  C21221010   2.342   3.957   9.313  0.0827 -0.0031 -0.1721
  183SLPC  H12R21011   2.436   3.936   9.367  0.3721 -0.3178 -0.7869
  183SLPC  C21321012   2.354   4.010   9.190  0.2569 -0.3956  1.3808
  183SLPC  H13R21013   2.456   4.021   9.149 -0.4026  0.5624 -0.0551
  183SLPC  C21421014   2.247   4.026   9.087 -0.5376 -0.6986 -0.3074
  183SLPC  H14R21015   2.205   4.129   9.101 -1.7594 -1.1506 -0.5114
  183SLPC  H14S21016   2.175   3.945   9.113  0.4489 -1.3821  0.3460
  183SLPC  C21521017   2.286   4.004   8.939  0.4783 -0.1679 -0.7080
  183SLPC  H15R21018   2.192   3.985   8.883  0.2321 -1.1047  0.0029
  183SLPC  H15S21019   2.356   3.920   8.923  0.4364 -0.0604 -1.4861
  183SLPC  C21621020   2.332   4.129   8.869 -0.0858 -0.3235 -0.0624
  183SLPC  H16R21021   2.279   4.224   8.891 -0.8090 -0.7133 -0.0824
  183SLPC  H16S21022   2.321   4.114   8.759 -0.5533  1.1031 -0.2394
  183SLPC  C21721023   2.480   4.153   8.877  0.0294 -0.0245 -0.3585
  183SLPC  H17R21024   2.537   4.059   8.858 -0.7131 -0.2742 -1.5350
  183SLPC  H17S21025   2.484   4.203   8.976 -3.6269 -1.3625  0.6404
  183SLPC  C21821026   2.518   4.253   8.767  0.2186 -0.5105  0.0622
  183SLPC  H18R21027   2.529   4.203   8.669  1.2922  0.6388 -0.4278
  183SLPC  H18S21028   2.603   4.318   8.797  0.6606 -0.4819 -1.2080
  183SLPC  H18T21029   2.432   4.325   8.771  0.6208 -0.0741  1.8710
  183SLPC   C3321030   1.862   3.124  10.132  0.1195 -0.1164  0.2749
  183SLPC   H3X21031   1.932   3.207  10.109  1.2756 -1.7390 -2.6564
  183SLPC   H3Y21032   1.755   3.153  10.124  0.4143  0.5764 -2.1710
  183SLPC   C3421033   1.877   3.027  10.010  0.1184 -0.2428 -0.4975
  183SLPC   H4X21034   1.799   2.948  10.010 -0.1420 -0.0008 -1.4516
  183SLPC   H4Y21035   1.968   2.964  10.018  0.3798  0.2362  0.4755
  183SLPC   C3521036   1.883   3.102   9.875  0.2678  0.2306 -0.0347
  183SLPC   H5X21037   1.978   3.159   9.891  0.9346 -1.5135  3.1542
  183SLPC   H5Y21038   1.792   3.164   9.866 -2.0965 -2.9271  0.4854
  183SLPC   C3621039   1.902   3.003   9.753 -0.4438 -0.0354 -0.2730
  183SLPC   H6X21040   1.814   2.940   9.729 -0.6522 -0.3908  1.3419
  183SLPC   H6Y21041   1.993   2.940   9.766  0.5407  1.4676  0.4063
  183SLPC   C3721042   1.930   3.085   9.626 -0.0339  0.1693  0.2507
  183SLPC   H7X21043   1.986   3.178   9.651  0.3462 -0.6663  2.7875
  183SLPC   H7Y21044   1.829   3.124   9.601  0.3564  2.2158  1.6027
  183SLPC   C3821045   2.006   3.017   9.512  0.4586 -0.0358  0.4425
  183SLPC   H8X21046   2.113   3.003   9.538  0.7587  1.9561  0.3867
  183SLPC   H8Y21047   2.003   3.086   9.425  0.9475 -0.6597 -0.0798
  183SLPC   C3921048   1.955   2.875   9.488  0.0172  0.6938  0.4721
  183SLPC   H9X21049   1.848   2.860   9.514 -0.2512  2.2683  0.3854
  183SLPC   H9Y21050   2.022   2.808   9.546  2.0012  1.3324 -0.9822
  183SLPC  C31021051   1.975   2.831   9.345 -0.0477  0.3157 -0.5069
  183SLPC  H10X21052   1.998   2.723   9.335 -0.3010  0.2060  0.0462
  183SLPC  H10Y21053   2.067   2.868   9.295 -0.8706  0.4455 -1.9723
  183SLPC  C31121054   1.863   2.868   9.245  0.4839 -0.0662  0.1381
  183SLPC  H11X21055   1.864   2.979   9.240  0.6875  0.0842  2.3838
  183SLPC  H11Y21056   1.766   2.841   9.293  1.0339 -1.6276  0.4319
  183SLPC  C31221057   1.882   2.793   9.117  0.7788 -0.4211 -0.0491
  183SLPC  H12X21058   1.873   2.683   9.135  0.1696 -0.6002 -1.3400
  183SLPC  H12Y21059   1.978   2.823   9.069  0.5842  0.4188  0.0780
  183SLPC  C31321060   1.774   2.832   9.004 -0.4019 -0.2706 -0.7454
  183SLPC  H13X21061   1.791   2.930   8.955 -1.1901  0.1540 -0.1961
  183SLPC  H13Y21062   1.676   2.851   9.053 -0.6708  2.2010 -2.0646
  183SLPC  C31421063   1.748   2.726   8.899  0.1164 -0.3907 -0.0997
  183SLPC  H14X21064   1.761   2.621   8.932  0.1803  0.6843  3.7553
  183SLPC  H14Y21065   1.822   2.734   8.816  1.6202  0.9051  1.2898
  183SLPC  C31521066   1.617   2.734   8.828 -0.8860  0.3799  0.1403
  183SLPC  H15X21067   1.611   2.839   8.791 -1.3058 -0.0812 -1.1794
  183SLPC  H15Y21068   1.530   2.733   8.897 -0.3603 -0.7046  0.8038
  183SLPC  C31621069   1.600   2.632   8.724  0.3957 -0.2788 -0.1004
  183SLPC  H16X21070   1.594   2.535   8.778  1.6392 -1.1612 -1.4695
  183SLPC  H16Y21071   1.690   2.626   8.659 -1.1401 -0.7094 -2.3299
  183SLPC  C31721072   1.482   2.653   8.633  0.4740  0.7014 -0.4789
  183SLPC  H17X21073   1.498   2.752   8.586  0.6538  1.1370  0.4848
  183SLPC  H17Y21074   1.390   2.668   8.693  0.2247  1.5331 -1.0491
  183SLPC  C31821075   1.485   2.538   8.531  0.1158 -1.0908 -0.6614
  183SLPC  H18X21076   1.566   2.552   8.455  0.0401  1.4092 -0.3698
  183SLPC  H18Y21077   1.387   2.536   8.479 -0.6584 -0.4839  0.7172
  183SLPC  H18Z21078   1.487   2.438   8.579 -0.3788 -0.0161  1.7569
  184SLPC     N21079   3.923   0.610  10.948 -0.4349 -0.3168  0.2369
  184SLPC   C1321080   4.011   0.522  11.028 -0.1024 -0.2309 -0.1128
  184SLPC  H13A21081   3.992   0.544  11.132  0.6483 -1.2393  0.2537
  184SLPC  H13B21082   4.007   0.418  10.998  1.8116 -0.4053  0.1254
  184SLPC  H13C21083   4.113   0.554  11.014 -0.7363  1.6078 -0.7414
  184SLPC   C1421084   3.962   0.749  10.995  0.1550 -0.6220 -0.4152
  184SLPC  H14A21085   3.884   0.821  10.976 -0.3136 -1.5077 -2.0018
  184SLPC  H14B21086   3.985   0.748  11.101 -1.5440  2.2229  0.0905
  184SLPC  H14C21087   4.045   0.782  10.933 -1.9219  0.4402 -2.7988
  184SLPC   C1521088   3.781   0.589  10.974 -0.5305 -0.0542  0.2328
  184SLPC  H15A21089   3.752   0.487  10.956  0.1358  0.0633 -1.8221
  184SLPC  H15B21090   3.739   0.627  11.066 -1.0091  1.7567 -0.6732
  184SLPC  H15C21091   3.727   0.648  10.901 -1.3571  1.0371  1.6603
  184SLPC   C1221092   3.958   0.596  10.799  0.2295 -0.6744 -0.2138
  184SLPC  H12A21093   4.066   0.603  10.800  0.3222 -1.5681  2.0964
  184SLPC  H12B21094   3.927   0.685  10.746  3.7325 -0.2508 -1.8962
  184SLPC   C1121095   3.912   0.475  10.721 -0.0140 -0.3395 -0.0144
  184SLPC  H11A21096   3.937   0.487  10.613  2.1888 -2.2818  0.2070
  184SLPC  H11B21097   3.802   0.463  10.721  0.0359 -0.8103 -0.0122
  184SLPC     P21098   4.115   0.316  10.734 -0.4705 -0.0343  0.1516
  184SLPC   O1321099   4.201   0.442  10.741  0.6755 -0.5606  0.4957
  184SLPC   O1421100   4.164   0.193  10.802 -0.3308  1.0371  0.3687
  184SLPC   O1221101   3.962   0.354  10.780  0.0483  0.7787  0.3613
  184SLPC   O1121102   4.087   0.293  10.579 -0.3664  0.4621 -0.5009
  184SLPC    C121103   3.968   0.220  10.551 -0.6820 -0.0432 -0.0498
  184SLPC    HA21104   3.929   0.147  10.624 -1.0905  0.2843  0.0605
  184SLPC    HB21105   3.884   0.290  10.537  0.2835  0.8280 -1.8512
  184SLPC    C221106   3.976   0.138  10.410  0.1695  0.1282 -0.2798
  184SLPC    HS21107   4.047   0.057  10.435 -1.4050 -1.3671 -0.4785
  184SLPC   O2121108   4.044   0.220  10.309 -0.2611  0.6006 -0.4812
  184SLPC   C2121109   4.071   0.149  10.191 -0.5387  0.1656 -0.3758
  184SLPC   O2221110   4.044   0.032  10.184 -0.1579  0.5177  0.2416
  184SLPC   C2221111   4.138   0.226  10.080  0.2185  0.0432 -0.0329
  184SLPC   H2R21112   4.184   0.314  10.131 -1.3714  1.9367 -1.6646
  184SLPC   H2S21113   4.215   0.153  10.050  0.9982 -0.0065  1.9114
  184SLPC    C321114   3.834   0.100  10.369  0.1537 -0.1159  0.5944
  184SLPC    HX21115   3.778   0.076  10.462 -0.8486  0.3748  0.1425
  184SLPC    HY21116   3.826   0.012  10.303  0.5823  0.9699 -0.9660
  184SLPC   O3121117   3.757   0.213  10.321 -0.3435  0.8244  0.0523
  184SLPC   C3121118   3.710   0.198  10.195 -0.3571  0.2945 -0.1324
  184SLPC   O3221119   3.723   0.105  10.119 -0.5886 -0.0331  0.6242
  184SLPC   C3221120   3.619   0.317  10.177  0.3023 -0.5184  0.4993
  184SLPC   H2X21121   3.583   0.359  10.274 -1.1769  0.3857 -0.4121
  184SLPC   H2Y21122   3.525   0.280  10.131  0.8642  1.2965 -2.2898
  184SLPC   C2321123   4.036   0.262   9.974 -0.0030 -0.0722 -0.5193
  184SLPC   H3R21124   3.972   0.340  10.020 -0.2019 -1.4673  1.7136
  184SLPC   H3S21125   3.975   0.173   9.949  0.6582 -0.2068 -1.7423
  184SLPC   C2421126   4.108   0.306   9.852 -0.7009  0.8944  1.2471
  184SLPC   H4R21127   4.189   0.239   9.815 -1.5962  0.0188  0.8355
  184SLPC   H4S21128   4.161   0.403   9.859 -1.6711  1.9664 -3.0439
  184SLPC   C2521129   4.011   0.323   9.727  0.1970  0.8280 -0.6134
  184SLPC   H5R21130   3.943   0.409   9.740  0.7948  1.4608 -1.5596
  184SLPC   H5S21131   3.939   0.238   9.734  0.7751  0.2857 -1.1729
  184SLPC   C2621132   4.081   0.305   9.593  0.2687 -0.2579  0.1583
  184SLPC   H6R21133   4.129   0.205   9.599 -0.5685 -0.6834 -0.0756
  184SLPC   H6S21134   4.166   0.377   9.582  0.0270 -0.3004 -2.7267
  184SLPC   C2721135   3.981   0.337   9.481 -0.1481  0.3414  0.2547
  184SLPC   H7R21136   3.950   0.443   9.488  1.4716  0.9277 -0.9906
  184SLPC   H7S21137   3.898   0.264   9.493  2.2661 -2.2581  2.8064
  184SLPC   C2821138   4.051   0.312   9.347 -0.2602 -0.7618  0.1837
  184SLPC   H8R21139   4.095   0.210   9.339  0.1260 -0.5051 -1.0893
  184SLPC   H8S21140   4.139   0.379   9.348 -0.6072 -0.3003  0.0698
  184SLPC   C2921141   3.953   0.346   9.238  0.1263  0.3339 -0.4433
  184SLPC   H9R21142   3.864   0.282   9.235 -1.1648  2.0940 -1.5186
  184SLPC  C21021143   3.949   0.459   9.166  0.2687 -0.1594  0.1534
  184SLPC  H10R21144   3.873   0.465   9.087  2.1148 -2.8005 -2.0367
  184SLPC  C21121145   4.051   0.577   9.155  0.6417  0.9462 -0.7592
  184SLPC  H11R21146   4.085   0.604   9.257  1.1039 -1.0918 -0.3285
  184SLPC  H11S21147   4.001   0.670   9.121 -0.7851  0.0906 -1.0856
  184SLPC  C21221148   4.166   0.547   9.064 -0.8417 -0.3072  0.4164
  184SLPC  H12R21149   4.157   0.468   8.988  4.7978 -1.8182  0.9119
  184SLPC  C21321150   4.287   0.596   9.084  0.1300 -0.0195  0.1392
  184SLPC  H13R21151   4.369   0.563   9.018  0.0503 -3.3168  1.4949
  184SLPC  C21421152   4.340   0.680   9.191 -0.8451  0.7336 -0.5273
  184SLPC  H14R21153   4.260   0.739   9.241  1.2634  0.6381  3.3130
  184SLPC  H14S21154   4.390   0.766   9.140 -0.8264  0.6486 -0.6519
  184SLPC  C21521155   4.428   0.600   9.286 -0.0453 -0.5464  0.1337
  184SLPC  H15R21156   4.515   0.550   9.240 -0.0103  1.2593 -1.9627
  184SLPC  H15S21157   4.365   0.523   9.335  0.2688 -1.2551 -0.5605
  184SLPC  C21621158   4.478   0.697   9.401  0.1297  0.4964 -0.0014
  184SLPC  H16R21159   4.395   0.752   9.451  0.3452 -1.0061  2.1368
  184SLPC  H16S21160   4.539   0.778   9.356  1.3848  0.4834  1.5920
  184SLPC  C21721161   4.548   0.619   9.519  0.4830 -0.0533  0.3488
  184SLPC  H17R21162   4.473   0.554   9.569  0.0512 -1.1836 -1.6845
  184SLPC  H17S21163   4.576   0.688   9.601  2.2334  0.6401 -0.7794
  184SLPC  C21821164   4.669   0.526   9.493  0.5064  0.0650  0.5248
  184SLPC  H18R21165   4.699   0.476   9.587  4.4743  0.2785 -0.4364
  184SLPC  H18S21166   4.756   0.576   9.445  0.7222  0.2533  1.1125
  184SLPC  H18T21167   4.641   0.448   9.418  2.4430 -0.5753  0.4166
  184SLPC   C3321168   3.682   0.441  10.108  1.0046  0.3882 -0.7739
  184SLPC   H3X21169   3.784   0.462  10.148  0.6417 -0.0039  0.4179
  184SLPC   H3Y21170   3.635   0.542  10.108 -0.9345 -0.4747 -1.0988
  184SLPC   C3421171   3.692   0.416   9.958  0.4010  0.1699 -0.4201
  184SLPC   H4X21172   3.720   0.310   9.939  0.8661 -0.1215  1.7196
  184SLPC   H4Y21173   3.774   0.471   9.906 -0.0005 -1.6528 -3.2313
  184SLPC   C3521174   3.564   0.449   9.886  0.1743  0.5363  0.5812
  184SLPC   H5X21175   3.546   0.559   9.884 -2.6741  0.1750 -2.6529
  184SLPC   H5Y21176   3.485   0.395   9.942  0.7243 -0.0885  0.7693
  184SLPC   C3621177   3.550   0.390   9.744  0.4075 -0.4639 -0.2742
  184SLPC   H6X21178   3.444   0.378   9.712 -0.2539  1.2638  1.1054
  184SLPC   H6Y21179   3.600   0.292   9.751 -0.6218 -0.8909  3.7186
  184SLPC   C3721180   3.602   0.488   9.639 -1.1471  0.0483  0.7417
  184SLPC   H7X21181   3.701   0.518   9.680  0.0522 -0.1744 -1.7990
  184SLPC   H7Y21182   3.528   0.570   9.638 -1.0860  0.1534 -1.5154
  184SLPC   C3821183   3.614   0.435   9.502  0.0828  0.8817 -0.0808
  184SLPC   H8X21184   3.652   0.331   9.508  0.7431  1.0916 -0.5416
  184SLPC   H8Y21185   3.692   0.492   9.447  2.0479 -1.1315  0.4896
  184SLPC   C3921186   3.481   0.453   9.415 -0.4365 -0.2302  0.2364
  184SLPC   H9X21187   3.449   0.559   9.420  1.2719  0.8371 -4.9847
  184SLPC   H9Y21188   3.393   0.394   9.447 -1.8200  1.1927 -0.7675
  184SLPC  C31021189   3.508   0.411   9.274  0.4711  0.0392 -1.0244
  184SLPC  H10X21190   3.516   0.300   9.271  0.9134  0.0649 -0.9108
  184SLPC  H10Y21191   3.607   0.452   9.242 -0.0537  2.9623  0.7137
  184SLPC  C31121192   3.401   0.458   9.172 -0.2885 -0.3686 -0.4306
  184SLPC  H11X21193   3.368   0.558   9.208 -1.4985  0.3598 -3.2345
  184SLPC  H11Y21194   3.319   0.385   9.185 -0.5433 -0.2488 -1.2895
  184SLPC  C31221195   3.452   0.461   9.026 -0.1153  0.5061  0.0058
  184SLPC  H12X21196   3.497   0.365   8.995  1.4581  1.3204 -0.3681
  184SLPC  H12Y21197   3.543   0.524   9.016  1.8824 -2.4265 -1.5212
  184SLPC  C31321198   3.346   0.513   8.932  0.2663  0.7914 -0.1226
  184SLPC  H13X21199   3.316   0.615   8.964  1.7406  1.0407  0.5685
  184SLPC  H13Y21200   3.258   0.445   8.939  0.2283  0.9606  1.3223
  184SLPC  C31421201   3.396   0.506   8.786 -0.3422 -0.2050  0.1849
  184SLPC  H14X21202   3.437   0.405   8.763 -0.0858 -0.2259  0.7362
  184SLPC  H14Y21203   3.484   0.573   8.778  0.2016 -0.9026  0.2020
  184SLPC  C31521204   3.296   0.554   8.678 -0.3073  0.1789 -0.8463
  184SLPC  H15X21205   3.280   0.662   8.699 -2.1487 -0.2689  0.3153
  184SLPC  H15Y21206   3.198   0.505   8.689 -0.6639  0.9164 -0.6516
  184SLPC  C31621207   3.347   0.563   8.534 -0.0407 -0.2834  0.2692
  184SLPC  H16X21208   3.343   0.465   8.481  1.4592  0.6962 -1.7994
  184SLPC  H16Y21209   3.456   0.584   8.528  0.2529 -1.6353  0.5068
  184SLPC  C31721210   3.273   0.662   8.447 -0.3795  0.2523  0.4154
  184SLPC  H17X21211   3.166   0.633   8.436 -0.6812  1.6137 -0.6039
  184SLPC  H17Y21212   3.316   0.654   8.345 -0.9029 -2.5755  0.3355
  184SLPC  C31821213   3.290   0.812   8.490  0.1741 -0.9622 -0.3233
  184SLPC  H18X21214   3.209   0.840   8.561 -0.3796  1.3980 -1.7830
  184SLPC  H18Y21215   3.259   0.874   8.404  1.0886  0.1296  0.1052
  184SLPC  H18Z21216   3.395   0.838   8.515  0.2697 -1.0311 -0.6580
  185SLPC     N21217   2.556   4.917   6.236  0.0879  0.2089  0.4304
  185SLPC   C1321218   2.445   4.860   6.157 -0.1011 -0.9865 -0.2863
  185SLPC  H13A21219   2.374   4.939   6.138  2.9696  1.5449 -2.3797
  185SLPC  H13B21220   2.472   4.830   6.057 -2.2740  2.3008 -2.0370
  185SLPC  H13C21221   2.387   4.784   6.207 -2.2717  1.5938  1.4309
  185SLPC   C1421222   2.611   5.037   6.165  0.2697 -1.0067 -0.1421
  185SLPC  H14A21223   2.548   5.124   6.175 -0.0467 -1.3011  0.4777
  185SLPC  H14B21224   2.707   5.066   6.205  0.6427 -0.8897 -1.0804
  185SLPC  H14C21225   2.618   5.018   6.059  0.2635 -0.5786 -0.2204
  185SLPC   C1521226   2.658   4.806   6.243  0.1582 -0.7797 -0.5207
  185SLPC  H15A21227   2.699   4.791   6.145  2.1965 -1.6709  0.4201
  185SLPC  H15B21228   2.746   4.831   6.300 -0.5918  1.8708 -0.4154
  185SLPC  H15C21229   2.609   4.712   6.265  2.8168 -2.2324 -0.4580
  185SLPC   C1221230   2.511   4.960   6.372 -0.1461 -0.0691 -0.5176
  185SLPC  H12A21231   2.593   4.996   6.433  0.2505  0.4806 -1.3625
  185SLPC  H12B21232   2.479   4.869   6.421  0.5317 -0.4423 -0.7611
  185SLPC   C1121233   2.407   5.073   6.370  0.0670 -0.1437 -0.3492
  185SLPC  H11A21234   2.352   5.079   6.466 -2.2940  0.2812 -1.6466
  185SLPC  H11B21235   2.324   5.039   6.304 -0.9550  2.9891 -0.8146
  185SLPC     P21236   2.542   5.287   6.444 -0.3759  0.5323 -0.4050
  185SLPC   O1321237   2.612   5.394   6.375 -0.2281 -0.5079  0.2035
  185SLPC   O1421238   2.449   5.337   6.544 -0.1612  0.3343 -0.1752
  185SLPC   O1221239   2.467   5.200   6.337 -0.6804  0.1312  0.7598
  185SLPC   O1121240   2.628   5.180   6.514 -0.1997  0.3169  0.1728
  185SLPC    C121241   2.751   5.208   6.574  0.0650 -0.1764  0.2249
  185SLPC    HA21242   2.820   5.267   6.509 -0.7755  0.7451  0.1461
  185SLPC    HB21243   2.731   5.258   6.672  1.1859 -2.1439  1.5251
  185SLPC    C221244   2.829   5.081   6.624 -0.0862  0.7675  0.4926
  185SLPC    HS21245   2.828   5.021   6.531 -1.5644  0.4572  0.6744
  185SLPC   O2121246   2.762   5.018   6.733  0.3012 -0.0335  0.4493
  185SLPC   C2121247   2.699   4.905   6.701 -0.1603  0.3452 -0.8109
  185SLPC   O2221248   2.689   4.847   6.597 -0.5217  0.4293  0.3314
  185SLPC   C2221249   2.668   4.833   6.836 -0.4208 -0.4634  0.1799
  185SLPC   H2R21250   2.757   4.768   6.852 -0.8025 -0.5100  2.5492
  185SLPC   H2S21251   2.644   4.915   6.908 -0.3032  2.1289 -2.5641
  185SLPC    C321252   2.982   5.110   6.652 -0.3104  0.4023  0.3818
  185SLPC    HX21253   3.019   5.177   6.572 -0.7025  0.1794  0.0087
  185SLPC    HY21254   3.046   5.020   6.644 -1.2586 -0.2693  0.1684
  185SLPC   O3121255   2.998   5.187   6.773  0.2874  0.1064  0.1721
  185SLPC   C3121256   3.034   5.115   6.877 -0.1431  0.6240  0.2395
  185SLPC   O3221257   3.048   4.995   6.890  0.3762 -0.6009  0.6717
  185SLPC   C3221258   3.106   5.220   6.977  0.2540 -0.6233 -0.6922
  185SLPC   H2X21259   3.035   5.301   7.004  1.8915  0.0786  1.8432
  185SLPC   H2Y21260   3.200   5.264   6.938  0.3579 -0.5416 -0.3577
  185SLPC   C2321261   2.547   4.747   6.830 -0.3900 -0.0903  0.1684
  185SLPC   H3R21262   2.566   4.647   6.786  2.0912 -0.6722  2.3332
  185SLPC   H3S21263   2.468   4.796   6.770  0.0283  0.7556  0.2912
  185SLPC   C2421264   2.476   4.728   6.967 -0.0412 -0.8026 -0.4329
  185SLPC   H4R21265   2.376   4.694   6.934 -0.7322  0.1477  0.5770
  185SLPC   H4S21266   2.460   4.827   7.017 -1.0046 -0.4343 -1.4302
  185SLPC   C2521267   2.540   4.626   7.059  0.9892 -0.2496  0.5867
  185SLPC   H5R21268   2.633   4.672   7.100  0.7530  1.1290 -0.3776
  185SLPC   H5S21269   2.579   4.536   7.006  0.8130 -0.1161  0.2261
  185SLPC   C2621270   2.451   4.586   7.176 -0.3116 -0.4412 -0.2794
  185SLPC   H6R21271   2.358   4.537   7.141 -0.4731  0.1429 -0.6692
  185SLPC   H6S21272   2.405   4.672   7.228 -0.4825 -0.6904 -0.0108
  185SLPC   C2721273   2.523   4.495   7.279  0.3100 -0.0618  0.7263
  185SLPC   H7R21274   2.611   4.549   7.319  0.6295 -0.4953  0.6095
  185SLPC   H7S21275   2.566   4.413   7.217  1.2241  0.3409  0.8176
  185SLPC   C2821276   2.433   4.431   7.380 -0.8353  0.3561 -0.8051
  185SLPC   H8R21277   2.467   4.329   7.411 -2.3130 -0.4340 -1.6954
  185SLPC   H8S21278   2.334   4.404   7.340 -1.5328 -0.3787  1.2496
  185SLPC   C2921279   2.413   4.513   7.497 -0.1784  0.5903 -0.9229
  185SLPC   H9R21280   2.354   4.601   7.466 -0.2048  0.4252 -1.3394
  185SLPC  C21021281   2.458   4.504   7.623  0.5797 -1.0160 -0.0634
  185SLPC  H10R21282   2.429   4.584   7.692 -1.1319  0.0461 -1.9377
  185SLPC  C21121283   2.540   4.397   7.684  0.1412  0.4194  0.0031
  185SLPC  H11R21284   2.585   4.335   7.604 -0.0434  0.6133 -0.2502
  185SLPC  H11S21285   2.474   4.325   7.737  0.1423 -0.7270 -1.4948
  185SLPC  C21221286   2.664   4.436   7.764 -0.7594 -0.4814  0.4898
  185SLPC  H12R21287   2.755   4.405   7.710  0.1517  4.0331 -1.0274
  185SLPC  C21321288   2.674   4.476   7.890 -0.1847 -0.5434  0.7076
  185SLPC  H13R21289   2.773   4.508   7.925  0.0393 -0.8114  0.3134
  185SLPC  C21421290   2.558   4.518   7.971 -0.0209 -0.8169 -0.0978
  185SLPC  H14R21291   2.467   4.499   7.909  0.3424  4.0343 -2.5787
  185SLPC  H14S21292   2.558   4.628   7.984  2.6802 -0.3878 -2.6559
  185SLPC  C21521293   2.546   4.439   8.098 -0.9317  0.9097  0.3575
  185SLPC  H15R21294   2.534   4.335   8.061  2.5198  0.7529 -0.7460
  185SLPC  H15S21295   2.454   4.467   8.152 -0.9651 -0.5012  1.0828
  185SLPC  C21621296   2.659   4.429   8.205 -0.0628  0.2018  0.6482
  185SLPC  H16R21297   2.724   4.341   8.184 -0.5544  0.0721 -0.4088
  185SLPC  H16S21298   2.604   4.405   8.298  0.3575  0.8115  1.0687
  185SLPC  C21721299   2.732   4.556   8.218 -0.8901 -0.6741  0.4557
  185SLPC  H17R21300   2.655   4.632   8.243  1.3535  1.3820  1.4925
  185SLPC  H17S21301   2.773   4.597   8.123 -1.2864  3.1150  1.7276
  185SLPC  C21821302   2.836   4.573   8.329  0.2260 -0.3039  0.3986
  185SLPC  H18R21303   2.863   4.681   8.331 -2.8160  0.5329  0.7991
  185SLPC  H18S21304   2.927   4.515   8.302  0.0262 -0.1346 -0.6936
  185SLPC  H18T21305   2.798   4.530   8.425 -0.7931 -1.9356 -0.6874
  185SLPC   C3321306   3.138   5.145   7.115 -0.7801 -0.8172 -0.3318
  185SLPC   H3X21307   3.223   5.073   7.116  0.8491  0.9838  2.6434
  185SLPC   H3Y21308   3.041   5.096   7.141 -1.3240 -0.4579 -1.5719
  185SLPC   C3421309   3.168   5.247   7.224 -0.1569  0.4927  0.0311
  185SLPC   H4X21310   3.087   5.320   7.243 -0.4380  0.1385  0.2154
  185SLPC   H4Y21311   3.259   5.306   7.203  1.2768  0.1855  4.3476
  185SLPC   C3521312   3.200   5.179   7.358  0.4087 -0.4281  0.6633
  185SLPC   H5X21313   3.290   5.114   7.347  1.3197  0.9288 -0.1074
  185SLPC   H5Y21314   3.110   5.121   7.389  0.9207 -2.9802 -2.1137
  185SLPC   C3621315   3.229   5.268   7.473  0.4766 -0.0284  0.2899
  185SLPC   H6X21316   3.147   5.344   7.476  1.4873  1.0980  0.1742
  185SLPC   H6Y21317   3.323   5.325   7.454  1.4230 -1.7730 -0.5156
  185SLPC   C3721318   3.242   5.188   7.602  0.4256  0.4903  0.4340
  185SLPC   H7X21319   3.310   5.101   7.592  0.0749  0.2302  0.2982
  185SLPC   H7Y21320   3.145   5.138   7.620  0.5457  0.7383  1.9190
  185SLPC   C3821321   3.296   5.273   7.715  0.0525 -0.2643 -0.6923
  185SLPC   H8X21322   3.213   5.338   7.748  0.2103 -1.1223  1.5929
  185SLPC   H8Y21323   3.381   5.335   7.677  0.8766 -1.7456 -1.3412
  185SLPC   C3921324   3.346   5.187   7.830 -0.2246  0.2072 -0.5869
  185SLPC   H9X21325   3.400   5.102   7.783  0.5217  1.0886 -1.3795
  185SLPC   H9Y21326   3.265   5.157   7.900 -0.0840 -0.5860 -0.7515
  185SLPC  C31021327   3.453   5.268   7.908 -0.2414  0.3355 -0.5690
  185SLPC  H10X21328   3.406   5.351   7.964 -1.2384 -0.5684 -0.0337
  185SLPC  H10Y21329   3.524   5.316   7.837  2.2006 -0.0249  1.5038
  185SLPC  C31121330   3.540   5.177   7.997  0.1658  0.1900  0.0243
  185SLPC  H11X21331   3.621   5.133   7.936 -0.2334  0.4681 -0.7247
  185SLPC  H11Y21332   3.484   5.088   8.033  1.8169 -1.1923 -0.6915
  185SLPC  C31221333   3.604   5.242   8.117 -0.5367 -0.3332  0.2759
  185SLPC  H12X21334   3.535   5.308   8.174  0.0198 -1.1268  1.9002
  185SLPC  H12Y21335   3.689   5.306   8.084 -2.9998  3.0275 -0.1546
  185SLPC  C31321336   3.653   5.138   8.218  0.2473 -0.3061  0.1929
  185SLPC  H13X21337   3.757   5.102   8.199  0.6169 -0.4959  2.3484
  185SLPC  H13Y21338   3.592   5.047   8.204  0.4748 -1.1033  3.5449
  185SLPC  C31421339   3.626   5.183   8.357 -0.2554  0.3094 -0.2712
  185SLPC  H14X21340   3.655   5.099   8.424  1.8733 -0.1517 -1.6819
  185SLPC  H14Y21341   3.519   5.199   8.379 -0.3549 -3.2589  3.0374
  185SLPC  C31521342   3.705   5.311   8.390  0.1741 -0.5080  0.0186
  185SLPC  H15X21343   3.669   5.393   8.325  2.1495  0.6645  0.3180
  185SLPC  H15Y21344   3.815   5.297   8.385  1.0797  4.6501  0.5357
  185SLPC  C31621345   3.683   5.356   8.534  0.0637 -0.0517 -0.0688
  185SLPC  H16X21346   3.759   5.430   8.569 -2.8094  1.3123  4.0021
  185SLPC  H16Y21347   3.704   5.269   8.600  2.6988 -0.8304 -1.7523
  185SLPC  C31721348   3.545   5.412   8.559  0.1810  0.0309  0.1538
  185SLPC  H17X21349   3.479   5.325   8.539  1.3247 -0.7680 -0.3006
  185SLPC  H17Y21350   3.524   5.489   8.482  3.5454 -0.7474 -1.7537
  185SLPC  C31821351   3.507   5.457   8.701 -0.8548 -0.1217 -0.2530
  185SLPC  H18X21352   3.517   5.374   8.775 -0.8155 -0.7202 -0.9146
  185SLPC  H18Y21353   3.398   5.475   8.707 -0.6895  1.2039 -0.7902
  185SLPC  H18Z21354   3.554   5.546   8.747 -1.0702 -1.7232  3.3794
  186SLPC     N21355   4.218   2.356   5.932 -0.9081 -0.0397 -0.2949
  186SLPC   C1321356   4.297   2.431   5.833 -0.2213 -0.1475 -0.4553
  186SLPC  H13A21357   4.288   2.532   5.870 -0.9389 -0.9857  1.8175
  186SLPC  H13B21358   4.400   2.400   5.830  0.2825  1.4606 -0.5817
  186SLPC  H13C21359   4.252   2.432   5.734 -0.1650 -3.4792 -0.6513
  186SLPC   C1421360   4.237   2.209   5.921  0.5285 -0.0145  0.6969
  186SLPC  H14A21361   4.177   2.151   5.988  0.4978 -1.1012 -0.2334
  186SLPC  H14B21362   4.219   2.186   5.817  0.2695 -0.2263  0.7871
  186SLPC  H14C21363   4.341   2.181   5.933  0.2509 -1.9826 -0.8837
  186SLPC   C1521364   4.074   2.397   5.911 -0.4229 -0.1963  0.6227
  186SLPC  H15A21365   4.067   2.503   5.927 -0.2343 -0.2669  1.2236
  186SLPC  H15B21366   4.037   2.372   5.813  0.7173 -1.7440  0.5420
  186SLPC  H15C21367   4.002   2.346   5.975 -0.4391  0.1135  0.8529
  186SLPC   C1221368   4.258   2.399   6.071  0.2157  0.0253  0.0416
  186SLPC  H12A21369   4.221   2.500   6.072 -2.4909 -0.8062 -2.2491
  186SLPC  H12B21370   4.365   2.386   6.078  0.1779 -0.5974 -0.4124
  186SLPC   C1121371   4.184   2.322   6.185  0.4988 -0.0692 -0.0070
  186SLPC  H11A21372   4.235   2.350   6.280 -0.0168 -3.0894  1.2968
  186SLPC  H11B21373   4.190   2.211   6.184  1.1012 -0.0908  1.8829
  186SLPC     P21374   4.012   2.500   6.269 -0.1019  0.5177  0.0825
  186SLPC   O1321375   4.099   2.606   6.205  0.7523  0.3724 -0.0889
  186SLPC   O1421376   3.866   2.533   6.274 -0.4671 -0.0481  0.0580
  186SLPC   O1221377   4.045   2.353   6.210  0.6449  0.0232 -0.2409
  186SLPC   O1121378   4.072   2.486   6.418  0.3806  0.0941  0.1778
  186SLPC    C121379   4.032   2.563   6.527 -0.1157 -0.2867  0.5504
  186SLPC    HA21380   4.094   2.655   6.527  1.1799 -1.1210  1.1588
  186SLPC    HB21381   3.922   2.574   6.523 -0.3431 -2.2784  0.0189
  186SLPC    C221382   4.062   2.494   6.662  0.4204 -0.6185 -0.0713
  186SLPC    HS21383   4.019   2.554   6.745  1.4223 -0.9996  0.7513
  186SLPC   O2121384   4.204   2.483   6.680  0.3185 -0.6168  0.0331
  186SLPC   C2121385   4.272   2.588   6.715  0.4257 -0.0218 -0.3235
  186SLPC   O2221386   4.222   2.695   6.733 -0.3547 -0.5660 -0.1908
  186SLPC   C2221387   4.417   2.553   6.750  0.4952  0.1926 -0.6216
  186SLPC   H2R21388   4.465   2.476   6.686  1.7105  0.0428  0.4415
  186SLPC   H2S21389   4.481   2.643   6.736 -0.5354  1.2499  1.1521
  186SLPC    C321390   3.989   2.357   6.663 -0.0016  0.2681 -0.2500
  186SLPC    HX21391   4.034   2.289   6.588 -1.3070  0.2199 -1.0111
  186SLPC    HY21392   3.885   2.381   6.634 -0.1758  0.8849  0.8471
  186SLPC   O3121393   3.979   2.300   6.799 -0.3324 -0.2172  0.0433
  186SLPC   C3121394   4.010   2.181   6.825 -0.1653  0.4210  0.0221
  186SLPC   O3221395   4.028   2.094   6.739 -0.1349  0.3110 -0.7830
  186SLPC   C3221396   4.030   2.142   6.977  0.2688 -0.1923  0.6370
  186SLPC   H2X21397   4.128   2.092   6.993 -0.1601 -1.2102  0.1668
  186SLPC   H2Y21398   3.953   2.065   7.000 -0.1567 -0.2694 -0.9097
  186SLPC   C2321399   4.434   2.506   6.900 -0.3464 -0.3556 -0.0021
  186SLPC   H3R21400   4.540   2.476   6.905  0.2275  1.3238 -1.1592
  186SLPC   H3S21401   4.374   2.418   6.930 -0.0440  0.6440  4.0731
  186SLPC   C2421402   4.412   2.610   7.012 -0.1038 -0.4098  0.2320
  186SLPC   H4R21403   4.303   2.630   7.013  0.2606  1.9352 -1.4249
  186SLPC   H4S21404   4.471   2.700   6.986  3.1172 -2.0988  1.1010
  186SLPC   C2521405   4.455   2.552   7.152 -0.0770  1.1502  0.0693
  186SLPC   H5R21406   4.565   2.549   7.165 -0.0453 -0.0851 -0.3142
  186SLPC   H5S21407   4.426   2.445   7.160  1.7538  0.6349  0.2846
  186SLPC   C2621408   4.383   2.628   7.267  0.2443  0.3868 -0.5400
  186SLPC   H6R21409   4.377   2.565   7.358 -1.4867 -0.4967 -1.2221
  186SLPC   H6S21410   4.280   2.647   7.230  0.1101 -1.2303 -1.0481
  186SLPC   C2721411   4.441   2.766   7.297 -0.6299  0.2655  0.2558
  186SLPC   H7R21412   4.465   2.807   7.196 -1.1135 -0.4520 -0.1639
  186SLPC   H7S21413   4.532   2.749   7.358 -0.1526  4.0831  0.8323
  186SLPC   C2821414   4.352   2.850   7.388 -0.4312  0.4019  0.2061
  186SLPC   H8R21415   4.355   2.796   7.485 -2.0377  0.2153  0.1801
  186SLPC   H8S21416   4.245   2.841   7.360 -0.2806 -2.6976  0.3098
  186SLPC   C2921417   4.401   2.997   7.396  0.4438  0.1776  0.0031
  186SLPC   H9R21418   4.424   3.042   7.298  2.3394  1.3796  0.9298
  186SLPC  C21021419   4.438   3.061   7.514 -0.1016 -0.8664 -0.4130
  186SLPC  H10R21420   4.481   3.162   7.509 -1.7987 -0.0827  0.1879
  186SLPC  C21121421   4.416   3.006   7.652 -0.0301  0.3341  0.1136
  186SLPC  H11R21422   4.335   2.930   7.644  0.2549  0.1672 -1.3149
  186SLPC  H11S21423   4.376   3.080   7.725 -0.2412 -0.9878  1.3864
  186SLPC  C21221424   4.536   2.931   7.714 -0.2252  0.4629  0.0541
  186SLPC  H12R21425   4.605   2.901   7.633  1.0899  3.3510 -0.0235
  186SLPC  C21321426   4.542   2.904   7.843 -0.6395  0.2006  0.8461
  186SLPC  H13R21427   4.624   2.842   7.882 -0.5510 -0.7018 -0.7159
  186SLPC  C21421428   4.445   2.949   7.951 -0.0733 -0.7013  0.0190
  186SLPC  H14R21429   4.383   2.863   7.982  0.8343 -2.2178 -2.1420
  186SLPC  H14S21430   4.372   3.023   7.911 -0.2056 -1.6428 -1.5744
  186SLPC  C21521431   4.505   3.031   8.068 -0.3142 -0.6600  0.3313
  186SLPC  H15R21432   4.415   3.075   8.115 -2.0143 -1.4103 -2.0088
  186SLPC  H15S21433   4.592   3.097   8.048  0.2695 -1.5706 -0.1940
  186SLPC  C21621434   4.564   2.925   8.169 -0.1170 -0.0613  0.0372
  186SLPC  H16R21435   4.647   2.866   8.125  0.3874  0.7380 -0.1117
  186SLPC  H16S21436   4.483   2.861   8.209 -1.8778  2.2336  0.3478
  186SLPC  C21721437   4.620   2.989   8.297  0.0061  0.4099  0.4472
  186SLPC  H17R21438   4.662   2.917   8.371 -2.1527 -1.1122  0.2870
  186SLPC  H17S21439   4.538   3.049   8.341 -1.2027 -0.4360 -0.5897
  186SLPC  C21821440   4.733   3.080   8.267  0.4565 -0.1929 -0.3704
  186SLPC  H18R21441   4.818   3.037   8.209  0.3222  0.0923 -0.7794
  186SLPC  H18S21442   4.762   3.121   8.366  1.6252 -0.2783 -0.6679
  186SLPC  H18T21443   4.705   3.172   8.212  2.2817  2.4912  2.8222
  186SLPC   C3321444   4.021   2.268   7.073  0.1138 -0.2735 -0.3621
  186SLPC   H3X21445   3.919   2.309   7.088  0.6072  0.8483  0.0693
  186SLPC   H3Y21446   4.083   2.343   7.019 -0.0753 -0.6590 -1.1210
  186SLPC   C3421447   4.068   2.239   7.215  0.3155 -0.2988  0.0423
  186SLPC   H4X21448   4.091   2.332   7.273  1.6988 -2.1953  2.7574
  186SLPC   H4Y21449   4.154   2.169   7.211 -1.2067 -2.3440  1.1816
  186SLPC   C3521450   3.980   2.150   7.303  0.2475 -0.2566  0.1293
  186SLPC   H5X21451   4.020   2.046   7.304  3.4540  0.7989 -1.7805
  186SLPC   H5Y21452   3.882   2.133   7.255 -0.0024  0.5439  0.3499
  186SLPC   C3621453   3.957   2.192   7.453  1.2004  0.1286 -0.5163
  186SLPC   H6X21454   3.877   2.125   7.492 -1.5379  3.2754 -0.2818
  186SLPC   H6Y21455   3.907   2.290   7.463 -1.0051 -1.0671  1.2432
  186SLPC   C3721456   4.078   2.194   7.537 -0.1516  0.8246  0.5145
  186SLPC   H7X21457   4.143   2.280   7.509  1.7975 -0.5520  0.6301
  186SLPC   H7Y21458   4.143   2.109   7.509 -2.1480 -1.0205  1.2118
  186SLPC   C3821459   4.052   2.180   7.685 -0.5454  0.2846 -0.7444
  186SLPC   H8X21460   4.145   2.143   7.731 -2.3993 -0.0948  3.0848
  186SLPC   H8Y21461   3.973   2.102   7.692 -1.4476  1.1192 -1.2148
  186SLPC   C3921462   4.003   2.300   7.765  0.0430 -0.9436 -0.2856
  186SLPC   H9X21463   3.928   2.358   7.707  0.2463  0.2542  0.6270
  186SLPC   H9Y21464   4.085   2.375   7.770 -0.5654 -0.3240  0.7282
  186SLPC  C31021465   3.958   2.276   7.908 -0.3480  0.1878 -1.1076
  186SLPC  H10X21466   3.856   2.231   7.906 -0.6109  0.5988  0.9310
  186SLPC  H10Y21467   3.959   2.377   7.953 -2.1155  0.6138 -1.9354
  186SLPC  C31121468   4.068   2.193   7.985 -0.2095 -0.4023 -0.3417
  186SLPC  H11X21469   4.168   2.240   7.981  0.2627 -1.3429 -0.0613
  186SLPC  H11Y21470   4.075   2.087   7.951  1.3148 -0.4880  0.1733
  186SLPC  C31221471   4.033   2.198   8.137  0.8186 -0.5447  0.1728
  186SLPC  H12X21472   3.923   2.192   8.150  0.9149  1.1695  2.3031
  186SLPC  H12Y21473   4.050   2.301   8.174  3.7663  0.4796 -3.4347
  186SLPC  C31321474   4.074   2.093   8.234 -0.1226 -0.2283 -0.1712
  186SLPC  H13X21475   4.068   2.001   8.172  0.8191 -0.8109  0.5833
  186SLPC  H13Y21476   3.991   2.077   8.307  0.1013  1.1737  0.4368
  186SLPC  C31421477   4.208   2.113   8.306  0.2948  0.3468  0.6159
  186SLPC  H14X21478   4.282   2.090   8.226 -1.3943 -2.5784 -0.2398
  186SLPC  H14Y21479   4.230   2.028   8.373  3.5769 -2.3477 -3.3648
  186SLPC  C31521480   4.244   2.247   8.360  0.5031  0.3234  0.0944
  186SLPC  H15X21481   4.150   2.285   8.407 -0.2024 -0.3293 -0.7472
  186SLPC  H15Y21482   4.261   2.320   8.278 -1.2588  0.9193  0.2014
  186SLPC  C31621483   4.352   2.235   8.466  0.5209  0.4666  0.5227
  186SLPC  H16X21484   4.436   2.190   8.410 -0.2867 -0.4150 -0.0223
  186SLPC  H16Y21485   4.333   2.158   8.543 -0.4881 -1.4528 -1.5112
  186SLPC  C31721486   4.393   2.364   8.534  0.6010 -0.2995 -0.8079
  186SLPC  H17X21487   4.463   2.341   8.618  0.5638  0.8228 -0.4566
  186SLPC  H17Y21488   4.309   2.410   8.590  0.6811 -2.1871  0.9914
  186SLPC  C31821489   4.467   2.457   8.442  0.2724  0.5925  0.0987
  186SLPC  H18X21490   4.551   2.505   8.497  2.5473 -0.2926 -2.3447
  186SLPC  H18Y21491   4.400   2.536   8.400 -0.8776 -0.1640  0.4775
  186SLPC  H18Z21492   4.515   2.399   8.360  0.0081  0.3160  0.1406
  187SLPC     N21493   6.310   3.073   6.607  0.0473 -0.3078 -0.2404
  187SLPC   C1321494   6.432   3.144   6.553  0.1479  0.4293  0.3987
  187SLPC  H13A21495   6.502   3.068   6.522  0.4011  1.4649 -1.7455
  187SLPC  H13B21496   6.416   3.202   6.464  0.0859  0.8812  0.7002
  187SLPC  H13C21497   6.484   3.196   6.633  0.5820 -1.0784  1.1319
  187SLPC   C1421498   6.346   2.983   6.715 -0.1399  0.0645 -0.3111
  187SLPC  H14A21499   6.260   2.931   6.756 -1.3775  2.7720  0.7909
  187SLPC  H14B21500   6.421   2.919   6.672  0.7844  1.4919 -0.9079
  187SLPC  H14C21501   6.388   3.044   6.793 -2.6223  1.6659 -0.0910
  187SLPC   C1521502   6.228   3.001   6.503  0.3271  0.0661 -0.3513
  187SLPC  H15A21503   6.188   3.075   6.436 -1.0971 -1.7009 -1.5423
  187SLPC  H15B21504   6.282   2.926   6.447  0.0370  0.6683 -1.4584
  187SLPC  H15C21505   6.145   2.947   6.546  1.3494  0.2143  1.9632
  187SLPC   C1221506   6.215   3.187   6.667 -0.7120  0.4373  0.1674
  187SLPC  H12A21507   6.126   3.146   6.712  1.7095 -2.6415  2.5850
  187SLPC  H12B21508   6.169   3.241   6.586 -1.2329 -0.0610  0.1224
  187SLPC   C1121509   6.270   3.284   6.776 -0.3509 -0.1780 -0.2544
  187SLPC  H11A21510   6.314   3.233   6.864  0.6164 -0.3164 -0.8043
  187SLPC  H11B21511   6.176   3.334   6.808 -0.2951  1.7124 -2.7260
  187SLPC     P21512   6.309   3.509   6.650  0.2493  0.1519 -0.5478
  187SLPC   O1321513   6.410   3.604   6.601  0.0532 -0.3472 -0.0824
  187SLPC   O1421514   6.213   3.464   6.553 -0.2848 -0.4176 -0.0107
  187SLPC   O1221515   6.370   3.379   6.725 -0.3901  0.3036 -0.3504
  187SLPC   O1121516   6.214   3.587   6.758  0.2529  0.2321 -0.5151
  187SLPC    C121517   6.248   3.594   6.894  0.3766 -0.6672  0.3670
  187SLPC    HA21518   6.156   3.605   6.956  0.5219  1.8637  0.2171
  187SLPC    HB21519   6.307   3.505   6.923  2.1549 -0.1852 -1.5729
  187SLPC    C221520   6.334   3.720   6.927 -0.4827 -0.2532  0.1841
  187SLPC    HS21521   6.437   3.696   6.892 -0.8463 -0.5291 -0.7171
  187SLPC   O2121522   6.324   3.741   7.069  0.1682  0.3146  0.3735
  187SLPC   C2121523   6.419   3.688   7.144  0.4647  0.3779 -0.9182
  187SLPC   O2221524   6.516   3.631   7.104 -0.2008 -0.2913 -0.6150
  187SLPC   C2221525   6.384   3.718   7.296 -0.4000  0.4699  1.0006
  187SLPC   H2R21526   6.299   3.651   7.322 -0.7444 -0.6304 -2.4619
  187SLPC   H2S21527   6.475   3.673   7.342  0.8590  0.1317 -1.6320
  187SLPC    C321528   6.279   3.845   6.845 -0.9401 -0.2036  0.5622
  187SLPC    HX21529   6.174   3.852   6.881 -1.7026 -2.4356 -1.0354
  187SLPC    HY21530   6.285   3.822   6.736  1.0893 -1.0501  0.8185
  187SLPC   O3121531   6.351   3.964   6.883  0.0828  0.7843  0.0063
  187SLPC   C3121532   6.473   3.987   6.829  0.3496 -0.3852  0.1126
  187SLPC   O3221533   6.533   3.921   6.749  0.6887 -0.1654  0.0179
  187SLPC   C3221534   6.537   4.105   6.905 -0.2224 -0.6951  0.2713
  187SLPC   H2X21535   6.473   4.152   6.983 -1.3283  1.3796 -1.7365
  187SLPC   H2Y21536   6.561   4.188   6.834 -0.2878 -0.5779  0.3845
  187SLPC   C2321537   6.359   3.870   7.324  0.0258 -0.2442 -0.8151
  187SLPC   H3R21538   6.284   3.919   7.257  0.3689  0.5064 -0.6631
  187SLPC   H3S21539   6.451   3.933   7.318 -1.0607  1.5292  0.2782
  187SLPC   C2421540   6.314   3.889   7.468  0.7139  0.1800  0.0693
  187SLPC   H4R21541   6.224   3.829   7.494  0.3864 -0.1427 -1.6923
  187SLPC   H4S21542   6.289   3.996   7.481 -2.6873 -0.5246  0.4021
  187SLPC   C2521543   6.430   3.859   7.566  0.8774 -0.0175 -0.0630
  187SLPC   H5R21544   6.529   3.903   7.541  0.6846  0.1942 -0.4733
  187SLPC   H5S21545   6.441   3.749   7.576 -0.7821 -0.2792 -0.7541
  187SLPC   C2621546   6.371   3.895   7.701 -0.5209 -0.6614 -0.3409
  187SLPC   H6R21547   6.261   3.884   7.692 -0.2367 -2.2002 -3.2568
  187SLPC   H6S21548   6.393   3.998   7.737  1.3770 -1.3091  0.5150
  187SLPC   C2721549   6.420   3.789   7.806  0.3256 -0.0467  1.0289
  187SLPC   H7R21550   6.530   3.778   7.798  0.3463 -0.3141  1.5992
  187SLPC   H7S21551   6.379   3.686   7.793  0.9853 -0.4221  1.8200
  187SLPC   C2821552   6.387   3.814   7.958 -0.1775  0.2679  0.6876
  187SLPC   H8R21553   6.422   3.723   8.011  0.9838  0.1097 -0.2936
  187SLPC   H8S21554   6.279   3.838   7.962  0.0501  1.5523 -0.1464
  187SLPC   C2921555   6.460   3.940   7.998  0.1591 -0.1706 -0.3545
  187SLPC   H9R21556   6.481   4.020   7.926  0.3573 -0.1606 -0.2849
  187SLPC  C21021557   6.511   3.961   8.125 -0.4523 -0.1180  0.6182
  187SLPC  H10R21558   6.567   4.053   8.151 -1.4513  0.8076 -0.3772
  187SLPC  C21121559   6.498   3.870   8.246 -0.1774  0.0609  0.4056
  187SLPC  H11R21560   6.395   3.828   8.248 -0.3653  0.5277  0.6384
  187SLPC  H11S21561   6.530   3.922   8.338  2.8519 -2.3089  0.8507
  187SLPC  C21221562   6.578   3.742   8.243  0.1230 -0.6751  1.2062
  187SLPC  H12R21563   6.632   3.732   8.148 -0.3131  0.7478  0.7806
  187SLPC  C21321564   6.583   3.646   8.335  0.3088 -0.7210 -0.3125
  187SLPC  H13R21565   6.640   3.553   8.319 -0.2681 -0.9599 -1.0541
  187SLPC  C21421566   6.513   3.648   8.474  0.6540 -0.9608  0.5714
  187SLPC  H14R21567   6.444   3.561   8.472  1.1286 -1.3516 -1.5322
  187SLPC  H14S21568   6.457   3.743   8.487 -1.4421 -2.0412 -0.1844
  187SLPC  C21521569   6.605   3.649   8.604  0.2489 -0.4788  0.0890
  187SLPC  H15R21570   6.658   3.746   8.606 -0.1605 -0.2400 -0.4110
  187SLPC  H15S21571   6.680   3.566   8.604  1.3799  0.4989  1.3278
  187SLPC  C21621572   6.527   3.641   8.734 -0.2212 -0.1593  0.1825
  187SLPC  H16R21573   6.500   3.535   8.751 -1.5890 -0.0313 -1.0686
  187SLPC  H16S21574   6.433   3.700   8.725 -0.3336 -0.1644  1.2050
  187SLPC  C21721575   6.606   3.684   8.860 -0.3196 -0.4197 -0.0213
  187SLPC  H17R21576   6.534   3.694   8.944  1.0528  0.5727  1.0839
  187SLPC  H17S21577   6.654   3.783   8.847  1.2796 -1.1435  0.1338
  187SLPC  C21821578   6.727   3.594   8.891 -0.2792  0.0982 -0.4598
  187SLPC  H18R21579   6.796   3.618   8.807  0.7557  5.0770  1.4132
  187SLPC  H18S21580   6.710   3.486   8.905  1.5075 -0.1150  0.3493
  187SLPC  H18T21581   6.773   3.636   8.983  2.7841 -2.3519 -0.7119
  187SLPC   C3321582   6.678   4.068   6.968  0.3636 -0.3806 -0.0360
  187SLPC   H3X21583   6.722   4.161   7.008  0.9531 -0.6633 -0.0121
  187SLPC   H3Y21584   6.740   4.028   6.885  0.2329  0.0832 -0.3566
  187SLPC   C3421585   6.668   3.967   7.086  0.1997  0.0131 -0.8016
  187SLPC   H4X21586   6.662   3.864   7.046  2.2448 -0.4967  0.0937
  187SLPC   H4Y21587   6.571   3.980   7.139  0.3501  1.2949 -0.8035
  187SLPC   C3521588   6.785   3.963   7.193 -0.3864  0.8960 -0.4771
  187SLPC   H5X21589   6.768   4.060   7.244 -1.9622 -0.6051  2.0925
  187SLPC   H5Y21590   6.886   3.948   7.149  0.5638  0.3062  1.7479
  187SLPC   C3621591   6.746   3.856   7.297  0.0790  0.6386 -0.1942
  187SLPC   H6X21592   6.809   3.768   7.273 -0.3072 -0.0549  1.2527
  187SLPC   H6Y21593   6.638   3.832   7.287  0.7709 -2.1930 -1.9482
  187SLPC   C3721594   6.766   3.894   7.446  0.6787  0.7918 -0.1301
  187SLPC   H7X21595   6.700   3.983   7.451  0.5368  0.7964 -1.7283
  187SLPC   H7Y21596   6.733   3.808   7.508  1.8299  0.9396  0.7096
  187SLPC   C3821597   6.913   3.941   7.474  0.3372  0.1748 -0.2183
  187SLPC   H8X21598   6.939   4.034   7.421 -0.8410  0.5686 -0.1344
  187SLPC   H8Y21599   6.983   3.861   7.441  1.0901  1.4809 -1.9253
  187SLPC   C3921600   6.932   3.975   7.626  0.2484  0.3222 -0.0350
  187SLPC   H9X21601   7.038   4.001   7.649  0.5969 -3.0043  2.8709
  187SLPC   H9Y21602   6.924   3.879   7.680  2.7998  1.9570  3.7002
  187SLPC  C31021603   6.847   4.089   7.682  0.3073 -0.1226  0.1908
  187SLPC  H10X21604   6.744   4.054   7.702  0.4524 -0.2177  0.7940
  187SLPC  H10Y21605   6.844   4.167   7.603  1.7002 -0.9234 -0.7096
  187SLPC  C31121606   6.910   4.145   7.809 -0.1133 -0.1310 -0.3654
  187SLPC  H11X21607   6.862   4.243   7.830  0.1712 -0.4122  1.7361
  187SLPC  H11Y21608   7.014   4.173   7.784  0.2390 -2.5558 -1.9550
  187SLPC  C31221609   6.918   4.057   7.939 -0.0156 -0.2083  0.5971
  187SLPC  H12X21610   6.961   3.958   7.910 -1.9443 -1.2406  1.0428
  187SLPC  H12Y21611   6.821   4.031   7.986 -0.3170  0.1119  0.1608
  187SLPC  C31321612   6.994   4.119   8.060 -0.4913 -0.0941 -0.1824
  187SLPC  H13X21613   7.090   4.164   8.027 -0.6374  0.0705 -0.3826
  187SLPC  H13Y21614   7.020   4.031   8.123  1.4458 -0.8630 -1.9564
  187SLPC  C31421615   6.920   4.222   8.144  0.1568 -0.6439  0.9242
  187SLPC  H14X21616   6.821   4.173   8.154 -1.5702  1.8694 -1.8598
  187SLPC  H14Y21617   6.886   4.310   8.084  1.4388 -0.8976 -0.2174
  187SLPC  C31521618   6.980   4.269   8.275  0.2587  0.1450 -0.3133
  187SLPC  H15X21619   6.907   4.326   8.335 -1.3854 -1.3499 -0.8241
  187SLPC  H15Y21620   7.051   4.352   8.253 -0.0927  0.1701 -1.4371
  187SLPC  C31621621   7.052   4.157   8.357  0.0650  0.3182 -0.2529
  187SLPC  H16X21622   7.133   4.124   8.288 -0.1904  0.6584 -0.7269
  187SLPC  H16Y21623   6.975   4.078   8.364 -2.4108  2.3380 -2.6171
  187SLPC  C31721624   7.108   4.194   8.493  0.3351  0.3341 -0.5807
  187SLPC  H17X21625   7.146   4.298   8.494 -1.9438  1.2245  0.6979
  187SLPC  H17Y21626   7.187   4.121   8.522  1.1431  0.1479 -3.0236
  187SLPC  C31821627   6.995   4.187   8.592 -0.2313  0.0974 -0.2363
  187SLPC  H18X21628   6.915   4.250   8.548  1.1668  1.7662 -0.5203
  187SLPC  H18Y21629   7.007   4.243   8.688 -1.7088  1.2082 -0.6753
  187SLPC  H18Z21630   6.959   4.086   8.618 -0.0891  0.1323  0.1133
  188SLPC     N21631   5.351   6.287   6.129 -0.7867  0.0369  0.6953
  188SLPC   C1321632   5.483   6.351   6.146  0.7348  0.5613 -1.0992
  188SLPC  H13A21633   5.553   6.279   6.187  0.0711  0.4102 -0.2104
  188SLPC  H13B21634   5.521   6.392   6.054  2.6958  2.9636  0.6295
  188SLPC  H13C21635   5.474   6.430   6.219  1.5974 -0.0582 -0.2995
  188SLPC   C1421636   5.363   6.176   6.033 -0.2425 -0.0406  0.3186
  188SLPC  H14A21637   5.447   6.113   6.058 -1.1329 -1.0986  0.8026
  188SLPC  H14B21638   5.276   6.111   6.033 -0.7518  0.6215 -0.2506
  188SLPC  H14C21639   5.369   6.215   5.933 -2.0156  2.2259  1.0128
  188SLPC   C1521640   5.254   6.389   6.075  0.4638 -0.3882 -0.1079
  188SLPC  H15A21641   5.207   6.439   6.158 -0.2078 -0.1066 -0.6415
  188SLPC  H15B21642   5.299   6.460   6.007 -1.8796  0.7252 -0.6195
  188SLPC  H15C21643   5.169   6.352   6.019  0.8631  1.0216 -1.7416
  188SLPC   C1221644   5.311   6.236   6.265 -0.2228 -0.1360 -0.0016
  188SLPC  H12A21645   5.374   6.152   6.289  1.6838  1.7085  2.0285
  188SLPC  H12B21646   5.211   6.197   6.256  0.0800 -1.1352  0.7970
  188SLPC   C1121647   5.306   6.330   6.389 -0.3744 -0.2927 -0.0825
  188SLPC  H11A21648   5.400   6.389   6.386 -0.6250  0.1484  0.5290
  188SLPC  H11B21649   5.305   6.281   6.489 -3.2562 -1.4973 -0.6095
  188SLPC     P21650   5.049   6.365   6.429  0.8050 -0.5109 -0.3744
  188SLPC   O1321651   4.941   6.452   6.387 -0.5504 -0.5608 -0.4814
  188SLPC   O1421652   5.039   6.218   6.414 -0.1057  0.1768  0.4364
  188SLPC   O1221653   5.192   6.415   6.376 -0.0975 -0.1316 -0.1431
  188SLPC   O1121654   5.067   6.399   6.580 -0.4552  0.7682 -0.2578
  188SLPC    C121655   5.004   6.498   6.659 -0.3895  0.2058  0.3242
  188SLPC    HA21656   4.897   6.507   6.630 -0.4813 -3.0000 -0.6945
  188SLPC    HB21657   4.986   6.469   6.765 -1.2029 -0.4719  0.0123
  188SLPC    C221658   5.076   6.632   6.646 -0.0714  0.2215 -0.3750
  188SLPC    HS21659   5.078   6.659   6.538  0.7521 -1.0165 -0.7059
  188SLPC   O2121660   5.209   6.607   6.686  0.3113  0.1447  0.0188
  188SLPC   C2121661   5.299   6.690   6.627  0.7496  0.3765  0.4037
  188SLPC   O2221662   5.269   6.794   6.572 -0.1312  0.1261  0.3215
  188SLPC   C2221663   5.438   6.638   6.651 -0.4505 -0.4156 -0.5845
  188SLPC   H2R21664   5.441   6.594   6.752 -1.6133  1.6729  0.4287
  188SLPC   H2S21665   5.462   6.558   6.578 -1.1511 -0.9118 -0.2734
  188SLPC    C321666   5.015   6.752   6.731 -0.3949  0.2373  0.0512
  188SLPC    HX21667   4.908   6.743   6.705  0.3944 -1.3944 -2.9997
  188SLPC    HY21668   5.041   6.849   6.684  0.6515  0.4401  1.0029
  188SLPC   O3121669   5.024   6.732   6.874 -0.2615  0.1515 -0.4534
  188SLPC   C3121670   5.128   6.792   6.931 -0.0357  0.8576  0.5167
  188SLPC   O3221671   5.217   6.861   6.885  0.1386 -0.3395 -0.1930
  188SLPC   C3221672   5.119   6.742   7.078 -0.0362 -0.2887  0.4798
  188SLPC   H2X21673   5.106   6.632   7.070 -1.4928 -0.0219 -2.8145
  188SLPC   H2Y21674   5.019   6.775   7.115 -0.3644 -2.2312  1.4471
  188SLPC   C2321675   5.549   6.751   6.656  0.0318  0.1195  0.6268
  188SLPC   H3R21676   5.520   6.838   6.719 -0.5785  0.6472 -0.3493
  188SLPC   H3S21677   5.555   6.801   6.556  1.5577  0.7761  1.0128
  188SLPC   C2421678   5.690   6.698   6.681  0.4351  0.6499  0.0796
  188SLPC   H4R21679   5.757   6.783   6.658  0.6126  0.3939 -0.3611
  188SLPC   H4S21680   5.717   6.621   6.605 -0.7392  1.0368 -0.7613
  188SLPC   C2521681   5.712   6.651   6.824 -0.3539 -0.3506 -0.7674
  188SLPC   H5R21682   5.818   6.619   6.835 -0.2796  0.0076 -0.4261
  188SLPC   H5S21683   5.647   6.563   6.844 -0.8841  0.4426  1.3098
  188SLPC   C2621684   5.671   6.756   6.927  0.0266 -0.0991 -1.1521
  188SLPC   H6R21685   5.566   6.790   6.915 -0.6530 -2.3563 -2.1757
  188SLPC   H6S21686   5.730   6.850   6.921 -0.5213  0.1329 -3.9315
  188SLPC   C2721687   5.684   6.687   7.070 -1.0193  0.0737 -0.3270
  188SLPC   H7R21688   5.745   6.595   7.081  1.5358  1.5552 -1.4604
  188SLPC   H7S21689   5.579   6.655   7.089 -1.3508  0.0332 -2.0918
  188SLPC   C2821690   5.736   6.785   7.183  0.3826 -0.1755 -0.3236
  188SLPC   H8R21691   5.846   6.786   7.167  0.8116  1.2331  2.2553
  188SLPC   H8S21692   5.721   6.737   7.282  2.4239  1.3619  0.8075
  188SLPC   C2921693   5.676   6.924   7.187  0.2351 -0.3271  0.2736
  188SLPC   H9R21694   5.668   6.976   7.091  2.1678 -1.6470 -0.6447
  188SLPC  C21021695   5.635   6.995   7.293 -0.0368  0.6110 -0.0931
  188SLPC  H10R21696   5.603   7.099   7.277 -0.4725  0.4787 -0.1142
  188SLPC  C21121697   5.644   6.945   7.438  0.0733 -0.1639  0.5262
  188SLPC  H11R21698   5.655   6.835   7.438 -0.1897 -0.1988 -0.9030
  188SLPC  H11S21699   5.549   6.977   7.487  0.3028 -1.8007  2.1736
  188SLPC  C21221700   5.765   7.008   7.506  0.7136  0.0139 -0.2168
  188SLPC  H12R21701   5.790   7.106   7.463 -0.6317 -0.8945 -3.4242
  188SLPC  C21321702   5.841   6.955   7.603  0.5154 -0.5267 -0.6679
  188SLPC  H13R21703   5.928   7.010   7.643  1.0315 -0.4571 -1.8598
  188SLPC  C21421704   5.831   6.821   7.672 -0.1400 -0.4298 -0.1476
  188SLPC  H14R21705   5.932   6.776   7.673  0.8676  1.7017  0.9875
  188SLPC  H14S21706   5.765   6.751   7.617  0.1366 -1.0884  0.3529
  188SLPC  C21521707   5.788   6.810   7.823 -0.8860 -0.1328  0.2462
  188SLPC  H15R21708   5.766   6.702   7.839 -1.5229 -0.1962 -0.9356
  188SLPC  H15S21709   5.691   6.857   7.850 -1.0289 -0.1540 -0.2217
  188SLPC  C21621710   5.899   6.844   7.923  0.6495  0.4929 -0.3387
  188SLPC  H16R21711   5.930   6.948   7.897 -0.3231  0.9467  0.2569
  188SLPC  H16S21712   5.982   6.771   7.910  1.3350  0.2349  3.9819
  188SLPC  C21721713   5.857   6.819   8.067 -0.4788 -0.6344 -0.1855
  188SLPC  H17R21714   5.776   6.891   8.088  0.7893  0.7477  0.1330
  188SLPC  H17S21715   5.936   6.847   8.140 -1.8704  0.4428  0.9579
  188SLPC  C21821716   5.821   6.675   8.119 -0.5854  0.8323  0.4296
  188SLPC  H18R21717   5.913   6.614   8.103  0.3216  1.2666  3.4329
  188SLPC  H18S21718   5.744   6.620   8.061 -1.1001 -0.0486  1.8958
  188SLPC  H18T21719   5.803   6.676   8.228  4.3378  3.4697  1.5375
  188SLPC   C3321720   5.235   6.793   7.161  0.2952  0.0881  0.1466
  188SLPC   H3X21721   5.246   6.902   7.139 -1.9010  0.7124  1.7703
  188SLPC   H3Y21722   5.327   6.742   7.126 -0.4011 -0.9168 -0.2421
  188SLPC   C3421723   5.215   6.771   7.315  0.1584 -0.0185 -0.8884
  188SLPC   H4X21724   5.226   6.663   7.337  2.7645  0.5176  0.8472
  188SLPC   H4Y21725   5.119   6.814   7.349  1.5247  0.4024  2.8844
  188SLPC   C3521726   5.328   6.836   7.396  0.1999 -0.3909 -0.9629
  188SLPC   H5X21727   5.338   6.939   7.356  3.6265 -1.0876 -2.2386
  188SLPC   H5Y21728   5.428   6.793   7.374  1.4362  3.0220 -2.7453
  188SLPC   C3621729   5.297   6.834   7.549 -0.0156  0.2214 -0.9737
  188SLPC   H6X21730   5.206   6.897   7.558 -0.0022  0.5039 -2.4535
  188SLPC   H6Y21731   5.377   6.884   7.607 -1.0308  0.8053 -0.0274
  188SLPC   C3721732   5.280   6.692   7.612  0.0595  0.5565 -0.0363
  188SLPC   H7X21733   5.188   6.659   7.558  0.0630 -0.6050  0.6543
  188SLPC   H7Y21734   5.257   6.700   7.720 -1.9657  0.2711 -0.3927
  188SLPC   C3821735   5.398   6.603   7.584 -0.4907  0.0245  0.4024
  188SLPC   H8X21736   5.490   6.662   7.602 -0.6062  0.1412  0.6193
  188SLPC   H8Y21737   5.387   6.574   7.477 -2.2390 -0.3906  0.6564
  188SLPC   C3921738   5.411   6.487   7.677  0.6736 -0.0270  0.8452
  188SLPC   H9X21739   5.502   6.429   7.652  0.8823 -0.2344  1.9870
  188SLPC   H9Y21740   5.326   6.416   7.671  0.7254 -0.0160 -0.0959
  188SLPC  C31021741   5.440   6.512   7.824 -0.5918 -0.1746  0.1325
  188SLPC  H10X21742   5.354   6.571   7.863  0.2301  0.7382  0.6064
  188SLPC  H10Y21743   5.530   6.577   7.825  0.0320 -1.0234  1.1911
  188SLPC  C31121744   5.463   6.372   7.880 -0.5698  0.3770  0.3341
  188SLPC  H11X21745   5.525   6.305   7.817  3.2415  1.6267  2.4090
  188SLPC  H11Y21746   5.368   6.315   7.890  0.8291 -2.3149 -0.6111
  188SLPC  C31221747   5.528   6.382   8.014 -1.2351 -0.2131 -0.6083
  188SLPC  H12X21748   5.622   6.437   7.989 -0.4248 -1.4925 -0.4815
  188SLPC  H12Y21749   5.554   6.282   8.055  0.3580  0.5225  0.3074
  188SLPC  C31321750   5.460   6.449   8.135  0.1050 -0.3028 -0.1375
  188SLPC  H13X21751   5.371   6.385   8.155 -0.4354  0.6502  0.6111
  188SLPC  H13Y21752   5.419   6.548   8.105 -1.0278 -0.6650  0.1755
  188SLPC  C31421753   5.535   6.454   8.273  0.4381  0.4200  0.0792
  188SLPC  H14X21754   5.502   6.545   8.328 -0.7364  1.9170 -2.8486
  188SLPC  H14Y21755   5.644   6.467   8.255  0.5604  1.4359  1.3925
  188SLPC  C31521756   5.501   6.325   8.354  0.6223  0.1891  0.3213
  188SLPC  H15X21757   5.544   6.243   8.293  0.2071 -0.4876  0.9239
  188SLPC  H15Y21758   5.392   6.312   8.364  0.8243 -0.6702  1.7821
  188SLPC  C31621759   5.573   6.313   8.492  0.5138 -0.1509  0.6549
  188SLPC  H16X21760   5.554   6.207   8.516  0.0146 -0.7860 -2.2479
  188SLPC  H16Y21761   5.520   6.369   8.573 -4.5722 -0.9803 -1.7180
  188SLPC  C31721762   5.722   6.360   8.491  0.0755 -0.3437  0.2338
  188SLPC  H17X21763   5.719   6.462   8.448  0.7471 -0.2211  0.4724
  188SLPC  H17Y21764   5.763   6.296   8.410  1.3975  0.4403  0.2561
  188SLPC  C31821765   5.805   6.356   8.619  0.2621  0.2680 -1.0484
  188SLPC  H18X21766   5.848   6.254   8.624  0.8313  0.4075 -2.5122
  188SLPC  H18Y21767   5.742   6.375   8.708 -0.9595  0.4271 -1.9217
  188SLPC  H18Z21768   5.894   6.422   8.630 -0.6823  1.4502 -0.2828
  189SLPC     N21769   0.912   1.022   5.898  0.4248 -0.5184  0.3918
  189SLPC   C1321770   0.883   0.883   5.854 -0.2316  0.6927  0.5280
  189SLPC  H13A21771   0.964   0.844   5.794 -1.6903  0.5470 -1.4496
  189SLPC  H13B21772   0.867   0.825   5.943 -1.1650 -2.9559 -1.7970
  189SLPC  H13C21773   0.788   0.881   5.802  0.3863 -0.7160 -0.6192
  189SLPC   C1421774   0.929   1.102   5.771  0.5358 -0.6778 -0.6556
  189SLPC  H14A21775   0.843   1.119   5.708  0.6469  3.0541 -0.0035
  189SLPC  H14B21776   0.948   1.204   5.800  1.6164 -0.8598 -0.6919
  189SLPC  H14C21777   1.005   1.068   5.703  0.6029  0.0444 -0.9531
  189SLPC   C1521778   1.037   1.034   5.978 -0.1311  0.1513  0.1032
  189SLPC  H15A21779   1.069   1.136   5.988  0.3824  0.3276 -2.6544
  189SLPC  H15B21780   1.023   0.989   6.076  0.1912  0.7722  0.4403
  189SLPC  H15C21781   1.120   0.986   5.929  0.0640 -0.3577  0.9023
  189SLPC   C1221782   0.793   1.078   5.977  0.7128 -0.2674  0.0697
  189SLPC  H12A21783   0.701   1.070   5.921  0.0451 -0.4443  1.1650
  189SLPC  H12B21784   0.801   1.185   5.978 -1.5251  0.0321  3.7248
  189SLPC   C1121785   0.764   1.020   6.118  0.0883 -0.2001  0.3215
  189SLPC  H11A21786   0.781   0.912   6.100  2.0412  0.4732 -2.6030
  189SLPC  H11B21787   0.656   1.040   6.135 -0.1576  0.8298 -1.9913
  189SLPC     P21788   0.844   1.206   6.264 -0.4151  0.0174 -0.4248
  189SLPC   O1321789   0.984   1.255   6.287  0.5716  0.1727 -0.2389
  189SLPC   O1421790   0.759   1.278   6.166 -0.8720  0.7759 -0.2112
  189SLPC   O1221791   0.855   1.061   6.223 -0.1324  0.4535  0.0375
  189SLPC   O1121792   0.774   1.211   6.404 -0.2158  0.6288 -0.0407
  189SLPC    C121793   0.780   1.113   6.510 -0.4126  0.0145  0.3801
  189SLPC    HA21794   0.681   1.073   6.541 -0.9332  0.3300 -0.8118
  189SLPC    HB21795   0.835   1.024   6.472 -1.7322  0.4725 -2.8725
  189SLPC    C221796   0.846   1.170   6.636 -0.4228 -0.0825 -0.9469
  189SLPC    HS21797   0.877   1.085   6.701 -0.5497 -1.8084 -3.0141
  189SLPC   O2121798   0.754   1.269   6.699  0.5671 -0.2301  0.3130
  189SLPC   C2121799   0.714   1.244   6.824 -0.5768 -0.0370  1.0291
  189SLPC   O2221800   0.725   1.133   6.873  0.3154  0.4741 -0.5962
  189SLPC   C2221801   0.650   1.364   6.888  0.2584 -0.6076 -0.9287
  189SLPC   H2R21802   0.665   1.456   6.827  1.2104 -0.1279 -0.0050
  189SLPC   H2S21803   0.543   1.335   6.893  0.3653 -0.9955 -0.8527
  189SLPC    C321804   0.974   1.242   6.599 -0.5418  0.1834 -0.0747
  189SLPC    HX21805   0.949   1.339   6.552  0.8812 -0.2390 -1.8446
  189SLPC    HY21806   1.025   1.172   6.529  2.0418 -0.7947  2.5394
  189SLPC   O3121807   1.054   1.283   6.713  0.4803 -0.5196  0.4202
  189SLPC   C3121808   1.184   1.268   6.702  0.3642 -0.5106 -0.2478
  189SLPC   O3221809   1.242   1.215   6.610 -0.2803 -0.3626 -0.0916
  189SLPC   C3221810   1.248   1.314   6.832  0.7328  0.5138 -0.6876
  189SLPC   H2X21811   1.287   1.417   6.814  1.9355  0.2204  0.0960
  189SLPC   H2Y21812   1.336   1.248   6.849  1.9665  2.2920  0.1802
  189SLPC   C2321813   0.707   1.392   7.034  0.3163  0.3875  0.9466
  189SLPC   H3R21814   0.816   1.407   7.046  0.5027 -1.3013  1.6821
  189SLPC   H3S21815   0.680   1.299   7.088  0.8891 -0.4746 -0.2277
  189SLPC   C2421816   0.637   1.507   7.097 -0.4133 -0.6768  0.2059
  189SLPC   H4R21817   0.531   1.477   7.117 -0.8152 -0.7741 -1.8715
  189SLPC   H4S21818   0.644   1.590   7.023 -1.6051  1.0162  1.8763
  189SLPC   C2521819   0.710   1.565   7.218  0.6426  0.1912 -0.3276
  189SLPC   H5R21820   0.649   1.654   7.245 -0.4341 -0.7734  0.5311
  189SLPC   H5S21821   0.814   1.582   7.184  1.2667 -1.0225  0.9023
  189SLPC   C2621822   0.725   1.469   7.332 -0.3133 -0.3272 -0.2582
  189SLPC   H6R21823   0.807   1.402   7.297  1.8673  1.9289  0.2716
  189SLPC   H6S21824   0.632   1.413   7.357 -0.9170  1.4469  1.7550
  189SLPC   C2721825   0.773   1.533   7.458 -0.4499 -0.4538 -0.4906
  189SLPC   H7R21826   0.837   1.623   7.441 -0.1331 -0.9060 -1.8071
  189SLPC   H7S21827   0.834   1.467   7.523 -1.3029 -0.0797  0.7053
  189SLPC   C2821828   0.649   1.583   7.539 -0.1132  0.5861 -1.0087
  189SLPC   H8R21829   0.574   1.616   7.463 -1.0707 -0.3457 -0.4832
  189SLPC   H8S21830   0.675   1.674   7.597  1.7069 -0.8846  0.5803
  189SLPC   C2921831   0.609   1.465   7.637 -0.3532  0.1193  0.3849
  189SLPC   H9R21832   0.605   1.370   7.582 -1.6197  0.9722 -1.1010
  189SLPC  C21021833   0.599   1.461   7.774  0.0293  0.0695  0.4339
  189SLPC  H10R21834   0.553   1.371   7.818  0.1162 -1.1573 -1.8104
  189SLPC  C21121835   0.616   1.579   7.870  0.9788  0.1296  0.1669
  189SLPC  H11R21836   0.510   1.608   7.889  0.7515  0.9671 -2.0853
  189SLPC  H11S21837   0.677   1.664   7.833  2.4958 -1.3129 -0.7863
  189SLPC  C21221838   0.682   1.514   7.985  0.0639  0.5962  0.5705
  189SLPC  H12R21839   0.784   1.474   7.972 -0.1275  0.3805 -0.3079
  189SLPC  C21321840   0.631   1.509   8.110 -0.1598 -0.8285 -0.1976
  189SLPC  H13R21841   0.700   1.475   8.189 -0.9098 -0.7971  0.4848
  189SLPC  C21421842   0.499   1.563   8.158  0.1779  0.6109 -0.1201
  189SLPC  H14R21843   0.419   1.567   8.081  1.3160 -0.1350 -1.3663
  189SLPC  H14S21844   0.495   1.661   8.210 -2.4200 -1.5058  4.2437
  189SLPC  C21521845   0.447   1.463   8.257  0.3593 -0.0542  0.0997
  189SLPC  H15R21846   0.515   1.437   8.342  0.6982  1.1505  0.2203
  189SLPC  H15S21847   0.417   1.365   8.215  0.8460 -0.0112 -0.3579
  189SLPC  C21621848   0.314   1.513   8.327  0.0867 -0.9349 -0.4217
  189SLPC  H16R21849   0.237   1.527   8.248  0.7446  0.4958 -0.8345
  189SLPC  H16S21850   0.336   1.610   8.375  0.4775 -1.4384  0.4332
  189SLPC  C21721851   0.260   1.429   8.445  0.3482 -0.2990  0.1778
  189SLPC  H17R21852   0.231   1.492   8.532  0.7145  1.9917 -1.2817
  189SLPC  H17S21853   0.349   1.371   8.477  0.6384 -1.2771 -2.1773
  189SLPC  C21821854   0.152   1.333   8.398 -0.1693 -0.3527 -0.2601
  189SLPC  H18R21855   0.186   1.277   8.307 -0.6802  0.4691 -0.9706
  189SLPC  H18S21856   0.064   1.388   8.361 -0.0766  0.7309  1.0765
  189SLPC  H18T21857   0.121   1.274   8.487 -0.4783  1.1544  0.6606
  189SLPC   C3321858   1.146   1.338   6.956  0.5527 -0.2200 -0.5954
  189SLPC   H3X21859   1.112   1.233   6.971  1.0392 -0.1598  1.1528
  189SLPC   H3Y21860   1.059   1.404   6.938 -1.5585 -2.3103  1.3356
  189SLPC   C3421861   1.222   1.388   7.092 -0.4470  0.6045  0.1467
  189SLPC   H4X21862   1.264   1.490   7.086 -1.9591  1.2333 -0.2091
  189SLPC   H4Y21863   1.305   1.314   7.094 -0.8865  0.0951  1.7352
  189SLPC   C3521864   1.125   1.372   7.209 -0.3273 -0.5379  0.4417
  189SLPC   H5X21865   1.087   1.268   7.206  1.1121 -1.0583 -0.6381
  189SLPC   H5Y21866   1.034   1.435   7.197 -1.7115 -2.5836 -0.2161
  189SLPC   C3621867   1.194   1.389   7.339 -0.6200  0.2249  0.1186
  189SLPC   H6X21868   1.280   1.457   7.319  0.5944 -1.2709  0.1074
  189SLPC   H6Y21869   1.240   1.291   7.363  0.2615  0.9098  1.3359
  189SLPC   C3721870   1.112   1.431   7.457 -0.0261 -0.4673 -0.0326
  189SLPC   H7X21871   1.007   1.401   7.437 -0.4483  1.1237 -0.3340
  189SLPC   H7Y21872   1.117   1.541   7.468 -3.4466 -0.1490 -0.5449
  189SLPC   C3821873   1.156   1.368   7.594 -0.1851 -0.1345  0.0034
  189SLPC   H8X21874   1.266   1.365   7.609  0.0114 -0.4673 -1.3263
  189SLPC   H8Y21875   1.125   1.261   7.595  0.6664 -0.3812  0.8641
  189SLPC   C3921876   1.091   1.442   7.715 -1.2813  0.2899 -0.5138
  189SLPC   H9X21877   0.982   1.434   7.694 -1.1883 -0.5181 -0.6933
  189SLPC   H9Y21878   1.123   1.549   7.717  0.1690 -0.1195  1.8013
  189SLPC  C31021879   1.137   1.373   7.843  0.4064  1.0421 -0.1497
  189SLPC  H10X21880   1.243   1.392   7.868  0.4606  0.3579  0.1507
  189SLPC  H10Y21881   1.129   1.263   7.829 -0.3412  1.1717 -0.7947
  189SLPC  C31121882   1.057   1.406   7.968  0.1976 -0.7964  0.2567
  189SLPC  H11X21883   0.961   1.353   7.982 -1.1890  0.3576 -3.7087
  189SLPC  H11Y21884   1.040   1.516   7.962  0.4600 -0.8124 -1.0218
  189SLPC  C31221885   1.142   1.389   8.091 -0.1107 -0.1416 -0.1526
  189SLPC  H12X21886   1.219   1.468   8.084 -0.7076  0.5648  1.0593
  189SLPC  H12Y21887   1.190   1.289   8.103 -1.5725 -0.7838  0.6950
  189SLPC  C31321888   1.054   1.422   8.213  0.4345 -0.3772  0.2730
  189SLPC  H13X21889   1.113   1.393   8.302 -0.0889 -0.1013  0.7157
  189SLPC  H13Y21890   0.978   1.341   8.206 -1.3450  1.2018  0.4776
  189SLPC  C31421891   0.996   1.569   8.221 -0.1558  0.7319  0.3445
  189SLPC  H14X21892   0.925   1.588   8.137  1.0394  0.1721 -0.8289
  189SLPC  H14Y21893   1.091   1.625   8.209  1.0390 -1.2567 -0.0104
  189SLPC  C31521894   0.928   1.599   8.359 -0.0680 -0.1587 -0.0279
  189SLPC  H15X21895   1.010   1.594   8.434 -0.2052 -0.4099  0.1056
  189SLPC  H15Y21896   0.848   1.529   8.392 -1.0047  1.7695  2.1065
  189SLPC  C31621897   0.869   1.740   8.353  0.2195  0.0122 -0.2876
  189SLPC  H16X21898   0.788   1.745   8.278  0.7331  1.9245 -0.7692
  189SLPC  H16Y21899   0.953   1.806   8.321 -0.6444  1.4065  0.2732
  189SLPC  C31721900   0.832   1.781   8.490  0.7695  0.3576 -0.7416
  189SLPC  H17X21901   0.814   1.890   8.504  0.4032 -0.0595  2.8737
  189SLPC  H17Y21902   0.924   1.762   8.549  0.0829 -2.8510 -0.5189
  189SLPC  C31821903   0.725   1.700   8.559  0.0667  0.2188  0.2788
  189SLPC  H18X21904   0.633   1.681   8.498 -0.5437  0.3689  1.1310
  189SLPC  H18Y21905   0.702   1.744   8.659 -0.9992  0.3218  0.0075
  189SLPC  H18Z21906   0.771   1.607   8.597  0.4707  0.8348  1.3530
  190SLPC     N21907   0.337   0.667   6.216  0.5892 -0.5478  0.5212
  190SLPC   C1321908   0.437   0.774   6.188  0.3767  0.0704  0.5799
  190SLPC  H13A21909   0.428   0.862   6.248 -1.1449  0.3303  0.0096
  190SLPC  H13B21910   0.541   0.745   6.191  1.4171  3.4322  0.9868
  190SLPC  H13C21911   0.431   0.800   6.083  1.5117  2.3512  1.0319
  190SLPC   C1421912   0.358   0.548   6.128 -0.2362 -0.1956 -0.4247
  190SLPC  H14A21913   0.352   0.567   6.021  1.4152 -2.5422 -1.0021
  190SLPC  H14B21914   0.458   0.512   6.142 -0.1233  0.6800  1.3134
  190SLPC  H14C21915   0.293   0.469   6.163  0.7437 -1.3479 -1.1301
  190SLPC   C1521916   0.199   0.714   6.191 -0.6598 -0.0581  0.2193
  190SLPC  H15A21917   0.169   0.801   6.248  1.2872  0.6072  0.2904
  190SLPC  H15B21918   0.194   0.749   6.089 -2.2870  1.5552  0.7937
  190SLPC  H15C21919   0.126   0.637   6.210 -0.7940  0.1601  0.6052
  190SLPC   C1221920   0.347   0.612   6.352  0.4514  0.2801  0.1399
  190SLPC  H12A21921   0.333   0.697   6.418 -0.9870  0.3344 -0.2084
  190SLPC  H12B21922   0.447   0.574   6.362  0.5106 -0.0583 -1.4918
  190SLPC   C1121923   0.248   0.508   6.422 -0.2897  1.2795  0.6425
  190SLPC  H11A21924   0.144   0.547   6.416 -0.0688  1.7970  0.0869
  190SLPC  H11B21925   0.270   0.503   6.531 -0.1391  1.1188  0.6060
  190SLPC     P21926   0.335   0.259   6.415  0.1090 -0.1115  0.2645
  190SLPC   O1321927   0.242   0.152   6.447  0.3139  0.0438 -0.0307
  190SLPC   O1421928   0.443   0.225   6.317  0.2924  0.6492 -0.6983
  190SLPC   O1221929   0.243   0.376   6.366  0.5441 -0.0338 -0.0654
  190SLPC   O1121930   0.407   0.316   6.540 -0.2176  0.2717 -0.5439
  190SLPC    C121931   0.536   0.366   6.528  0.2205 -0.1368 -0.1560
  190SLPC    HA21932   0.609   0.283   6.513  0.0156 -0.7565  1.9663
  190SLPC    HB21933   0.551   0.444   6.450  2.2004 -1.4122 -1.1364
  190SLPC    C221934   0.587   0.433   6.662  0.3262  0.0699  0.5665
  190SLPC    HS21935   0.691   0.464   6.638  0.4890 -1.1913 -0.4176
  190SLPC   O2121936   0.588   0.351   6.773 -0.0421  0.8478  0.6475
  190SLPC   C2121937   0.666   0.237   6.768 -0.2999 -0.5135 -0.0792
  190SLPC   O2221938   0.757   0.222   6.691 -0.0222 -0.0102  0.0547
  190SLPC   C2221939   0.627   0.137   6.874 -0.2005 -0.1809 -0.4513
  190SLPC   H2R21940   0.530   0.092   6.843  0.9208 -2.3314 -1.0874
  190SLPC   H2S21941   0.685   0.046   6.849 -1.2770 -0.8694 -0.4988
  190SLPC    C321942   0.506   0.569   6.692 -0.4332 -0.3538 -0.3110
  190SLPC    HX21943   0.400   0.547   6.718  0.5735 -2.5329  2.4678
  190SLPC    HY21944   0.514   0.630   6.600 -2.6522 -0.2365 -0.4806
  190SLPC   O3121945   0.553   0.625   6.812  0.1329  0.7093 -0.8179
  190SLPC   C3121946   0.533   0.755   6.830 -0.9202 -0.3635  0.5859
  190SLPC   O3221947   0.470   0.823   6.752 -0.2275  0.4377  0.3383
  190SLPC   C3221948   0.607   0.804   6.945 -0.3136  0.7175 -0.2571
  190SLPC   H2X21949   0.622   0.914   6.937 -0.2261  0.6120 -1.6992
  190SLPC   H2Y21950   0.705   0.757   6.969 -0.2293  0.5552 -0.9195
  190SLPC   C2321951   0.643   0.180   7.020  0.1467 -0.6138 -0.5682
  190SLPC   H3R21952   0.737   0.238   7.031  0.0733 -0.5123 -0.4804
  190SLPC   H3S21953   0.650   0.096   7.091  2.2257  0.4744  0.6307
  190SLPC   C2421954   0.536   0.272   7.074 -0.1707  0.1065  0.5372
  190SLPC   H4R21955   0.433   0.237   7.052 -1.0511  1.9521  1.4090
  190SLPC   H4S21956   0.541   0.370   7.021 -2.6446 -0.7638 -1.5500
  190SLPC   C2521957   0.546   0.297   7.220 -0.1380  0.0421  0.3386
  190SLPC   H5R21958   0.650   0.331   7.241 -0.2128  1.1907 -0.9571
  190SLPC   H5S21959   0.532   0.206   7.281  0.3351  0.1124  0.5531
  190SLPC   C2621960   0.444   0.394   7.279 -0.0519  0.0548  0.3450
  190SLPC   H6R21961   0.350   0.349   7.241  0.6180 -1.0852 -0.0135
  190SLPC   H6S21962   0.458   0.498   7.244 -0.0824 -1.0363 -3.2582
  190SLPC   C2721963   0.480   0.404   7.432  0.1481  1.1424  0.2535
  190SLPC   H7R21964   0.579   0.450   7.447 -0.1819  2.2560 -0.8657
  190SLPC   H7S21965   0.488   0.298   7.465  0.8461  1.0564 -0.1692
  190SLPC   C2821966   0.374   0.488   7.504 -0.2732  0.6664  0.2287
  190SLPC   H8R21967   0.273   0.464   7.465 -0.0419  1.0476 -0.6202
  190SLPC   H8S21968   0.377   0.590   7.461 -0.2730  0.4817 -0.2124
  190SLPC   C2921969   0.387   0.496   7.654 -0.5388  0.4671 -0.4982
  190SLPC   H9R21970   0.482   0.460   7.696 -0.4109  0.8861 -0.4261
  190SLPC  C21021971   0.306   0.568   7.733  0.7919  0.5745  0.4232
  190SLPC  H10R21972   0.329   0.580   7.840 -0.6413  0.9549  0.7070
  190SLPC  C21121973   0.184   0.646   7.693 -0.0762 -0.3696  0.0735
  190SLPC  H11R21974   0.141   0.599   7.603 -1.3720  0.0933  0.4360
  190SLPC  H11S21975   0.215   0.749   7.667 -0.4769 -0.3009 -0.1295
  190SLPC  C21221976   0.076   0.647   7.803  0.3284 -0.3387  0.2269
  190SLPC  H12R21977   0.016   0.555   7.790  2.1596 -1.4085 -1.1711
  190SLPC  C21321978   0.057   0.725   7.912 -0.3744 -0.1131  0.6744
  190SLPC  H13R21979  -0.031   0.702   7.975  1.2729 -0.3781  2.9984
  190SLPC  C21421980   0.140   0.847   7.952  0.6439  0.9846  0.1766
  190SLPC  H14R21981   0.097   0.943   7.917  0.9676  0.1447 -2.7798
  190SLPC  H14S21982   0.235   0.847   7.894 -0.0358 -1.5208 -1.1048
  190SLPC  C21521983   0.159   0.860   8.102 -0.2117  0.2093  0.2011
  190SLPC  H15R21984   0.234   0.940   8.117 -1.5294  1.8554 -1.5435
  190SLPC  H15S21985   0.215   0.767   8.127  1.7938  1.0598 -0.9527
  190SLPC  C21621986   0.028   0.878   8.182 -0.0918 -0.6383 -0.2627
  190SLPC  H16R21987  -0.036   0.787   8.173  0.3697 -1.3209  2.5236
  190SLPC  H16S21988  -0.023   0.973   8.155  1.0034  0.1895  0.5228
  190SLPC  C21721989   0.056   0.900   8.332 -0.1151  0.0804  0.6382
  190SLPC  H17R21990   0.137   0.974   8.343  1.1534 -1.4269  1.9446
  190SLPC  H17S21991   0.095   0.807   8.378  1.5975  0.9983  1.0893
  190SLPC  C21821992  -0.074   0.937   8.401  0.7101 -0.1799 -0.3945
  190SLPC  H18R21993  -0.112   1.038   8.374  0.9529 -0.6326 -2.6270
  190SLPC  H18S21994  -0.062   0.918   8.510  2.7293 -1.6585 -0.8129
  190SLPC  H18T21995  -0.161   0.872   8.381 -0.7052  1.4766  0.0986
  190SLPC   C3321996   0.519   0.800   7.075 -0.0384 -0.2613 -0.1487
  190SLPC   H3X21997   0.488   0.696   7.098  4.0657 -1.5133  0.4755
  190SLPC   H3Y21998   0.422   0.851   7.055  0.7280  0.6760 -1.6191
  190SLPC   C3421999   0.589   0.862   7.197 -0.5760  0.2778  0.0856
  190SLPC   H4X22000   0.608   0.971   7.182 -1.4974  0.3495 -0.6701
  190SLPC   H4Y22001   0.681   0.802   7.212 -1.0669 -0.5011 -0.0101
  190SLPC   C3522002   0.515   0.831   7.329 -0.0848  0.1503 -0.3056
  190SLPC   H5X22003   0.498   0.721   7.331 -3.5118  0.5730 -0.6351
  190SLPC   H5Y22004   0.417   0.882   7.338 -0.3055  0.1081 -2.0670
  190SLPC   C3622005   0.598   0.859   7.449  0.3823 -0.3199  0.4822
  190SLPC   H6X22006   0.624   0.967   7.455  2.1443 -0.4915 -2.2426
  190SLPC   H6Y22007   0.696   0.806   7.451  0.2290 -0.5853  1.9915
  190SLPC   C3722008   0.532   0.815   7.583 -0.2282 -0.1160 -0.6732
  190SLPC   H7X22009   0.536   0.704   7.583  1.5417 -0.0732 -0.5158
  190SLPC   H7Y22010   0.423   0.835   7.576 -0.1548  0.0622 -1.4830
  190SLPC   C3822011   0.602   0.867   7.712  0.4764 -0.0470 -0.0276
  190SLPC   H8X22012   0.585   0.976   7.705  3.6156  0.4198 -2.9837
  190SLPC   H8Y22013   0.710   0.842   7.706  0.6518  1.0230 -1.9162
  190SLPC   C3922014   0.540   0.800   7.834  0.2966  0.0400 -0.4658
  190SLPC   H9X22015   0.551   0.691   7.846 -2.1781 -0.0783  1.6540
  190SLPC   H9Y22016   0.430   0.811   7.824  0.1276 -0.8814  0.2997
  190SLPC  C31022017   0.590   0.881   7.956  0.1433  0.3137 -0.7534
  190SLPC  H10X22018   0.698   0.891   7.930  0.1538  2.0069 -0.1849
  190SLPC  H10Y22019   0.600   0.807   8.038 -0.7949 -0.2877 -1.1605
  190SLPC  C31122020   0.505   0.998   7.994  0.3001 -0.3420  0.2473
  190SLPC  H11X22021   0.403   0.984   7.955  0.6440  1.9060 -1.6497
  190SLPC  H11Y22022   0.544   1.089   7.943 -1.0559  0.3018  0.3058
  190SLPC  C31222023   0.487   1.046   8.143 -0.7385  0.4729  0.6621
  190SLPC  H12X22024   0.465   0.960   8.211 -0.7278  1.0636  1.4261
  190SLPC  H12Y22025   0.403   1.118   8.143 -3.4810 -2.3224 -3.0198
  190SLPC  C31322026   0.625   1.097   8.214  0.5928 -0.2613  0.6404
  190SLPC  H13X22027   0.658   1.196   8.175  0.2855 -0.1740  0.5959
  190SLPC  H13Y22028   0.704   1.022   8.194 -0.1687 -1.0305  0.4271
  190SLPC  C31422029   0.617   1.117   8.364  0.4087  0.3043  0.4615
  190SLPC  H14X22030   0.580   1.024   8.413 -0.8576 -0.4212 -1.7438
  190SLPC  H14Y22031   0.535   1.190   8.377  0.9521  1.0278 -0.0942
  190SLPC  C31522032   0.760   1.154   8.425 -0.3213 -0.6249 -0.8088
  190SLPC  H15X22033   0.802   1.237   8.364 -0.2586  0.6250  0.8760
  190SLPC  H15Y22034   0.824   1.064   8.415 -0.7080 -0.9460 -0.4212
  190SLPC  C31622035   0.764   1.197   8.574  0.3278 -0.5257 -0.2892
  190SLPC  H16X22036   0.711   1.125   8.640  0.2861  0.6840  1.0414
  190SLPC  H16Y22037   0.709   1.293   8.582  1.5878  0.0933  1.7857
  190SLPC  C31722038   0.910   1.223   8.628 -0.2549 -0.2786 -0.6886
  190SLPC  H17X22039   0.928   1.330   8.653 -0.3862 -0.3239 -0.3938
  190SLPC  H17Y22040   0.978   1.204   8.543 -1.3732 -0.6030 -1.5314
  190SLPC  C31822041   0.955   1.126   8.739 -0.0238 -0.6675  0.1961
  190SLPC  H18X22042   1.059   1.145   8.773  0.1040  0.0859 -0.5843
  190SLPC  H18Y22043   0.946   1.021   8.704  0.3651 -0.0302 -1.9384
  190SLPC  H18Z22044   0.886   1.142   8.825 -1.0321 -0.7137 -0.5924
  191SLPC     N22045   0.487   1.858   6.012 -0.1264 -0.2231  0.0976
  191SLPC   C1322046   0.467   2.000   5.979 -0.4594 -0.4162  0.1859
  191SLPC  H13A22047   0.448   2.021   5.874 -0.5212  0.6091  0.3848
  191SLPC  H13B22048   0.395   2.054   6.039 -0.6696  0.3625 -0.7320
  191SLPC  H13C22049   0.561   2.052   5.991 -1.2786  1.3860 -0.7489
  191SLPC   C1422050   0.594   1.792   5.934 -0.1244 -0.2747  0.2342
  191SLPC  H14A22051   0.683   1.851   5.943 -0.7533  0.4782  1.9458
  191SLPC  H14B22052   0.622   1.699   5.981 -2.5216 -1.1225  0.1252
  191SLPC  H14C22053   0.557   1.779   5.834  0.3891  2.3349 -0.3653
  191SLPC   C1522054   0.357   1.780   5.996 -0.5849  0.8346  0.3928
  191SLPC  H15A22055   0.321   1.798   5.895 -0.2795 -1.7822 -0.2494
  191SLPC  H15B22056   0.368   1.674   6.007 -1.6420  0.6716 -0.0069
  191SLPC  H15C22057   0.280   1.819   6.062  0.3909  1.5038  1.1631
  191SLPC   C1222058   0.531   1.860   6.161 -0.3797  0.2473  0.3836
  191SLPC  H12A22059   0.531   1.758   6.196 -2.8881  0.1797  0.3574
  191SLPC  H12B22060   0.452   1.910   6.214 -0.5136  0.5756 -0.1226
  191SLPC   C1122061   0.672   1.917   6.190 -0.2169 -0.2805  0.2004
  191SLPC  H11A22062   0.742   1.841   6.148  0.5576 -0.7136  2.1778
  191SLPC  H11B22063   0.691   1.912   6.299 -0.5275 -0.0579  0.2658
  191SLPC     P22064   0.831   2.107   6.090 -0.4016 -0.1066 -0.0117
  191SLPC   O1322065   0.902   2.011   6.002  0.4336 -0.2745  0.0641
  191SLPC   O1422066   0.810   2.244   6.035  0.7067  0.3552 -0.3880
  191SLPC   O1222067   0.694   2.043   6.134  0.2230 -0.3629 -0.6697
  191SLPC   O1122068   0.905   2.116   6.229  0.3383 -0.2474  0.0257
  191SLPC    C122069   0.878   2.236   6.302 -0.1987  0.2717 -0.2627
  191SLPC    HA22070   0.915   2.318   6.238 -1.0291  1.0166  0.1815
  191SLPC    HB22071   0.768   2.253   6.306 -0.3830 -0.1689 -2.4381
  191SLPC    C222072   0.937   2.229   6.443 -0.1184 -0.4008  0.4145
  191SLPC    HS22073   0.880   2.311   6.493 -1.2259 -0.2887 -0.9754
  191SLPC   O2122074   1.079   2.242   6.443  0.1751  0.2153 -0.6582
  191SLPC   C2122075   1.113   2.371   6.450 -0.0659 -0.2512 -0.2145
  191SLPC   O2222076   1.040   2.464   6.418  0.3449  0.0425  0.1328
  191SLPC   C2222077   1.249   2.385   6.510 -0.3639  0.2297  0.0242
  191SLPC   H2R22078   1.268   2.293   6.569  0.4226 -0.9303 -1.9239
  191SLPC   H2S22079   1.313   2.393   6.419  0.3538  1.4577  0.6072
  191SLPC    C322080   0.890   2.099   6.516 -0.0205  0.1468 -0.3878
  191SLPC    HX22081   0.940   2.009   6.476  1.4121  0.5875  0.3397
  191SLPC    HY22082   0.781   2.083   6.507  0.1639 -0.6749 -1.2435
  191SLPC   O3122083   0.923   2.109   6.659 -0.2360  0.1342 -0.0023
  191SLPC   C3122084   0.845   2.182   6.734 -0.1574  0.3755  1.6816
  191SLPC   O3222085   0.742   2.236   6.701  0.0067 -0.4930  0.0331
  191SLPC   C3222086   0.908   2.186   6.866  0.2200  0.0701 -0.5981
  191SLPC   H2X22087   1.018   2.194   6.851  0.1468  1.4981 -0.5752
  191SLPC   H2Y22088   0.892   2.088   6.914 -1.9107 -0.1880 -1.7563
  191SLPC   C2322089   1.265   2.506   6.606 -0.1571  1.0064  0.8586
  191SLPC   H3R22090   1.225   2.603   6.568 -1.4245  0.9960  2.1068
  191SLPC   H3S22091   1.374   2.522   6.619  0.3093 -1.4745  0.4048
  191SLPC   C2422092   1.199   2.495   6.738  0.4644 -0.1574  0.6381
  191SLPC   H4R22093   1.229   2.400   6.787 -1.5124 -0.5731  1.1107
  191SLPC   H4S22094   1.091   2.500   6.713  0.8746  3.2229 -1.0070
  191SLPC   C2522095   1.229   2.606   6.829  0.3564 -0.6112 -0.6177
  191SLPC   H5R22096   1.206   2.702   6.777 -0.6263  0.3542  1.4643
  191SLPC   H5S22097   1.330   2.632   6.868 -0.9675  0.8945  2.1577
  191SLPC   C2622098   1.120   2.592   6.945  0.0954 -0.2006  0.2450
  191SLPC   H6R22099   1.163   2.528   7.025  0.6904  1.8422  1.6314
  191SLPC   H6S22100   1.025   2.546   6.911 -0.1802 -0.5793  1.4953
  191SLPC   C2722101   1.096   2.726   7.013 -0.3323  0.5510 -0.2358
  191SLPC   H7R22102   1.036   2.796   6.953 -0.5038  1.3206  0.8009
  191SLPC   H7S22103   1.199   2.763   7.031 -0.0614 -0.1394 -0.3005
  191SLPC   C2822104   1.018   2.721   7.146  0.0675 -0.0759  0.1528
  191SLPC   H8R22105   1.039   2.813   7.204  0.2134 -0.9565  1.5577
  191SLPC   H8S22106   1.054   2.636   7.208 -0.4815 -1.7212 -1.6864
  191SLPC   C2922107   0.867   2.713   7.123 -0.0780 -0.9126 -0.8128
  191SLPC   H9R22108   0.842   2.682   7.020 -1.1868  1.9602 -1.5151
  191SLPC  C21022109   0.777   2.750   7.216  0.0413  1.1254  0.2393
  191SLPC  H10R22110   0.671   2.739   7.187  0.3817  1.5351 -1.2122
  191SLPC  C21122111   0.801   2.793   7.359 -0.3717  0.1444  0.0147
  191SLPC  H11R22112   0.907   2.779   7.390 -0.0992 -1.5370 -1.4902
  191SLPC  H11S22113   0.740   2.723   7.419 -0.4911 -0.1654 -0.4592
  191SLPC  C21222114   0.767   2.935   7.388  0.1322  0.0470  0.0807
  191SLPC  H12R22115   0.682   2.965   7.324 -0.4877 -0.3042  0.7323
  191SLPC  C21322116   0.810   3.021   7.479 -0.0150 -0.5241  0.0431
  191SLPC  H13R22117   0.772   3.124   7.489 -0.1312 -0.6840  1.4808
  191SLPC  C21422118   0.915   2.980   7.576 -0.6721  0.5474 -0.6811
  191SLPC  H14R22119   1.002   3.049   7.576  0.7023 -1.1117 -1.7933
  191SLPC  H14S22120   0.970   2.885   7.557 -2.0201 -0.4028  0.0196
  191SLPC  C21522121   0.857   2.960   7.717  0.4639 -0.3797  0.8240
  191SLPC  H15R22122   0.766   2.896   7.709 -0.9375  1.5957  0.0297
  191SLPC  H15S22123   0.830   3.056   7.767  0.3715 -0.1739  0.3853
  191SLPC  C21622124   0.955   2.895   7.799 -0.5770  0.0805 -0.0926
  191SLPC  H16R22125   1.048   2.955   7.795 -1.1349  0.9965  0.3245
  191SLPC  H16S22126   0.985   2.799   7.752 -0.4290  0.2248 -0.2921
  191SLPC  C21722127   0.925   2.893   7.942 -0.4984 -0.2241 -0.0727
  191SLPC  H17R22128   0.837   2.827   7.961 -1.0888  0.3831 -0.6303
  191SLPC  H17S22129   0.905   2.996   7.979 -1.0207 -0.3429 -0.0045
  191SLPC  C21822130   1.038   2.824   8.023 -0.6430 -0.3226 -0.1256
  191SLPC  H18R22131   1.129   2.884   8.006 -0.0440 -2.0026 -3.5436
  191SLPC  H18S22132   1.057   2.724   7.977  0.8047  1.3002 -3.3549
  191SLPC  H18T22133   1.009   2.815   8.130 -0.3006 -1.8044 -0.1367
  191SLPC   C3322134   0.852   2.295   6.959  0.3943 -0.7798  0.5250
  191SLPC   H3X22135   0.742   2.306   6.947 -0.0237 -4.4787 -0.3515
  191SLPC   H3Y22136   0.904   2.389   6.933 -1.2274  0.3784  1.2621
  191SLPC   C3422137   0.887   2.263   7.102  0.4178 -0.2351  0.0997
  191SLPC   H4X22138   0.998   2.264   7.099  0.3940  0.6054 -1.2948
  191SLPC   H4Y22139   0.844   2.175   7.154  1.8308  0.1902  2.1465
  191SLPC   C3522140   0.858   2.380   7.195  0.5424  0.0122  1.0560
  191SLPC   H5X22141   0.749   2.400   7.196  0.3437 -0.9833  1.3104
  191SLPC   H5Y22142   0.911   2.465   7.148  1.6967 -1.5913 -0.7035
  191SLPC   C3622143   0.914   2.344   7.334 -0.5867  0.2006  0.1307
  191SLPC   H6X22144   1.024   2.341   7.319 -0.5917  0.7662 -0.0361
  191SLPC   H6Y22145   0.878   2.247   7.376  0.7793 -0.6584 -0.6084
  191SLPC   C3722146   0.885   2.451   7.441 -0.1241  0.3951 -0.5513
  191SLPC   H7X22147   0.775   2.454   7.457  0.1105 -0.0446  1.4919
  191SLPC   H7Y22148   0.921   2.552   7.411  0.4776  0.3820  0.0890
  191SLPC   C3822149   0.952   2.427   7.579 -0.0489  0.6905  0.6278
  191SLPC   H8X22150   1.062   2.425   7.561 -0.2634 -3.5718 -1.4160
  191SLPC   H8Y22151   0.923   2.324   7.611  0.3641 -0.3309 -2.0282
  191SLPC   C3922152   0.905   2.522   7.690 -0.1144 -0.4546 -0.7200
  191SLPC   H9X22153   0.797   2.541   7.673 -0.2852 -0.6288  0.1129
  191SLPC   H9Y22154   0.957   2.616   7.662 -1.5270  1.6023  2.8479
  191SLPC  C31022155   0.945   2.484   7.834  0.2137 -0.3395 -0.2136
  191SLPC  H10X22156   0.889   2.552   7.901  1.8369  0.3690  0.4851
  191SLPC  H10Y22157   1.053   2.503   7.853 -0.2340  0.0915  2.3096
  191SLPC  C31122158   0.898   2.343   7.876 -0.6465  0.3231 -0.8492
  191SLPC  H11X22159   0.951   2.261   7.823 -2.1643 -2.8122  2.0864
  191SLPC  H11Y22160   0.790   2.340   7.848 -0.7314  1.9057 -0.7412
  191SLPC  C31222161   0.906   2.323   8.022  0.1702 -0.5584 -0.8676
  191SLPC  H12X22162   0.848   2.404   8.070  0.3824 -1.3986  0.9097
  191SLPC  H12Y22163   1.006   2.350   8.063 -1.3153  3.0426  0.7991
  191SLPC  C31322164   0.865   2.179   8.065  0.0583 -0.0472 -0.7759
  191SLPC  H13X22165   0.935   2.107   8.018  0.6796  0.8113 -1.1835
  191SLPC  H13Y22166   0.765   2.158   8.022 -0.9597  1.2095  0.8224
  191SLPC  C31422167   0.843   2.158   8.218  0.2221  0.2664 -0.5959
  191SLPC  H14X22168   0.829   2.051   8.246 -1.3358  1.2407  2.9039
  191SLPC  H14Y22169   0.744   2.197   8.249 -0.3961 -0.4497 -1.5898
  191SLPC  C31522170   0.942   2.232   8.309  0.3281 -0.3140 -0.4452
  191SLPC  H15X22171   0.918   2.340   8.293 -0.3132 -0.4665 -0.5242
  191SLPC  H15Y22172   1.045   2.205   8.275  0.5782 -1.3262  1.0221
  191SLPC  C31622173   0.933   2.201   8.458 -0.1549  0.0960 -0.9847
  191SLPC  H16X22174   1.006   2.254   8.523 -1.3700 -0.3577  0.8308
  191SLPC  H16Y22175   0.948   2.093   8.480 -0.8734  0.4009  1.3061
  191SLPC  C31722176   0.794   2.220   8.518  0.3983  0.3507  0.8109
  191SLPC  H17X22177   0.727   2.155   8.458  0.2794  0.5205  0.7569
  191SLPC  H17Y22178   0.756   2.325   8.519  0.5050  0.4259 -0.4859
  191SLPC  C31822179   0.788   2.177   8.663 -0.1141 -0.1490 -0.7503
  191SLPC  H18X22180   0.853   2.243   8.724  1.5089 -1.0852 -1.4115
  191SLPC  H18Y22181   0.836   2.077   8.672 -0.5692 -0.4171 -1.2285
  191SLPC  H18Z22182   0.686   2.162   8.704  0.6008  2.1509  2.2347
  192SLPC     N22183   0.531   3.614   6.256 -0.1001  0.1321  0.3239
  192SLPC   C1322184   0.531   3.461   6.274 -0.3629 -0.2288 -0.2923
  192SLPC  H13A22185   0.567   3.423   6.369 -2.2961  0.7122  0.8929
  192SLPC  H13B22186   0.429   3.430   6.262 -0.9065  0.6139  1.6523
  192SLPC  H13C22187   0.592   3.427   6.192  1.0980  2.3950 -0.4363
  192SLPC   C1422188   0.441   3.674   6.361  0.1591 -0.0354 -0.2244
  192SLPC  H14A22189   0.494   3.680   6.454 -1.4695  0.8472  0.6962
  192SLPC  H14B22190   0.414   3.776   6.339 -2.8508 -1.1803 -2.7372
  192SLPC  H14C22191   0.360   3.603   6.374  2.3598 -2.1688  3.9998
  192SLPC   C1522192   0.468   3.639   6.122  0.3180 -0.4592  0.1312
  192SLPC  H15A22193   0.373   3.588   6.108  0.2369 -1.1051  2.4407
  192SLPC  H15B22194   0.452   3.744   6.103  0.8011 -0.2580  0.7968
  192SLPC  H15C22195   0.535   3.596   6.049  1.1265 -0.8314  1.0692
  192SLPC   C1222196   0.668   3.666   6.268  0.8035  0.3178  0.9104
  192SLPC  H12A22197   0.716   3.647   6.173 -0.7345 -0.2138  0.2127
  192SLPC  H12B22198   0.725   3.615   6.345 -0.4096  1.3004  2.5105
  192SLPC   C1122199   0.687   3.827   6.266  0.6761  1.2185  0.6411
  192SLPC  H11A22200   0.612   3.869   6.196 -0.1474 -0.7679  0.2620
  192SLPC  H11B22201   0.788   3.851   6.225  0.8127  1.1434  0.9306
  192SLPC     P22202   0.791   3.839   6.514  0.0617 -0.1191 -0.1288
  192SLPC   O1322203   0.711   3.753   6.602 -0.1591  0.3336 -0.0212
  192SLPC   O1422204   0.917   3.786   6.457 -0.4793 -0.0539  0.3668
  192SLPC   O1222205   0.694   3.886   6.393  0.8010  0.3466 -0.3147
  192SLPC   O1122206   0.814   3.982   6.583 -0.0508  0.2512  0.4309
  192SLPC    C122207   0.755   4.008   6.711 -0.6794  0.0527  0.2147
  192SLPC    HA22208   0.746   4.117   6.728 -0.2164  0.4089 -1.6006
  192SLPC    HB22209   0.657   3.957   6.718 -1.0336  0.5624 -0.8622
  192SLPC    C222210   0.858   3.965   6.814  0.0317  0.0560 -0.2809
  192SLPC    HS22211   0.879   3.857   6.803 -1.3564 -0.4681  1.7262
  192SLPC   O2122212   0.787   3.976   6.941  0.2738  0.1423  0.3299
  192SLPC   C2122213   0.713   3.874   6.981 -0.4968 -0.4552  0.4417
  192SLPC   O2222214   0.699   3.764   6.932  0.3121  0.2163 -0.1515
  192SLPC   C2222215   0.665   3.914   7.117 -0.1216 -0.2815 -0.0744
  192SLPC   H2R22216   0.667   3.828   7.187 -2.4235  0.2690  0.7699
  192SLPC   H2S22217   0.734   3.994   7.152 -1.0148  1.0225 -1.2164
  192SLPC    C322218   0.985   4.048   6.823  0.2525 -0.1712 -0.4006
  192SLPC    HX22219   0.963   4.154   6.799 -2.1026 -0.8745 -1.7014
  192SLPC    HY22220   1.055   4.004   6.748  2.8346 -0.8837  2.2671
  192SLPC   O3122221   1.048   4.044   6.955  0.0251  0.0866  0.8236
  192SLPC   C3122222   1.166   4.106   6.971 -0.4987 -0.0691 -0.2504
  192SLPC   O3222223   1.225   4.167   6.881  0.2337  0.0589  0.2907
  192SLPC   C3222224   1.230   4.076   7.108  0.1956 -0.3207 -0.1045
  192SLPC   H2X22225   1.284   3.980   7.091 -1.2689 -1.2535  0.3045
  192SLPC   H2Y22226   1.156   4.064   7.190  0.4362  2.3295  0.5825
  192SLPC   C2322227   0.523   3.955   7.098 -0.1495  0.1248 -0.5691
  192SLPC   H3R22228   0.460   3.864   7.088  2.8815 -1.9273 -2.7694
  192SLPC   H3S22229   0.496   4.020   7.012 -0.4728 -0.1767 -0.6978
  192SLPC   C2422230   0.463   4.029   7.221  0.0511 -0.6498 -0.0957
  192SLPC   H4R22231   0.486   3.965   7.309 -1.5882 -1.7503 -0.4292
  192SLPC   H4S22232   0.353   4.017   7.213  0.1470 -0.6596 -1.6523
  192SLPC   C2522233   0.511   4.170   7.258 -0.0312  0.0425 -0.0279
  192SLPC   H5R22234   0.503   4.235   7.168  2.7185 -1.4096 -1.4409
  192SLPC   H5S22235   0.617   4.166   7.292  1.3204 -0.6118 -3.7873
  192SLPC   C2622236   0.430   4.224   7.380 -0.2932  0.3549 -0.0533
  192SLPC   H6R22237   0.457   4.175   7.476 -0.4728  0.4605  0.0524
  192SLPC   H6S22238   0.323   4.199   7.363 -0.4550  0.5610  0.6097
  192SLPC   C2722239   0.452   4.375   7.400  0.2915 -0.1500 -0.6210
  192SLPC   H7R22240   0.404   4.431   7.317 -0.5231 -0.6527 -0.4965
  192SLPC   H7S22241   0.558   4.405   7.384  0.0384  1.0627 -0.1749
  192SLPC   C2822242   0.406   4.429   7.535  0.5031  0.5458  1.0716
  192SLPC   H8R22243   0.430   4.538   7.535  1.7932  0.2948 -0.2702
  192SLPC   H8S22244   0.475   4.376   7.605 -1.4420 -1.4186  1.6112
  192SLPC   C2922245   0.262   4.410   7.572 -0.3000 -0.2346  0.1904
  192SLPC   H9R22246   0.215   4.328   7.516 -2.0061 -0.2382  1.4982
  192SLPC  C21022247   0.180   4.485   7.657 -0.0887 -0.2525 -0.3717
  192SLPC  H10R22248   0.076   4.450   7.666 -0.8600  2.0791  0.6838
  192SLPC  C21122249   0.236   4.606   7.731  0.6661  1.1767 -0.1025
  192SLPC  H11R22250   0.154   4.681   7.736  0.6267  1.0810  0.9732
  192SLPC  H11S22251   0.317   4.658   7.676 -1.1148  1.9028 -2.1473
  192SLPC  C21222252   0.274   4.551   7.861 -0.6762  0.0726 -0.5115
  192SLPC  H12R22253   0.258   4.445   7.884 -2.4500  0.5704  0.7168
  192SLPC  C21322254   0.337   4.630   7.948 -0.1101  0.2291 -0.0614
  192SLPC  H13R22255   0.384   4.591   8.040  1.2801 -1.7479 -1.5128
  192SLPC  C21422256   0.357   4.781   7.940  0.4194 -0.6727  0.1834
  192SLPC  H14R22257   0.280   4.829   8.004 -1.7365 -2.6556 -0.7469
  192SLPC  H14S22258   0.327   4.798   7.834 -2.2738 -2.2983  0.5812
  192SLPC  C21522259   0.500   4.834   7.947 -0.6590 -0.0324  0.0971
  192SLPC  H15R22260   0.564   4.796   7.865  1.7952  2.9625  0.4477
  192SLPC  H15S22261   0.553   4.803   8.040 -1.2980 -1.7722 -0.0870
  192SLPC  C21622262   0.491   4.991   7.932 -0.6303  0.7442 -0.1170
  192SLPC  H16R22263   0.423   5.040   8.005  0.0270  1.6983 -0.1304
  192SLPC  H16S22264   0.455   5.009   7.828 -0.6002 -0.8393 -0.4298
  192SLPC  C21722265   0.623   5.071   7.956 -0.2713  0.1941 -0.2406
  192SLPC  H17R22266   0.708   5.013   7.914 -2.7421 -3.5903 -0.5545
  192SLPC  H17S22267   0.613   5.167   7.900  0.5823  0.8213  0.6510
  192SLPC  C21822268   0.648   5.091   8.104 -0.4265  0.3282  0.2708
  192SLPC  H18R22269   0.565   5.160   8.130 -1.3553 -0.0659 -1.4948
  192SLPC  H18S22270   0.748   5.139   8.113  0.7230 -1.5840 -1.3905
  192SLPC  H18T22271   0.640   4.997   8.161 -0.7493  0.3682  0.2921
  192SLPC   C3322272   1.331   4.181   7.148  0.0781  0.2486 -0.2500
  192SLPC   H3X22273   1.283   4.281   7.145  1.2344  0.9762  2.3648
  192SLPC   H3Y22274   1.411   4.197   7.073 -2.0969  0.4932 -2.6553
  192SLPC   C3422275   1.388   4.172   7.295  0.5796  0.0899 -0.2122
  192SLPC   H4X22276   1.443   4.268   7.307  1.2688 -0.2987 -0.2242
  192SLPC   H4Y22277   1.442   4.076   7.310 -0.6171 -0.7756 -1.2430
  192SLPC   C3522278   1.273   4.175   7.399 -0.3184 -0.7671  0.3074
  192SLPC   H5X22279   1.213   4.082   7.407 -0.8029 -0.4583  0.3109
  192SLPC   H5Y22280   1.205   4.257   7.367  2.4238  1.2955 -0.6475
  192SLPC   C3622281   1.320   4.190   7.551  0.5872 -0.2532  0.5395
  192SLPC   H6X22282   1.371   4.289   7.551  2.5042 -1.1848 -0.6409
  192SLPC   H6Y22283   1.397   4.113   7.572  2.0135  0.5978 -1.2476
  192SLPC   C3722284   1.207   4.202   7.648 -0.7234 -0.0488  0.2574
  192SLPC   H7X22285   1.173   4.097   7.658 -1.1607 -0.1771 -2.1427
  192SLPC   H7Y22286   1.131   4.271   7.607 -1.1701 -2.1552 -2.7717
  192SLPC   C3822287   1.249   4.267   7.779  0.0221  0.5789 -0.2742
  192SLPC   H8X22288   1.282   4.372   7.767  0.1474  0.5032 -0.6225
  192SLPC   H8Y22289   1.338   4.213   7.820 -0.3546 -0.7106 -1.0904
  192SLPC   C3922290   1.146   4.247   7.892  0.1239  0.1179  0.2864
  192SLPC   H9X22291   1.157   4.140   7.917 -0.4281 -0.3094 -1.2529
  192SLPC   H9Y22292   1.043   4.262   7.852  0.3011  0.4570 -0.0531
  192SLPC  C31022293   1.180   4.327   8.020 -0.0920 -0.1835 -0.1102
  192SLPC  H10X22294   1.188   4.435   7.997 -1.5647  0.4134  1.9013
  192SLPC  H10Y22295   1.283   4.298   8.051 -0.1539 -0.9386 -0.5985
  192SLPC  C31122296   1.080   4.288   8.135 -0.5366 -0.5402 -0.6000
  192SLPC  H11X22297   1.051   4.181   8.137 -1.0803 -0.3774  0.9197
  192SLPC  H11Y22298   0.986   4.345   8.118 -0.3162 -0.1979 -0.6734
  192SLPC  C31222299   1.151   4.334   8.263 -0.8176  0.5436  0.5151
  192SLPC  H12X22300   1.133   4.443   8.275 -0.1083  0.9609 -1.6304
  192SLPC  H12Y22301   1.258   4.303   8.265 -0.5022  1.4957  4.1236
  192SLPC  C31322302   1.085   4.266   8.391 -0.0707 -0.1732  0.7492
  192SLPC  H13X22303   1.086   4.156   8.380  0.4391 -0.0634 -0.4985
  192SLPC  H13Y22304   0.977   4.290   8.393 -0.6308 -2.4855  0.6429
  192SLPC  C31422305   1.148   4.318   8.516 -0.5054 -0.9067 -0.0185
  192SLPC  H14X22306   1.161   4.427   8.497  0.1502 -0.8406  0.7438
  192SLPC  H14Y22307   1.255   4.294   8.535 -0.4420  0.3174  1.3558
  192SLPC  C31522308   1.055   4.319   8.637  0.1526  0.1126 -0.0883
  192SLPC  H15X22309   1.080   4.233   8.703  0.1636  1.1165  1.2325
  192SLPC  H15Y22310   0.948   4.312   8.607  0.4691 -0.1593 -1.2360
  192SLPC  C31622311   1.066   4.445   8.726 -1.0976  0.7251 -0.2086
  192SLPC  H16X22312   1.166   4.489   8.708 -1.0398  0.0128 -1.7693
  192SLPC  H16Y22313   1.048   4.418   8.832 -0.2956 -2.5764 -0.7917
  192SLPC  C31722314   0.955   4.550   8.710 -0.0634 -0.2395 -0.9299
  192SLPC  H17X22315   0.873   4.545   8.784  0.8864  1.2381  0.2845
  192SLPC  H17Y22316   0.913   4.533   8.608 -0.1856  0.9787 -1.0992
  192SLPC  C31822317   1.007   4.696   8.693  0.2833  0.4414 -0.3394
  192SLPC  H18X22318   0.910   4.751   8.686 -0.5208 -0.8496  0.2073
  192SLPC  H18Y22319   1.061   4.710   8.598 -0.1559  0.8733 -0.5359
  192SLPC  H18Z22320   1.079   4.719   8.775  2.2644 -1.7569 -1.3687
  193SOD    SOD22321   1.392   6.259  11.046  0.0299 -0.1079  0.0524
  194SOD    SOD22322   1.828   4.635  12.814  0.2525  0.5696 -0.1332
  195SOD    SOD22323   3.139   1.561   5.275 -0.2457  0.2882  0.4180
  196SOD    SOD22324   1.471   1.120  10.895 -0.3527  0.1257  0.3654
  197SOD    SOD22325   2.428   4.884  14.431 -0.2142  0.0120 -0.4170
  198SOD    SOD22326   6.675   2.085   0.194 -0.0346  0.5230  0.2807
  199SOD    SOD22327   4.900   2.585   4.513 -0.0503  0.1537  0.1525
  200SOD    SOD22328   2.744   4.242  10.970  0.9902 -0.2688 -0.2975
  201SOD    SOD22329   2.550   3.076  13.975 -0.1629  0.1544 -0.0974
  202SOD    SOD22330   0.406   5.479  11.520 -0.2337  0.2799 -0.2549
  203SOD    SOD22331   5.397   2.605  11.430  0.0001 -0.4558 -0.3231
  204SOD    SOD22332   1.714   5.252  15.063  0.6855 -0.2672 -0.2996
  205SOD    SOD22333   1.132   6.311  15.216 -0.5788  0.2709 -0.0953
  206SOD    SOD22334   4.527   0.250  10.366 -0.6647  0.2616 -0.4616
  207SOD    SOD22335   4.612   0.346  14.717  0.3712  0.0433 -0.5513
  208SOD    SOD22336   1.432   6.626   4.983 -0.0513  0.1108 -0.1962
  209SOD    SOD22337   1.742   0.931   0.048 -0.2297  0.1264 -0.3803
  210SOD    SOD22338   6.402   2.414   3.372 -0.0772  0.1126 -0.1120
  211SOD    SOD22339   3.912   2.233   0.679 -0.1614 -0.1721  0.1379
  212SOD    SOD22340   6.626   6.645  12.452 -0.5902  0.3947 -0.3628
  213SOD    SOD22341   4.086   2.838  14.438 -0.3079  0.2880 -0.0561
  214SOD    SOD22342   3.406   6.260   1.212  0.0868 -0.0723 -0.0530
  215SOD    SOD22343   5.896   2.224  16.966 -0.4587 -0.3565 -0.1807
  216SOD    SOD22344   3.100   4.049  14.220 -0.0411 -0.2292  0.0233
  217SOD    SOD22345   2.427   6.299   0.910  0.3111 -0.2507  0.1050
  218SOD    SOD22346   0.478   3.211  12.375  0.0083  0.5772 -0.1061
  219SOD    SOD22347   4.159   2.714  11.497 -0.5037 -0.1911 -0.2740
  220SOD    SOD22348   5.070   5.880   3.228  0.3304  0.2503 -0.2246
  221SOD    SOD22349   6.498   5.107  12.500 -0.0531  0.4384 -0.3071
  222SOD    SOD22350   3.163   4.825   3.267  0.0061  0.2239 -0.3393
  223SOD    SOD22351   2.472   6.533   4.657  0.3612  0.2200  0.7135
  224SOD    SOD22352   5.793   0.465  12.073 -0.0630 -0.1064  0.2126
  225SOD    SOD22353   6.792   5.872   4.712  0.1105 -0.5435 -0.2490
  226SOD    SOD22354   0.267   1.228  11.443 -0.4208 -0.3432 -0.2603
  227SOD    SOD22355   0.532   0.288   5.704  0.1494  0.4733 -0.4065
  228SOD    SOD22356   2.121   5.503   6.155  0.1373 -0.1290  0.5940
  229SOD    SOD22357   1.776   1.261  13.491 -0.3508  0.1173 -0.3311
  230SOD    SOD22358   0.802   3.716   4.034  0.3252 -0.2252 -0.0579
  231SOD    SOD22359   5.251   4.643  14.662 -0.3167 -0.3372 -0.5646
  232SOD    SOD22360   2.483   0.393  12.034  0.2262 -0.2081  0.1244
  233SOD    SOD22361   3.447   6.610  11.108  0.0972 -0.0115  0.7663
  234SOD    SOD22362   1.857   6.184   5.004 -0.6652  0.1548 -0.1543
  235SOD    SOD22363   4.730   1.806  15.886 -0.1506  0.1945 -0.2241
  236SOD    SOD22364   1.211   6.779  15.495 -0.0574  0.3200  0.1816
  237SOD    SOD22365   4.272   6.630   5.254 -0.3218  0.1534  0.0154
  238SOD    SOD22366   0.795   0.279   4.272  0.3177 -0.3048 -0.3014
  239SOD    SOD22367   3.311   5.565   4.818  0.2598  0.8039 -0.3255
  240SOD    SOD22368   3.661   2.509   5.348 -0.1440  0.1736 -0.0219
  241SOD    SOD22369   0.541   4.171   5.478 -0.1129 -0.5545 -0.1851
  242SOD    SOD22370   2.018   3.721  11.816  0.1894  0.0033 -0.0483
  243SOD    SOD22371   0.731   4.270  15.071 -0.1791  0.8519 -0.4362
  244SOD    SOD22372   2.635   4.986   1.226  0.0592  0.1052  0.0705
  245SOD    SOD22373   3.074   3.537   2.216  0.5533  0.6101 -0.0201
  246SOD    SOD22374   1.672   3.161   1.112 -0.5147 -0.0463 -0.0195
  247SOD    SOD22375   2.017   3.684   0.341 -0.6543 -0.1007 -0.0266
  248SOD    SOD22376   5.355   3.060   4.667 -0.0116  0.3728 -0.4526
  249SOD    SOD22377   6.472   3.590   2.303  0.2446  0.1234 -0.2224
  250SOD    SOD22378   6.413   6.525  10.890 -0.7278  0.0959  0.8817
  251SOD    SOD22379   0.326   0.322  13.648 -0.1919  0.2915  0.3854
  252SOD    SOD22380   0.491   5.034  14.049  0.3557  0.1661  0.1700
  253SOD    SOD22381   5.628   1.536   6.328 -0.0887  0.0157  0.5168
  254SOD    SOD22382   4.295   1.918  14.932 -0.1283 -0.4771 -0.3651
  255SOD    SOD22383   0.816   4.428   3.868 -0.1364 -0.1029  0.3864
  256SOD    SOD22384   6.059   3.680   3.201 -0.1467  0.2897  0.2370
  257SOD    SOD22385   3.832   6.363   6.611 -0.0831 -0.1377  0.1442
  258SOD    SOD22386   5.492   4.292  11.922 -0.1944 -0.1586  0.9460
  259SOD    SOD22387   4.162   6.404  14.606  0.0899 -0.0568  0.2571
  260SOD    SOD22388   1.323   4.443   0.795 -0.1684  0.6047  0.3418
  261SOD    SOD22389   1.016   1.156  14.903  0.3927 -0.2918  0.0403
  262SOD    SOD22390   6.458   6.693   5.917  0.0367  0.9313  0.0398
  263SOD    SOD22391   3.032   5.967   6.991 -0.1846 -0.0108  0.0682
  264SOD    SOD22392   3.836   3.506   1.038  0.0991 -0.3264  0.2963
  265SOD    SOD22393   1.998   5.416  13.093 -0.4356 -0.2139  0.1164
  266CLA    CLA22394   4.100   2.188   2.016  0.2242  0.3482  0.2140
  267CLA    CLA22395   2.573   3.794   1.058  0.2543 -0.2599  0.4043
  268CLA    CLA22396   3.012   3.365   5.680 -0.4026 -0.2206 -0.1554
  269CLA    CLA22397   5.521   6.259   0.525  0.4530  0.3611 -0.0930
  270CLA    CLA22398   0.761   1.273  16.564  0.1151 -0.1053  0.3674
  271CLA    CLA22399   6.139   2.738   1.031 -0.2100 -0.0705 -0.0144
  272CLA    CLA22400   4.262   1.657  16.958  0.0668  0.0377 -0.1898
  273CLA    CLA22401   6.632   5.942  11.403 -0.2149  0.3308 -0.6420
  274CLA    CLA22402   6.027   4.736  12.834  0.0889 -0.3177  0.0409
  275CLA    CLA22403   3.162   4.455  12.456  0.1828 -0.0912 -0.1787
  276CLA    CLA22404   1.458   5.782   3.340  0.1548 -0.2318  0.0966
  277CLA    CLA22405   0.587   5.219   0.856 -0.1839 -0.4317  0.3255
  278CLA    CLA22406   6.765   0.615   2.077 -0.2838  0.1080 -0.6871
  279CLA    CLA22407   5.471   3.090  13.724 -0.1164 -0.2651 -0.1007
  280CLA    CLA22408   1.393   4.785   5.432  0.1797  0.2950  0.4903
  281CLA    CLA22409   0.926   5.541  12.893 -0.0702  0.2923 -0.3240
  282CLA    CLA22410   2.315   4.479  11.753 -0.1376  0.3040 -0.0668
  283CLA    CLA22411   5.883   5.913  13.878 -0.2686  0.0030 -0.0666
  284CLA    CLA22412   0.007   3.715   3.779 -0.1399 -0.0400 -0.2770
  285CLA    CLA22413   2.334   5.934  12.189 -0.3997  0.1541 -0.3993
  286CLA    CLA22414   3.942   4.290   0.732 -0.1064  0.0575 -0.1287
  287CLA    CLA22415   0.156   6.509   4.262  0.4591 -0.4570  0.0519
  288CLA    CLA22416   2.563   6.075  13.547 -0.1423  0.0928  0.3969
  289CLA    CLA22417   4.446   3.266  15.757  0.4684 -0.0241 -0.1703
  290CLA    CLA22418   3.012   6.441  11.440 -0.1741 -0.5852  0.2075
  291CLA    CLA22419   5.816   3.895  15.555  0.5190 -0.1104 -0.1738
  292CLA    CLA22420   3.345   2.507   1.002 -0.2537 -0.0775  0.5109
  293CLA    CLA22421   0.836   2.274  13.392 -0.1757 -0.2268  0.1505
  294CLA    CLA22422   2.515   6.731   4.820 -0.1210 -0.0493  0.2121
  295CLA    CLA22423   5.853   1.330   2.198 -0.1214 -0.0649 -0.2661
  296CLA    CLA22424   2.334   4.877  14.676 -0.0578  0.3771  0.1099
  297CLA    CLA22425   0.034   0.737  13.830  0.2822 -0.0682 -0.0248
  298CLA    CLA22426   0.952   4.285  17.174 -0.0150 -0.2451 -0.2463
  299CLA    CLA22427   6.435   3.916   3.404  0.3187 -0.0104 -0.1617
  300CLA    CLA22428   1.938   2.341  15.997  0.2958  0.2210  0.1231
  301CLA    CLA22429   2.585   0.293  15.985  0.0501  0.6493 -0.0952
  302CLA    CLA22430   6.701   2.754  11.477 -0.0639 -0.3823  0.1261
  303CLA    CLA22431   2.233   1.961  11.878 -0.2332  0.5394 -0.2921
  304CLA    CLA22432   5.872   2.046   0.215 -0.2446  0.2395  0.4631
  305CLA    CLA22433   6.022   2.904   3.855 -0.2909 -0.0681 -0.0016
  306CLA    CLA22434   5.558   2.725   3.955  0.0930 -0.0929  0.0495
  307CLA    CLA22435   6.573   0.362   3.514 -0.1890 -0.5437  0.0194
  308CLA    CLA22436   4.291   5.514   2.044  0.4411 -0.2515 -0.3850
  309CLA    CLA22437   6.135   2.938   5.207  0.1148  0.0362 -0.1509
  310CLA    CLA22438   1.962   1.028   1.095  0.1239  0.5094 -0.2092
  311CLA    CLA22439   4.641   6.415  16.420 -0.0607  0.1452  0.5495
  312CLA    CLA22440   4.098   2.446  14.823 -0.0109  0.2347  0.0167
  313CLA    CLA22441   4.140   2.875   0.770 -0.1593 -0.0788 -0.1146
  314CLA    CLA22442   6.387   3.690  13.047 -0.2084 -0.3231  0.2549
  315CLA    CLA22443   2.336   4.730  16.259  0.2195 -0.2205  0.2422
  316CLA    CLA22444   1.877   2.690  13.803  0.1046 -0.0409 -0.0205
  317CLA    CLA22445   2.595   5.863   2.795 -0.0038  0.1537  0.2234
  318CLA    CLA22446   1.169   4.050   0.969 -0.2940 -0.0207  0.1199
  319TIP3   OH222447   6.731   2.887  16.768  0.1289  0.4684 -0.0890
  319TIP3    H122448   6.656   2.937  16.736  0.4770  0.5191 -0.8560
  319TIP3    H222449   6.698   2.798  16.781 -0.3358  0.7441  0.6693
  320TIP3   OH222450   5.018   1.493  11.504  0.1279 -0.1609  0.0883
  320TIP3    H122451   5.045   1.485  11.412 -0.1321 -0.1885  0.0127
  320TIP3    H222452   4.970   1.412  11.522  0.0606 -0.0943  0.2087
  321TIP3   OH222453   2.442   1.221   4.773  0.2970  0.1916  0.6083
  321TIP3    H122454   2.386   1.242   4.698  0.2544 -1.6790  0.0597
  321TIP3    H222455   2.529   1.250   4.747  0.7141 -2.2597 -1.1462
  322TIP3   OH222456   0.531   4.989   3.398 -0.1172 -0.4178  0.1279
  322TIP3    H122457   0.593   4.922   3.371 -0.2069  0.0311 -1.2816
  322TIP3    H222458   0.447   4.943   3.405 -0.0502 -0.5881 -0.1740
  323TIP3   OH222459   4.699   0.665  16.809  0.2942 -0.0038 -0.1157
  323TIP3    H122460   4.762   0.707  16.868  1.5064 -1.2265 -0.4881
  323TIP3    H222461   4.675   0.584  16.854  0.4489 -0.4538 -0.8385
  324TIP3   OH222462   6.561   4.896   5.959  0.3344 -0.1780  0.1757
  324TIP3    H122463   6.623   4.858   5.897  0.0300  0.0533 -0.2708
  324TIP3    H222464   6.615   4.931   6.029  0.8116  1.1966 -0.8345
  325TIP3   OH222465   0.118   5.456  15.974 -0.8775 -0.2748 -0.0223
  325TIP3    H122466   0.041   5.502  15.940  0.4326  0.1716 -2.5933
  325TIP3    H222467   0.164   5.522  16.027 -0.2754  0.7119 -1.6976
  326TIP3   OH222468   4.486   4.114   6.586  0.1066  0.1253  0.2713
  326TIP3    H122469   4.566   4.112   6.534 -0.5337  1.9665 -0.8528
  326TIP3    H222470   4.515   4.140   6.673  0.9768 -1.3618  0.4661
  327TIP3   OH222471   6.794   5.151   4.540 -0.3836 -0.6237 -0.5749
  327TIP3    H122472   6.712   5.174   4.583 -1.3699 -0.4279 -2.4704
  327TIP3    H222473   6.785   5.184   4.450  1.6068 -0.9488 -0.9504
  328TIP3   OH222474   5.718   6.319  16.918 -0.1436  0.0779  0.1866
  328TIP3    H122475   5.703   6.382  16.989  0.5531  0.0355  0.3797
  328TIP3    H222476   5.813   6.307  16.916  0.0777  1.6924 -2.1541
  329TIP3   OH222477   2.784   1.066   2.003  0.4929  0.3610  0.0339
  329TIP3    H122478   2.708   1.008   2.003  0.5771  0.1842 -1.7806
  329TIP3    H222479   2.845   1.026   2.064  0.5397 -1.4951 -1.1402
  330TIP3   OH222480   3.998   6.198   2.328  0.0563  0.1235 -0.6406
  330TIP3    H122481   3.932   6.158   2.271  2.1830 -4.7977 -0.1420
  330TIP3    H222482   4.063   6.234   2.267 -1.3095  1.9238 -1.1251
  331TIP3   OH222483   0.363   2.695  10.824 -0.0789  0.1086  0.2214
  331TIP3    H122484   0.316   2.687  10.741 -0.7144 -0.5975  0.6383
  331TIP3    H222485   0.409   2.612  10.835  0.7515  0.5471  0.1378
  332TIP3   OH222486   0.633   3.546  12.513 -0.0786  0.1790  0.1838
  332TIP3    H122487   0.608   3.513  12.427  0.7142 -1.9824  0.7131
  332TIP3    H222488   0.721   3.581  12.501  1.2281 -2.6405  0.5503
  333TIP3   OH222489   1.620   4.385   2.969  0.2680  0.2955  0.2252
  333TIP3    H122490   1.619   4.291   2.952 -0.3960  0.5320 -1.1530
  333TIP3    H222491   1.707   4.401   3.007  1.0098 -0.6363 -0.9780
  334TIP3   OH222492   3.289   3.445   1.637  0.0615  0.2366  0.2838
  334TIP3    H122493   3.382   3.452   1.659  0.4802 -1.7436 -0.6148
  334TIP3    H222494   3.287   3.425   1.544 -1.3430  1.2836  0.0473
  335TIP3   OH222495   0.978   5.427   2.841 -0.5655 -0.3775  0.4929
  335TIP3    H122496   0.885   5.406   2.849 -0.6738  0.0165  0.3254
  335TIP3    H222497   0.990   5.447   2.748 -0.5634  0.6764  0.7066
  336TIP3   OH222498   4.371   6.322   0.910  0.1123  1.0108  0.3382
  336TIP3    H122499   4.370   6.267   0.831  1.1467  2.9170 -1.0914
  336TIP3    H222500   4.463   6.349   0.919 -0.1242  1.4181  1.7848
  337TIP3   OH222501   4.323   2.622   5.478 -0.5947  0.4920  0.0493
  337TIP3    H122502   4.402   2.623   5.532  1.2614  0.2357 -2.4295
  337TIP3    H222503   4.327   2.538   5.432 -1.2993  1.2321 -1.4453
  338TIP3   OH222504   6.647   5.557   5.923  0.2742 -0.0222  0.2984
  338TIP3    H122505   6.669   5.495   5.853 -1.5474  0.3201 -0.6325
  338TIP3    H222506   6.557   5.584   5.904 -0.0237  0.6413  2.3752
  339TIP3   OH222507   0.307   6.017  14.908 -0.5001 -0.3431  0.6003
  339TIP3    H122508   0.218   6.033  14.879 -0.5665 -1.3442  0.2175
  339TIP3    H222509   0.321   5.923  14.894  1.0754  0.0187 -0.7074
  340TIP3   OH222510   4.542   3.860   3.880 -0.0187  0.1998  0.1625
  340TIP3    H122511   4.615   3.867   3.818 -0.9618 -0.0951 -1.0196
  340TIP3    H222512   4.497   3.779   3.856  0.0831 -0.3796  1.8079
  341TIP3   OH222513   5.708   3.700  12.941 -0.3205  0.3094 -0.1752
  341TIP3    H122514   5.751   3.786  12.944 -0.6912  0.5321 -1.0031
  341TIP3    H222515   5.780   3.637  12.936 -0.0155  0.5051  1.2886
  342TIP3   OH222516   3.605   1.954  16.002 -0.3756  0.5279 -0.1051
  342TIP3    H122517   3.582   1.875  15.954 -0.6841  0.6421 -0.1503
  342TIP3    H222518   3.590   1.932  16.094  1.4210 -0.1078  0.0833
  343TIP3   OH222519   3.875   3.287   4.739  0.1589 -0.7962 -0.1842
  343TIP3    H122520   3.892   3.279   4.645 -0.0421 -1.5478 -0.1673
  343TIP3    H222521   3.864   3.196   4.768 -1.6312 -0.4660  0.2276
  344TIP3   OH222522   0.014   5.467   3.122 -0.0385  0.0768  0.5182
  344TIP3    H122523   0.005   5.480   3.028  2.3711  0.8598  0.3336
  344TIP3    H222524  -0.009   5.551   3.161 -2.3255 -0.6111  0.7988
  345TIP3   OH222525   6.160   3.534   4.801 -0.2516 -0.2288 -0.0609
  345TIP3    H122526   6.120   3.517   4.887 -1.2190  1.9455 -0.0036
  345TIP3    H222527   6.134   3.459   4.747  0.5025 -1.7092  1.5461
  346TIP3   OH222528   4.400   2.190   0.185  0.0544 -0.0646 -0.0242
  346TIP3    H122529   4.439   2.104   0.172 -0.7065 -0.2977 -0.8734
  346TIP3    H222530   4.306   2.176   0.173 -0.1209  0.7964  0.2691
  347TIP3   OH222531   0.781   6.210   3.487 -0.2231  0.4912  0.1104
  347TIP3    H122532   0.708   6.181   3.543  0.5844 -0.9562  0.4676
  347TIP3    H222533   0.749   6.291   3.447 -1.7689  0.2610  0.7779
  348TIP3   OH222534   3.038   5.635  16.837 -0.1812  0.5450 -0.0851
  348TIP3    H122535   3.050   5.730  16.845 -0.3095  0.8890 -2.9059
  348TIP3    H222536   3.123   5.602  16.809  0.0906 -0.3505  1.6574
  349TIP3   OH222537   1.433   5.443   0.416 -0.7218  0.2094 -0.2052
  349TIP3    H122538   1.356   5.487   0.380  0.2029  1.5535 -0.6391
  349TIP3    H222539   1.486   5.420   0.340 -0.4899 -0.3029  0.1058
  350TIP3   OH222540   3.704   5.591  16.240 -0.1315  0.0001 -0.2679
  350TIP3    H122541   3.644   5.632  16.178 -0.3356  0.4175  0.1977
  350TIP3    H222542   3.656   5.591  16.323  0.5657  0.4664  0.1379
  351TIP3   OH222543   5.781   4.441  16.156 -0.0112  0.1478  0.1675
  351TIP3    H122544   5.687   4.434  16.171  0.0932  1.9849  2.2904
  351TIP3    H222545   5.791   4.438  16.061 -2.6533  3.4449 -0.3883
  352TIP3   OH222546   0.511   0.537  15.925 -0.3278 -0.0574 -0.2876
  352TIP3    H122547   0.537   0.445  15.924 -2.1833 -0.6368 -1.9959
  352TIP3    H222548   0.488   0.557  15.834 -0.3105  2.0183  0.1056
  353TIP3   OH222549   1.669   4.566   4.408 -0.0501 -0.3498  0.6306
  353TIP3    H122550   1.619   4.629   4.356 -1.6707 -2.4760 -0.5501
  353TIP3    H222551   1.672   4.487   4.354  1.3742 -1.5090  2.2873
  354TIP3   OH222552   1.809   3.745  16.534 -0.3416  0.3418  0.5363
  354TIP3    H122553   1.862   3.759  16.612 -0.4474  1.7378  0.3784
  354TIP3    H222554   1.849   3.669  16.491 -0.0938 -0.2419  1.7611
  355TIP3   OH222555   0.582   0.878  15.182 -0.2341 -0.0796  0.5270
  355TIP3    H122556   0.546   0.966  15.187  1.6780  0.7739  0.0992
  355TIP3    H222557   0.570   0.842  15.270 -1.3711  0.4385  0.6069
  356TIP3   OH222558   5.383   3.621   2.464 -0.1943 -0.0323  0.3176
  356TIP3    H122559   5.378   3.567   2.543  1.6004 -0.3141  0.2832
  356TIP3    H222560   5.300   3.605   2.418 -0.3139 -1.6273  1.0266
  357TIP3   OH222561   1.354   4.225   2.173 -0.4131  0.3485  0.1374
  357TIP3    H122562   1.443   4.246   2.199  0.0895 -1.8511  0.3152
  357TIP3    H222563   1.300   4.250   2.248  0.2253  0.3199  0.6064
  358TIP3   OH222564   0.553   2.900   5.924 -0.0269 -0.3644 -0.0355
  358TIP3    H122565   0.623   2.836   5.940  1.1700  0.8727 -0.1138
  358TIP3    H222566   0.476   2.847   5.904  1.7340 -1.8340 -3.7350
  359TIP3   OH222567   4.993   2.374   4.881 -0.7015 -0.5370 -0.3225
  359TIP3    H122568   5.031   2.289   4.857  0.4197 -1.1275  2.9983
  359TIP3    H222569   5.067   2.434   4.882 -1.0700 -0.0766 -0.4178
  360TIP3   OH222570   5.176   3.271   0.008 -0.2324 -0.1995 -0.0485
  360TIP3    H122571   5.086   3.293  -0.014 -0.0607 -0.0915 -0.6809
  360TIP3    H222572   5.226   3.296  -0.070  0.4102  0.1948  0.4784
  361TIP3   OH222573   1.222   4.220   1.438  0.4757 -0.8401  0.5286
  361TIP3    H122574   1.291   4.268   1.392 -0.2037  0.1928  0.5569
  361TIP3    H222575   1.201   4.148   1.379 -0.7719  0.7833 -1.1153
  362TIP3   OH222576   3.422   5.833   3.312  0.7039 -0.0655 -0.8103
  362TIP3    H122577   3.473   5.780   3.251 -1.5821 -3.3077 -0.1261
  362TIP3    H222578   3.426   5.786   3.395 -0.7361  1.2961  0.0970
  363TIP3   OH222579   3.787   1.669  15.136  0.2565 -0.5606  0.1804
  363TIP3    H122580   3.869   1.632  15.167  0.0033 -0.9475  0.3962
  363TIP3    H222581   3.808   1.760  15.115  0.4271 -0.2693  1.5211
  364TIP3   OH222582   5.463   4.638  14.786 -0.1444  0.2058  0.0466
  364TIP3    H122583   5.455   4.664  14.878  0.3083  0.2867  0.0691
  364TIP3    H222584   5.508   4.553  14.789  1.9660  1.2407 -0.1651
  365TIP3   OH222585   6.707   1.898  12.306  0.7690 -0.1105  0.2580
  365TIP3    H122586   6.772   1.929  12.243 -0.5306  0.1282 -1.0403
  365TIP3    H222587   6.689   1.974  12.362  1.0108  0.0641  0.1001
  366TIP3   OH222588   2.599   4.428  11.914  0.0883  0.3293  0.3486
  366TIP3    H122589   2.606   4.334  11.929  1.3501  0.2650 -0.5704
  366TIP3    H222590   2.532   4.437  11.846 -2.0518  0.3218  2.2991
  367TIP3   OH222591   3.625   4.628  16.873 -0.4511 -0.1616  0.7141
  367TIP3    H122592   3.644   4.721  16.858 -0.4567 -0.3287 -0.4007
  367TIP3    H222593   3.642   4.615  16.966  1.5783  0.4807  0.4650
  368TIP3   OH222594   4.704   4.675  13.673  0.3407  0.3666  0.4353
  368TIP3    H122595   4.762   4.746  13.701 -1.4540  1.8845  0.4370
  368TIP3    H222596   4.682   4.628  13.753  2.0649 -0.6875  0.3524
  369TIP3   OH222597   5.765   2.204   2.629  0.1996  0.5636  0.2184
  369TIP3    H122598   5.821   2.130   2.653 -1.9095 -1.2290 -0.0076
  369TIP3    H222599   5.823   2.263   2.581  2.2658 -0.3340  1.4721
  370TIP3   OH222600   0.732   4.274   6.414  0.0282  0.1157  0.9932
  370TIP3    H122601   0.661   4.210   6.422  0.2182  0.0167  2.2092
  370TIP3    H222602   0.812   4.222   6.423  0.3982 -0.0722 -2.3705
  371TIP3   OH222603   3.603   5.343  12.421  0.5616  0.2031  0.5017
  371TIP3    H122604   3.676   5.288  12.450 -0.0838 -0.5713  0.6846
  371TIP3    H222605   3.549   5.285  12.367  1.5415  1.4964 -2.0194
  372TIP3   OH222606   6.076   1.512  11.311  0.1742  0.2751  0.2419
  372TIP3    H122607   6.149   1.495  11.370  1.7127  0.5916 -1.5100
  372TIP3    H222608   6.116   1.528  11.226 -1.9725 -0.1845 -0.9298
  373TIP3   OH222609   6.078   3.583   4.127  0.6722 -0.3937 -0.2560
  373TIP3    H122610   6.006   3.625   4.176  1.7497  0.0002  1.0490
  373TIP3    H222611   6.036   3.549   4.048 -0.6461  1.3246 -0.3640
  374TIP3   OH222612   0.857   3.537   3.197 -0.3244  0.7323 -0.3055
  374TIP3    H122613   0.838   3.445   3.181 -1.9360  1.2156 -1.4105
  374TIP3    H222614   0.902   3.567   3.118 -0.9739  1.1866 -0.5137
  375TIP3   OH222615   3.609   6.082  14.977  0.2706 -0.1406 -0.0778
  375TIP3    H122616   3.559   6.149  15.024 -0.1410  0.1826 -0.9561
  375TIP3    H222617   3.557   6.063  14.900  0.4382 -1.4194  0.1054
  376TIP3   OH222618   6.283   0.826   2.262  0.1995  0.1464 -0.1067
  376TIP3    H122619   6.203   0.815   2.210 -1.4803 -0.5492  2.4185
  376TIP3    H222620   6.354   0.820   2.198 -1.6881 -0.5026 -2.3057
  377TIP3   OH222621   2.881   5.134  12.646  0.2313  0.6761  0.2162
  377TIP3    H122622   2.792   5.129  12.610  0.3497  1.8784 -0.2531
  377TIP3    H222623   2.904   5.226  12.642  0.8944  0.6234  1.8389
  378TIP3   OH222624   4.869   2.983  16.652  0.0631 -0.4607  0.4317
  378TIP3    H122625   4.812   3.041  16.601 -1.3390 -2.6202 -0.6615
  378TIP3    H222626   4.956   3.021  16.645 -0.6641  1.0811 -0.8407
  379TIP3   OH222627   2.032   5.901  13.472 -0.2010  0.0999 -0.0166
  379TIP3    H122628   2.090   5.870  13.403  0.7894 -1.8420  1.5605
  379TIP3    H222629   1.957   5.939  13.426  0.0034 -1.8766 -2.1765
  380TIP3   OH222630   5.828   6.535   4.012 -0.0971  0.2611  0.1356
  380TIP3    H122631   5.799   6.626   4.008  0.5857  0.4503 -2.1724
  380TIP3    H222632   5.855   6.522   4.103 -1.1048  2.0591  0.7306
  381TIP3   OH222633   2.671   6.266   3.620 -0.3586  0.4623  0.2561
  381TIP3    H122634   2.703   6.223   3.699  0.3398 -1.6009 -1.0685
  381TIP3    H222635   2.743   6.260   3.558 -0.9768  1.8082 -0.6439
  382TIP3   OH222636   4.521   4.515   2.117 -0.2548  0.0534 -0.3986
  382TIP3    H122637   4.536   4.600   2.159 -0.3371  1.1633 -2.5101
  382TIP3    H222638   4.475   4.536   2.036  0.1072 -1.9789 -1.1824
  383TIP3   OH222639   6.539   1.500  17.109  0.3561 -0.3653 -0.1723
  383TIP3    H122640   6.562   1.480  17.018 -0.3775 -0.8470 -0.2614
  383TIP3    H222641   6.561   1.421  17.158  0.4889 -0.2060  0.0297
  384TIP3   OH222642   6.386   3.858  11.054 -0.6792 -0.4236 -0.0644
  384TIP3    H122643   6.457   3.808  11.015 -0.1426 -0.9004  1.4489
  384TIP3    H222644   6.331   3.793  11.098 -0.4062  0.2179  1.2697
  385TIP3   OH222645   3.310   2.496   2.949 -0.3586  0.4487 -0.3004
  385TIP3    H122646   3.315   2.468   3.040  0.6330  1.1719 -0.1081
  385TIP3    H222647   3.307   2.592   2.953 -0.5355  0.4821 -1.0143
  386TIP3   OH222648   5.230   2.275   0.703 -0.0501  0.0086 -0.2288
  386TIP3    H122649   5.186   2.352   0.739 -2.1775  0.0828 -2.6517
  386TIP3    H222650   5.312   2.308   0.667  0.0773  0.7126  0.6884
  387TIP3   OH222651   4.445   0.989   0.808 -0.4245  0.7393 -0.5463
  387TIP3    H122652   4.361   1.029   0.830 -0.7586  0.4273 -1.2132
  387TIP3    H222653   4.424   0.896   0.797  0.0413  0.6333 -0.5361
  388TIP3   OH222654   0.948   3.148   2.017  0.1011  0.3149  0.2179
  388TIP3    H122655   0.864   3.126   2.057 -0.4551 -0.9548 -1.4952
  388TIP3    H222656   0.986   3.215   2.074 -2.2586  1.2401  0.8066
  389TIP3   OH222657   3.568   2.468  11.059 -0.6702 -0.2067 -0.5040
  389TIP3    H122658   3.494   2.527  11.055 -1.8217 -1.4480  1.2374
  389TIP3    H222659   3.547   2.399  10.995 -1.1131 -0.6380  0.0977
  390TIP3   OH222660   2.707   4.257   0.107 -0.4950 -0.2007  0.0097
  390TIP3    H122661   2.722   4.165   0.130 -0.3185 -0.3081 -0.5186
  390TIP3    H222662   2.779   4.278   0.047  0.5193  0.8126  1.5207
  391TIP3   OH222663   5.259   6.501   2.038 -0.1123 -0.4804  0.4240
  391TIP3    H122664   5.163   6.504   2.040 -0.1840 -0.7709 -1.2976
  391TIP3    H222665   5.283   6.543   1.956  1.2501 -0.4369  0.8138
  392TIP3   OH222666   0.936   6.307  12.954  0.3532 -0.1379 -0.3137
  392TIP3    H122667   1.018   6.263  12.930  0.8877  0.1105  0.9956
  392TIP3    H222668   0.960   6.400  12.960 -0.1753  0.0165 -0.5151
  393TIP3   OH222669   0.733   5.348  15.275  0.3492 -0.1146 -0.0714
  393TIP3    H122670   0.759   5.381  15.189 -0.7213  1.0507  0.0060
  393TIP3    H222671   0.637   5.351  15.272  0.2618 -1.6459  0.5870
  394TIP3   OH222672   5.972   3.485  11.153 -0.2116 -0.3767  0.3253
  394TIP3    H122673   5.956   3.550  11.084  0.6729  0.0966  0.5590
  394TIP3    H222674   5.928   3.406  11.121 -0.0608 -0.0813 -0.6534
  395TIP3   OH222675   4.473   3.667   6.314  0.4643  0.1527 -0.2011
  395TIP3    H122676   4.397   3.621   6.280  0.8204 -0.5618 -0.0536
  395TIP3    H222677   4.529   3.598   6.349 -0.4562  0.9132  3.0509
  396TIP3   OH222678   0.310   2.113  16.245 -0.2332  0.1696  0.2482
  396TIP3    H122679   0.402   2.135  16.235 -0.3463  0.4379 -0.2163
  396TIP3    H222680   0.300   2.094  16.339  0.2786  0.1932  0.3092
  397TIP3   OH222681   6.652   1.248   0.489  0.1095 -0.0319 -0.0938
  397TIP3    H122682   6.622   1.306   0.418  0.5187  1.6340  1.0268
  397TIP3    H222683   6.719   1.299   0.534  1.1289 -1.7668  0.4275
  398TIP3   OH222684   0.424   0.278  12.644  0.0456 -0.5326 -0.3839
  398TIP3    H122685   0.353   0.263  12.582 -0.5234 -0.8740  0.3244
  398TIP3    H222686   0.456   0.191  12.665  0.5785 -0.3873 -0.5863
  399TIP3   OH222687   5.288   1.348   0.799  0.2252 -0.1224  0.2223
  399TIP3    H122688   5.217   1.284   0.812 -0.3890  0.0305 -2.0241
  399TIP3    H222689   5.364   1.308   0.841 -0.8637 -0.9097  1.5307
  400TIP3   OH222690   1.997   5.123   2.276 -0.5527 -0.8231 -0.0502
  400TIP3    H122691   1.923   5.180   2.296  0.8708  1.1309  0.0187
  400TIP3    H222692   1.974   5.081   2.194 -0.3975  2.4094 -1.9342
  401TIP3   OH222693   3.045   5.044   4.473 -0.6886  0.6330 -0.1680
  401TIP3    H122694   3.135   5.011   4.465 -1.6518 -2.4413  0.4835
  401TIP3    H222695   3.009   5.036   4.385 -0.4817  1.4347 -0.3315
  402TIP3   OH222696   1.037   5.048   1.548 -0.2429 -0.0268 -0.5464
  402TIP3    H122697   0.961   5.059   1.606  0.0218  0.2547 -0.2522
  402TIP3    H222698   1.112   5.045   1.607  0.0157  0.1248 -0.8668
  403TIP3   OH222699   5.821   5.509   4.374 -0.0055 -0.1894  0.1986
  403TIP3    H122700   5.893   5.569   4.394 -0.5890  0.1537  1.3758
  403TIP3    H222701   5.789   5.481   4.460  0.9561 -3.1036 -0.2567
  404TIP3   OH222702   3.473   5.063   1.907 -0.0461 -0.0639 -0.7879
  404TIP3    H122703   3.533   5.127   1.945  0.4577  0.5684 -2.5442
  404TIP3    H222704   3.500   4.979   1.945  0.4487  0.5213  0.1925
  405TIP3   OH222705   1.586   3.796  14.733 -0.2106 -0.4499 -0.0399
  405TIP3    H122706   1.575   3.746  14.814  0.0260 -1.5648 -0.6743
  405TIP3    H222707   1.509   3.853  14.730 -0.4413 -0.6984  0.7528
  406TIP3   OH222708   5.838   6.342  11.925 -0.3412 -0.4576  0.5268
  406TIP3    H122709   5.878   6.345  12.012  1.4998  1.4572 -0.3079
  406TIP3    H222710   5.878   6.266  11.883  1.0245  0.3163  0.3755
  407TIP3   OH222711   5.913   6.312   5.676  0.0543  0.1473  0.4932
  407TIP3    H122712   5.957   6.379   5.623 -0.8480 -0.3294 -0.9246
  407TIP3    H222713   5.822   6.340   5.680  0.2694  0.7168  2.7511
  408TIP3   OH222714   6.487   3.771  11.393  0.1000  0.2516 -0.2385
  408TIP3    H122715   6.407   3.802  11.350  0.4722  1.4208 -0.1225
  408TIP3    H222716   6.556   3.788  11.329  0.0162 -3.1143 -1.4281
  409TIP3   OH222717   1.263   0.779   5.239 -0.5132  0.2977  0.4152
  409TIP3    H122718   1.291   0.698   5.197 -0.1096 -0.1177  1.4370
  409TIP3    H222719   1.338   0.838   5.231 -0.9343  0.7147 -0.6430
  410TIP3   OH222720   4.619   1.356  16.956 -0.3383  0.3089 -0.2375
  410TIP3    H122721   4.556   1.320  17.018 -0.2381  1.4182  0.5295
  410TIP3    H222722   4.625   1.290  16.887  0.1605 -1.3160  1.3191
  411TIP3   OH222723   2.044   0.571   5.779  0.1587 -0.9256 -0.4239
  411TIP3    H122724   1.985   0.498   5.800 -1.6550  0.2735 -1.1383
  411TIP3    H222725   2.027   0.589   5.687  1.0439  0.0033 -0.4130
  412TIP3   OH222726   5.244   2.303  12.242  0.3680  0.0877  0.2290
  412TIP3    H122727   5.234   2.383  12.191  1.0394  0.6684  0.9734
  412TIP3    H222728   5.171   2.305  12.305  0.6580  0.3707  0.5635
  413TIP3   OH222729   0.284   0.142   4.453  0.0701 -0.5428 -0.3996
  413TIP3    H122730   0.194   0.158   4.482  0.2622 -0.8898  0.4063
  413TIP3    H222731   0.339   0.180   4.521  0.5473  0.0618 -1.1073
  414TIP3   OH222732   5.995   2.945  13.681  0.1041  0.6865 -0.1086
  414TIP3    H122733   5.950   3.025  13.656  0.8565  1.1353 -0.0536
  414TIP3    H222734   5.938   2.874  13.650  0.1893  1.2331 -1.5725
  415TIP3   OH222735   2.732   3.935   4.954 -0.0603 -0.0228  0.4326
  415TIP3    H122736   2.663   3.979   5.004 -0.4955  0.3174 -0.4602
  415TIP3    H222737   2.813   3.957   5.001 -0.4173  0.6401  0.7446
  416TIP3   OH222738   3.651   4.727  15.676 -0.0560  0.2067 -0.9537
  416TIP3    H122739   3.564   4.705  15.709  0.3206 -0.9918 -0.7122
  416TIP3    H222740   3.711   4.702  15.747  0.7714 -2.4236 -2.4669
  417TIP3   OH222741   5.051   2.204  16.082 -0.2959  0.0467 -0.5902
  417TIP3    H122742   4.963   2.241  16.089 -0.0507  0.4356  0.6938
  417TIP3    H222743   5.107   2.280  16.065 -0.3725 -0.3974 -3.2050
  418TIP3   OH222744   3.755   5.511   2.820  0.3663  0.2213 -0.4790
  418TIP3    H122745   3.705   5.592   2.821  0.3599  0.2160 -0.2400
  418TIP3    H222746   3.690   5.443   2.838 -0.0854 -0.1083 -3.0350
  419TIP3   OH222747   3.544   3.744   1.845 -0.3089 -0.8941 -0.4971
  419TIP3    H122748   3.609   3.697   1.791 -0.2399  0.4371 -1.6314
  419TIP3    H222749   3.504   3.676   1.898 -0.0778 -2.2334 -1.9463
  420TIP3   OH222750   5.102   4.121   0.374 -0.4421  0.0585  0.3766
  420TIP3    H122751   5.195   4.143   0.366 -0.3975 -0.2713 -0.0208
  420TIP3    H222752   5.074   4.165   0.455  0.0812  0.0783  0.5512
  421TIP3   OH222753   0.537   3.168  14.393  0.5014 -0.0330 -0.2324
  421TIP3    H122754   0.451   3.141  14.359  0.1022  0.4255  0.3916
  421TIP3    H222755   0.520   3.191  14.484  1.2605  0.2447 -0.1579
  422TIP3   OH222756   0.323   4.778  15.421 -0.7288  0.5616  0.3609
  422TIP3    H122757   0.236   4.810  15.445 -1.4623 -0.4901 -0.7425
  422TIP3    H222758   0.307   4.689  15.387  0.6669  0.6458 -0.6064
  423TIP3   OH222759   4.108   6.019  16.227  0.1997  0.3053  0.1419
  423TIP3    H122760   4.029   5.994  16.178  0.7582 -1.5783  0.1076
  423TIP3    H222761   4.172   6.039  16.159  0.1654  0.4298  0.1463
  424TIP3   OH222762   5.917   2.699  14.380 -0.1067  0.2497  0.0603
  424TIP3    H122763   5.832   2.655  14.387  0.8090 -1.5160  0.9236
  424TIP3    H222764   5.906   2.762  14.309 -2.9925  2.1963  2.0074
  425TIP3   OH222765   4.895   3.897   1.632  0.2040  0.2148 -0.1701
  425TIP3    H122766   4.969   3.897   1.570  0.8691 -0.7542  0.6052
  425TIP3    H222767   4.928   3.946   1.707  0.2712 -0.7122  0.4139
  426TIP3   OH222768   6.778   0.793   3.803 -0.5094  0.4421  0.6037
  426TIP3    H122769   6.777   0.698   3.793 -0.8546  0.2808  2.0134
  426TIP3    H222770   6.796   0.826   3.715  0.3005 -0.9394  0.2241
  427TIP3   OH222771   1.130   0.986   5.543  0.0603 -0.0739 -0.5986
  427TIP3    H122772   1.218   1.006   5.576  0.3324 -0.5208 -1.0471
  427TIP3    H222773   1.132   1.013   5.452 -0.2507 -0.1350 -0.6232
  428TIP3   OH222774   0.232   2.325   4.668  0.3120 -0.1328 -0.3247
  428TIP3    H122775   0.238   2.264   4.594 -1.8133  0.5021 -1.0790
  428TIP3    H222776   0.219   2.411   4.628 -3.0797 -0.0408  0.6934
  429TIP3   OH222777   2.547   6.329   2.619  0.8770 -0.0463 -0.3481
  429TIP3    H122778   2.626   6.300   2.573  0.8293 -0.9403  0.1100
  429TIP3    H222779   2.481   6.336   2.550  1.7001  2.1631 -0.9865
  430TIP3   OH222780   3.333   2.205   5.320  0.5942 -0.1047 -0.1383
  430TIP3    H122781   3.289   2.266   5.379 -0.2948  0.6760 -1.5499
  430TIP3    H222782   3.392   2.261   5.268 -0.4456 -0.3477 -1.6532
  431TIP3   OH222783   5.323   0.453   1.328  0.2073  0.9157 -0.0264
  431TIP3    H122784   5.368   0.409   1.256 -0.5641  0.2390 -0.1163
  431TIP3    H222785   5.247   0.495   1.286 -0.7637 -0.2486  0.4988
  432TIP3   OH222786   4.537   3.818  16.880 -0.1910  0.1408  0.3527
  432TIP3    H122787   4.456   3.840  16.926 -0.6159  2.6007 -1.3483
  432TIP3    H222788   4.569   3.902  16.847  2.5521 -0.8927  0.1083
  433TIP3   OH222789   2.899   4.119   0.915  0.5305  0.1229  0.8257
  433TIP3    H122790   2.846   4.186   0.871 -0.5796 -1.3022 -0.0956
  433TIP3    H222791   2.974   4.167   0.949 -0.3095  1.8652  0.3526
  434TIP3   OH222792   2.969   0.776  12.490 -0.1831  0.4771  0.0466
  434TIP3    H122793   2.960   0.754  12.397 -3.9355  0.0169  0.3603
  434TIP3    H222794   3.014   0.860  12.490 -0.3484  0.6353 -2.2116
  435TIP3   OH222795   3.043   2.808   4.766 -0.7296  0.1763 -0.0061
  435TIP3    H122796   3.057   2.732   4.709  0.4828  0.1206  0.3396
  435TIP3    H222797   3.081   2.881   4.718  0.6698  0.0579  0.8899
  436TIP3   OH222798   3.816   0.970   5.475 -0.0607 -0.4074 -0.6257
  436TIP3    H122799   3.780   0.934   5.393  1.1408  0.3771 -1.5329
  436TIP3    H222800   3.911   0.965   5.464  0.1486  1.4104 -0.0796
  437TIP3   OH222801   0.819   2.973  14.002 -0.0428  0.1755  0.1861
  437TIP3    H122802   0.850   2.926  14.079 -0.7814  0.5427  0.7065
  437TIP3    H222803   0.744   3.024  14.032  0.2625  1.0879 -0.5469
  438TIP3   OH222804   1.151   4.462  11.615 -0.9464 -0.1505 -0.0570
  438TIP3    H122805   1.091   4.535  11.599 -1.4657 -0.6103 -0.2249
  438TIP3    H222806   1.163   4.422  11.529  0.2648  0.4362 -0.1802
  439TIP3   OH222807   4.606   3.759  15.868  0.6180 -0.2416  0.3485
  439TIP3    H122808   4.654   3.740  15.949 -0.8954  1.0619  1.6202
  439TIP3    H222809   4.655   3.829  15.827  2.6730 -2.3936 -1.1230
  440TIP3   OH222810   3.585   2.165   1.021  0.5167  0.4265  0.1839
  440TIP3    H122811   3.491   2.147   1.010  0.5456  0.3190  0.1173
  440TIP3    H222812   3.618   2.172   0.931  0.4477  1.1034  0.2035
  441TIP3   OH222813   3.837   3.894  15.258 -0.2052  0.2312 -0.7092
  441TIP3    H122814   3.753   3.893  15.304 -0.5772  4.3618 -0.8785
  441TIP3    H222815   3.902   3.877  15.325 -0.9212  3.2952  0.9610
  442TIP3   OH222816   1.158   3.171   4.251  0.1914  0.1063 -0.5444
  442TIP3    H122817   1.118   3.143   4.333  0.5643  0.3616 -0.2693
  442TIP3    H222818   1.113   3.121   4.183 -0.8407  0.6559 -0.2801
  443TIP3   OH222819   0.382   0.329  14.802 -0.1672  0.4975 -0.0908
  443TIP3    H122820   0.444   0.349  14.732 -0.3052 -1.1933 -0.7327
  443TIP3    H222821   0.296   0.351  14.765 -0.3208 -1.1985 -0.8038
  444TIP3   OH222822   5.275   0.495   5.450 -0.1942 -0.4464 -0.4364
  444TIP3    H122823   5.253   0.428   5.516 -0.0847  0.7619  0.8722
  444TIP3    H222824   5.370   0.499   5.451 -0.1324 -1.2364 -1.5419
  445TIP3   OH222825   3.796   4.871   3.881  0.0669  0.4544  0.7467
  445TIP3    H122826   3.856   4.908   3.946  2.5422 -1.3492 -0.3540
  445TIP3    H222827   3.791   4.778   3.904  0.6991 -0.1406 -1.3476
  446TIP3   OH222828   0.907   5.984  12.908  0.0456 -0.2071 -0.1991
  446TIP3    H122829   0.950   6.030  12.980  0.7514  0.4439 -1.0177
  446TIP3    H222830   0.824   5.955  12.945  0.8219 -0.7917  1.1923
  447TIP3   OH222831   0.752   4.105  16.118  0.6239 -0.6242 -0.3921
  447TIP3    H122832   0.692   4.169  16.079 -0.9636 -2.2387 -0.7426
  447TIP3    H222833   0.804   4.073  16.044 -0.7771 -1.9898 -0.8369
  448TIP3   OH222834   1.602   1.511  16.903  0.1886 -0.2056 -0.6699
  448TIP3    H122835   1.628   1.601  16.922  0.2801  0.0849 -2.0118
  448TIP3    H222836   1.684   1.467  16.880  0.5100 -1.3033  2.1783
  449TIP3   OH222837   5.615   1.428   1.928 -0.1960 -0.0052 -0.0661
  449TIP3    H122838   5.597   1.517   1.957 -2.4655 -0.7479  1.0253
  449TIP3    H222839   5.677   1.438   1.855 -0.3936  2.4301  0.0427
  450TIP3   OH222840   4.525   4.278   1.451 -0.1745 -0.6706  0.0602
  450TIP3    H122841   4.444   4.323   1.430  0.6350  0.0742 -1.5875
  450TIP3    H222842   4.570   4.337   1.512 -1.6406 -1.9368  2.5113
  451TIP3   OH222843   1.780   4.728   2.843  0.5777  0.1388  0.3338
  451TIP3    H122844   1.842   4.659   2.818  0.3226 -0.3294  0.9721
  451TIP3    H222845   1.699   4.703   2.799  0.7863  0.6554 -0.3572
  452TIP3   OH222846   3.290   4.979   4.425 -0.5297  0.0787  0.0912
  452TIP3    H122847   3.348   4.918   4.468 -1.2191 -0.3771  0.3955
  452TIP3    H222848   3.344   5.021   4.358  1.2762  2.5084  2.8130
  453TIP3   OH222849   4.850   5.851  14.711 -0.2219  0.4337  0.4606
  453TIP3    H122850   4.918   5.869  14.775 -0.8707  2.9435  0.5361
  453TIP3    H222851   4.768   5.866  14.757 -0.8100 -0.7243 -0.1456
  454TIP3   OH222852   2.952   5.702  13.248 -0.2741  0.2875 -0.0434
  454TIP3    H122853   2.992   5.754  13.317  0.1442 -0.9333  0.6719
  454TIP3    H222854   2.858   5.718  13.257 -0.2771 -0.3630  1.2509
  455TIP3   OH222855   0.802   4.326   3.510  0.1656  0.5994  0.0019
  455TIP3    H122856   0.720   4.369   3.483 -1.0432 -2.3093 -1.3734
  455TIP3    H222857   0.844   4.302   3.428  0.6561 -1.0220  0.7012
  456TIP3   OH222858   0.022   5.145   3.837  0.1791 -0.2137 -0.0782
  456TIP3    H122859  -0.004   5.070   3.891  3.3948 -1.2320  0.3164
  456TIP3    H222860   0.042   5.106   3.752 -0.5298  0.6498 -0.6517
  457TIP3   OH222861   5.947   6.016   2.353 -0.0237  0.1066  0.3624
  457TIP3    H122862   6.000   5.967   2.291  2.0059  2.2662  0.2259
  457TIP3    H222863   5.882   6.062   2.299 -0.5404 -0.7243  0.2651
  458TIP3   OH222864   3.240   5.367   4.687 -0.0331  0.0592  0.5730
  458TIP3    H122865   3.224   5.382   4.594  1.3810 -2.3052 -0.1340
  458TIP3    H222866   3.165   5.316   4.716  0.0013 -0.0404  0.4867
  459TIP3   OH222867   5.295   1.177   1.786  0.5236 -0.3360 -0.1505
  459TIP3    H122868   5.320   1.154   1.875  0.9553  0.7105  0.0074
  459TIP3    H222869   5.311   1.271   1.779  1.2788 -0.5367 -1.5900
  460TIP3   OH222870   2.923   0.527   1.591 -0.1580 -0.0118 -0.6124
  460TIP3    H122871   2.835   0.492   1.602 -0.2108 -0.1475 -1.4275
  460TIP3    H222872   2.916   0.589   1.519 -0.5108  3.3407  2.0555
  461TIP3   OH222873   3.681   4.645  11.912 -0.1769  0.1079  0.1577
  461TIP3    H122874   3.700   4.594  11.991 -0.5541  0.2234  0.3283
  461TIP3    H222875   3.604   4.602  11.874 -0.4997  0.5481  0.3043
  462TIP3   OH222876   3.892   4.025  11.861 -0.6462 -0.1554  0.4513
  462TIP3    H122877   3.864   4.050  11.773  0.2630  3.0460  0.9475
  462TIP3    H222878   3.858   4.094  11.918  1.0644 -0.6792  2.2314
  463TIP3   OH222879   3.057   1.309  12.416  0.3405  0.7089  0.2679
  463TIP3    H122880   3.016   1.280  12.497 -2.4315  2.5902 -0.3153
  463TIP3    H222881   3.151   1.308  12.435  0.1917 -3.4605  1.8487
  464TIP3   OH222882   3.120   4.893   1.468  0.6903 -0.1960  0.1265
  464TIP3    H122883   3.082   4.935   1.545 -1.1108  0.3539 -1.0029
  464TIP3    H222884   3.108   4.957   1.398 -0.8641 -2.0205 -1.3618
  465TIP3   OH222885   4.482   5.674  12.323  0.0977 -0.3635 -0.2967
  465TIP3    H122886   4.453   5.595  12.278 -0.7246  0.1179 -0.6278
  465TIP3    H222887   4.495   5.646  12.414  0.4901 -1.0320 -0.5557
  466TIP3   OH222888   0.604   4.588  14.553 -0.9186  0.1652  0.4122
  466TIP3    H122889   0.588   4.654  14.485  1.6537  0.8573  0.3654
  466TIP3    H222890   0.603   4.637  14.635 -0.7082 -0.0481  0.5428
  467TIP3   OH222891   0.638   3.721   4.890  0.4680  0.2471  0.2816
  467TIP3    H122892   0.643   3.641   4.838 -0.3037 -0.4162  1.1862
  467TIP3    H222893   0.557   3.763   4.860  1.5095  1.3927 -1.1073
  468TIP3   OH222894   3.486   3.121   3.637  0.6795 -0.6106 -0.0812
  468TIP3    H122895   3.417   3.183   3.661  1.2299 -0.2777  0.6652
  468TIP3    H222896   3.463   3.094   3.548 -0.7045 -0.9031  0.3359
  469TIP3   OH222897   1.105   6.296  13.293 -0.1972 -0.2898 -0.4524
  469TIP3    H122898   1.022   6.263  13.325  0.1535  0.2491  1.0974
  469TIP3    H222899   1.116   6.381  13.336  1.9856 -1.1533  0.8711
  470TIP3   OH222900   0.252   5.268  17.053  0.8266 -0.3007 -0.6002
  470TIP3    H122901   0.273   5.240  17.142 -0.8136 -0.4163 -0.2112
  470TIP3    H222902   0.241   5.363  17.060 -0.2982 -0.4282 -0.4366
  471TIP3   OH222903   0.056   5.207  15.751  0.0701  0.1815 -0.4396
  471TIP3    H122904   0.029   5.118  15.772 -0.7870  0.3348 -0.8555
  471TIP3    H222905   0.145   5.214  15.786  0.0978 -0.7899 -0.2938
  472TIP3   OH222906   6.252   1.577   0.706  0.1535 -0.3904 -0.0510
  472TIP3    H122907   6.315   1.508   0.683 -0.0738 -0.2921 -1.0086
  472TIP3    H222908   6.189   1.577   0.634  0.4500  1.1874 -0.3496
  473TIP3   OH222909   4.668   3.042  11.266  0.3916  0.7307 -0.8050
  473TIP3    H122910   4.737   3.071  11.326 -0.8800  0.1183  1.0376
  473TIP3    H222911   4.652   2.950  11.290  0.3123  0.2382 -2.5781
  474TIP3   OH222912   5.386   6.453  15.495  0.6486  0.7284 -0.0164
  474TIP3    H122913   5.457   6.501  15.538  1.1692  1.0637 -1.2140
  474TIP3    H222914   5.428   6.407  15.422 -0.1044 -0.3582  0.1982
  475TIP3   OH222915   1.705   2.895  15.321  0.3793 -0.2484 -0.1449
  475TIP3    H122916   1.777   2.938  15.273  1.2634 -3.1699 -1.6275
  475TIP3    H222917   1.630   2.901  15.262  0.7788 -1.5536 -0.8202
  476TIP3   OH222918   0.036   5.587  12.203 -0.0243 -0.2485 -0.2576
  476TIP3    H122919  -0.027   5.544  12.146  0.5301 -0.7071 -0.5432
  476TIP3    H222920   0.068   5.517  12.260 -0.7140  0.2470  0.7542
  477TIP3   OH222921   5.247   2.952   1.616  0.4469  0.4481 -0.1880
  477TIP3    H122922   5.309   2.960   1.688 -0.0064 -0.4620  0.3240
  477TIP3    H222923   5.235   2.857   1.605 -1.0530  0.6054 -0.0827
  478TIP3   OH222924   2.031   3.099  17.245  0.2018  0.5118  0.4926
  478TIP3    H122925   2.037   3.158  17.320 -0.0201 -0.4702  1.2944
  478TIP3    H222926   2.071   3.148  17.173  1.5488  0.9996  1.5327
  479TIP3   OH222927   4.742   4.675  17.141 -0.9050  0.0633 -0.1320
  479TIP3    H122928   4.820   4.720  17.174 -0.9154 -0.3199  0.4107
  479TIP3    H222929   4.672   4.741  17.146 -1.2200 -0.3732  1.8946
  480TIP3   OH222930   2.081   3.241  15.026 -0.0143  0.0360 -0.0644
  480TIP3    H122931   2.095   3.311  14.962 -0.9397  1.0110  0.7474
  480TIP3    H222932   2.163   3.192  15.028  0.0860  0.0843 -1.8604
  481TIP3   OH222933   5.694   2.817   5.810 -1.1619  0.2575 -0.6316
  481TIP3    H122934   5.747   2.738   5.796 -1.1094  0.1431  0.1541
  481TIP3    H222935   5.605   2.790   5.789 -1.4473 -0.5746  1.4208
  482TIP3   OH222936   2.761   0.510  10.715 -0.5977 -0.2291 -0.3849
  482TIP3    H122937   2.748   0.518  10.621  1.5396 -1.4867 -0.8658
  482TIP3    H222938   2.716   0.585  10.753  0.2677  1.5138 -2.6055
  483TIP3   OH222939   6.570   1.569  16.506  0.2627  0.3900 -0.2177
  483TIP3    H122940   6.519   1.636  16.550  1.0565  1.2858 -0.6103
  483TIP3    H222941   6.519   1.547  16.428 -0.1621  0.2826  0.0897
  484TIP3   OH222942   2.016   2.179   3.992 -0.1888 -0.1743  0.7424
  484TIP3    H122943   2.025   2.155   3.900  0.8566  1.8854  0.2645
  484TIP3    H222944   1.939   2.235   3.995  0.6592  1.0248  0.8155
  485TIP3   OH222945   6.786   0.644   5.815 -0.0707  0.5379  0.4477
  485TIP3    H122946   6.720   0.648   5.746 -0.5628  0.7598  0.9259
  485TIP3    H222947   6.790   0.734   5.849 -1.3832  0.0130  2.1307
  486TIP3   OH222948   4.851   0.337  15.257 -0.4508  0.0975 -0.5454
  486TIP3    H122949   4.879   0.318  15.347 -0.4059 -0.5060 -0.6802
  486TIP3    H222950   4.931   0.327  15.205 -0.8164 -1.3094 -0.8847
  487TIP3   OH222951   4.213   2.039  16.719  0.3860  0.0991 -0.0061
  487TIP3    H122952   4.195   2.132  16.707  0.6634  0.2363  0.6343
  487TIP3    H222953   4.194   2.000  16.633  0.2881  0.7435 -0.2820
  488TIP3   OH222954   1.275   6.566  11.978  0.5138  0.5166 -0.1529
  488TIP3    H122955   1.357   6.568  11.929  0.9508  1.9553  0.5831
  488TIP3    H222956   1.207   6.549  11.912  1.4103 -1.2712 -0.6878
  489TIP3   OH222957   4.604   0.609  12.376 -0.1567 -0.0000 -0.3990
  489TIP3    H122958   4.641   0.694  12.351 -0.2318 -0.1853 -1.1588
  489TIP3    H222959   4.665   0.574  12.441  0.7877 -0.1303 -1.3432
  490TIP3   OH222960   5.807   5.946  13.562 -0.1655 -0.5460  0.4122
  490TIP3    H122961   5.862   6.021  13.538  0.5342 -1.2000 -0.0540
  490TIP3    H222962   5.842   5.918  13.647 -2.1497  1.2920  1.9510
  491TIP3   OH222963   2.630   0.460  13.879 -0.1671  0.2834 -0.3220
  491TIP3    H122964   2.538   0.486  13.871 -0.1049  0.9771  0.9754
  491TIP3    H222965   2.634   0.410  13.960  0.9014  1.8117  0.6227
  492TIP3   OH222966   6.054   5.436  12.846  0.4867  0.4147 -0.1004
  492TIP3    H122967   6.051   5.344  12.874 -0.5437 -0.1349 -1.8605
  492TIP3    H222968   6.148   5.457  12.846  0.8289 -0.9663 -0.5995
  493TIP3   OH222969   0.293   5.089   0.901 -0.0121  0.3220 -0.3668
  493TIP3    H122970   0.271   5.000   0.874 -0.8581 -0.0976  1.5532
  493TIP3    H222971   0.388   5.095   0.891  0.0550 -0.7841 -0.4889
  494TIP3   OH222972   2.816   0.535   2.660  0.5753 -0.2613 -0.1923
  494TIP3    H122973   2.879   0.605   2.675 -1.8252  1.6682  1.6698
  494TIP3    H222974   2.792   0.545   2.568  1.7861 -0.0184 -0.5048
  495TIP3   OH222975   4.291   0.853   5.909  0.3195  0.5926 -0.7128
  495TIP3    H122976   4.254   0.924   5.961 -1.3076 -0.7206  0.0065
  495TIP3    H222977   4.352   0.809   5.968  0.1096  0.4227 -0.6206
  496TIP3   OH222978   2.744   1.296  16.450  0.2691  0.2035  0.8996
  496TIP3    H122979   2.706   1.209  16.443  0.2468  0.1379  1.7115
  496TIP3    H222980   2.773   1.302  16.541 -0.0941  1.1876  0.9696
  497TIP3   OH222981   1.974   4.248  16.006  0.4334 -0.9418 -0.3569
  497TIP3    H122982   1.939   4.331  16.039 -0.7023 -1.8092  0.6634
  497TIP3    H222983   2.050   4.231  16.062 -0.0640 -1.2043  0.2426
  498TIP3   OH222984   3.711   3.651  12.988 -0.1406  0.2240  0.1783
  498TIP3    H122985   3.746   3.598  12.917 -0.9629  0.0231 -0.0797
  498TIP3    H222986   3.675   3.587  13.050 -1.1194  0.4704 -0.1271
  499TIP3   OH222987   5.555   3.649   2.978 -0.1787 -0.4788 -0.4403
  499TIP3    H122988   5.553   3.667   2.884 -0.4783 -1.7425 -0.6971
  499TIP3    H222989   5.511   3.724   3.018  0.8063  0.5339 -1.2195
  500TIP3   OH222990   0.987   0.479   2.525  0.1223 -0.6128 -0.2012
  500TIP3    H122991   0.902   0.524   2.518  0.5621  0.0058 -2.6071
  500TIP3    H222992   0.984   0.412   2.457  0.9129 -1.7752  0.8785
  501TIP3   OH222993   1.528   4.488  15.041 -0.2843  0.4284  0.2617
  501TIP3    H122994   1.521   4.490  15.137  2.0599  0.4107  0.4994
  501TIP3    H222995   1.452   4.538  15.010 -1.0505  0.4939  2.1292
  502TIP3   OH222996   5.964   3.280  13.030 -0.3915 -0.2025 -0.1473
  502TIP3    H122997   6.023   3.355  13.025 -0.7770  0.0132 -1.9257
  502TIP3    H222998   6.020   3.204  13.011 -0.2469 -0.2486  0.4429
  503TIP3   OH222999   6.706   5.086  15.999  0.3229  0.2488  0.3520
  503TIP3    H123000   6.773   5.043  16.052  1.0857 -0.8257 -1.3840
  503TIP3    H223001   6.683   5.165  16.048  1.4157 -0.3798  1.9500
  504TIP3   OH223002   6.161   5.404  16.193  0.0013  0.0385  0.1459
  504TIP3    H123003   6.223   5.330  16.199  0.4722  0.3202 -1.1105
  504TIP3    H223004   6.082   5.366  16.155 -0.4918 -0.2317  1.3755
  505TIP3   OH223005   2.525   2.573  12.058 -0.0670 -1.0637 -0.5411
  505TIP3    H123006   2.578   2.618  11.993 -0.4242  0.9103  0.4733
  505TIP3    H223007   2.582   2.505  12.092  1.8140  0.8760  0.3912
  506TIP3   OH223008   2.390   3.783   6.024 -0.0213  0.2334  0.7608
  506TIP3    H123009   2.470   3.792   5.971 -0.8396 -0.2336 -0.5883
  506TIP3    H223010   2.421   3.788   6.115  1.6996 -1.0904  0.2985
  507TIP3   OH223011   4.926   0.969  14.709 -0.0533  0.1741  0.5612
  507TIP3    H123012   4.964   0.938  14.791 -1.6752 -0.3765  1.1430
  507TIP3    H223013   4.915   1.063  14.721 -1.2935 -0.0695  1.4185
  508TIP3   OH223014   4.908   4.573  12.070  0.1166  0.5264  0.3162
  508TIP3    H123015   4.961   4.621  12.006  2.2095 -1.2808  0.5888
  508TIP3    H223016   4.907   4.629  12.147  2.8570  0.0639  0.7753
  509TIP3   OH223017   2.222   6.309   5.347  0.2330 -0.3051 -0.4227
  509TIP3    H123018   2.246   6.287   5.257  0.5678 -0.9069 -0.1879
  509TIP3    H223019   2.257   6.397   5.360  0.7753 -0.4817 -0.6622
  510TIP3   OH223020   4.077   3.363   2.599  0.2280 -0.4609 -0.2820
  510TIP3    H123021   4.002   3.335   2.651 -0.3014 -0.2521 -0.9168
  510TIP3    H223022   4.039   3.397   2.518  1.0772 -1.6244 -1.2011
  511TIP3   OH223023   4.536   3.581   5.099  0.4942  0.6060  0.2358
  511TIP3    H123024   4.462   3.632   5.131  0.0552  0.3131 -0.2882
  511TIP3    H223025   4.598   3.646   5.065 -0.2835  0.7780 -0.8955
  512TIP3   OH223026   3.146   3.395  12.271  0.0494  0.4225 -0.1684
  512TIP3    H123027   3.163   3.330  12.339 -0.7618  0.9514  0.5667
  512TIP3    H223028   3.082   3.354  12.214 -0.5085  0.5769  0.3296
  513TIP3   OH223029   3.322   6.610  17.340 -0.1894  0.2164 -0.0977
  513TIP3    H123030   3.329   6.697  17.302 -0.1369  0.3009  0.1041
  513TIP3    H223031   3.231   6.603  17.369  0.3401  1.0974  1.9985
  514TIP3   OH223032   0.657   4.444  16.626 -0.5655  0.3792  0.8198
  514TIP3    H123033   0.621   4.520  16.672 -1.1581  1.8539 -1.8696
  514TIP3    H223034   0.751   4.461  16.624 -0.5089  0.2093  1.5783
  515TIP3   OH223035   1.488   0.620  10.842 -0.4046 -0.1903  0.2230
  515TIP3    H123036   1.486   0.663  10.927 -1.4102  0.1077  0.0621
  515TIP3    H223037   1.571   0.572  10.841  1.0885  2.2117  0.1668
  516TIP3   OH223038   0.143   6.485   3.433 -0.0310  0.1775  0.1061
  516TIP3    H123039   0.202   6.543   3.384  1.2560 -2.5719 -1.8668
  516TIP3    H223040   0.178   6.486   3.523 -0.6157  3.0333  0.3821
  517TIP3   OH223041   1.951   2.058   0.464 -0.5909  0.8838  0.0639
  517TIP3    H123042   2.041   2.059   0.497 -1.1353  0.3813  1.6563
  517TIP3    H223043   1.956   2.100   0.378  0.8587  2.5903  0.9172
  518TIP3   OH223044   6.232   2.438   3.147  0.3552  0.4295  0.1897
  518TIP3    H123045   6.204   2.528   3.161 -0.4608 -0.1031  2.3239
  518TIP3    H223046   6.164   2.385   3.189  1.1417 -1.1630 -0.4661
  519TIP3   OH223047   1.473   0.425   5.154  0.0173 -0.0806 -0.3655
  519TIP3    H123048   1.480   0.473   5.072 -2.4863  2.1711  0.5906
  519TIP3    H223049   1.529   0.473   5.215  0.5676 -0.7596 -0.3193
  520TIP3   OH223050   2.113   3.373  17.129  0.3825  0.1907 -0.5829
  520TIP3    H123051   2.077   3.458  17.104 -0.6712  0.2172  0.8659
  520TIP3    H223052   2.204   3.391  17.152 -0.0595  1.1202  0.5541
  521TIP3   OH223053   6.250   3.887   2.930  0.6164  0.0207  0.3151
  521TIP3    H123054   6.196   3.812   2.908  0.1111  0.9558 -1.8347
  521TIP3    H223055   6.338   3.851   2.940  0.1001 -1.0871  1.0632
  522TIP3   OH223056   0.110   4.933  15.748 -0.4448 -0.4869  0.3105
  522TIP3    H123057   0.139   4.937  15.657 -2.8874 -1.0453 -0.5414
  522TIP3    H223058   0.135   4.846  15.777  0.2896 -0.3270  0.1915
  523TIP3   OH223059   3.481   0.424  13.379  0.5095  0.1539 -0.2658
  523TIP3    H123060   3.567   0.383  13.364  1.2803  1.4576  0.3646
  523TIP3    H223061   3.449   0.443  13.290  1.1395  0.1459 -0.5073
  524TIP3   OH223062   2.393   6.510  14.138 -0.0990 -0.5183  0.0370
  524TIP3    H123063   2.390   6.480  14.047  0.4445 -1.0491  0.1842
  524TIP3    H223064   2.431   6.436  14.186 -0.3459 -0.2243  0.6861
  525TIP3   OH223065   3.157   0.252   2.886 -0.4258  1.1176 -0.1378
  525TIP3    H123066   3.188   0.177   2.834 -1.6103  0.7214 -0.2906
  525TIP3    H223067   3.231   0.273   2.943  0.2405  0.3883 -0.7065
  526TIP3   OH223068   4.133   1.626  11.226  0.2232  0.2782 -0.2264
  526TIP3    H123069   4.092   1.713  11.223  1.1543  0.8731  2.0754
  526TIP3    H223070   4.059   1.566  11.233 -0.4258  0.8992 -1.4644
  527TIP3   OH223071   0.154   2.369  16.303 -0.5337  0.0112  0.6090
  527TIP3    H123072   0.191   2.286  16.275  1.2401  0.5555  1.2297
  527TIP3    H223073   0.093   2.345  16.373 -1.8665 -0.9420 -0.7991
  528TIP3   OH223074   2.430   2.631  15.085 -0.4351  0.6008  0.4645
  528TIP3    H123075   2.432   2.693  15.158 -1.0895  0.0881  0.9179
  528TIP3    H223076   2.369   2.563  15.111  1.0518 -0.8226  0.4247
  529TIP3   OH223077   1.856   0.170   3.195 -0.0943  0.2320 -0.3651
  529TIP3    H123078   1.864   0.202   3.285 -0.3279 -0.1963 -0.1875
  529TIP3    H223079   1.935   0.117   3.181  0.2774  0.8496 -0.6486
  530TIP3   OH223080   6.734   5.750   3.504 -0.4494 -0.2063  0.0012
  530TIP3    H123081   6.655   5.734   3.557 -0.5344 -0.0673 -0.0820
  530TIP3    H223082   6.793   5.796   3.563 -0.5686  0.0057 -0.0415
  531TIP3   OH223083   6.149   4.223  14.243 -0.8135  0.2579 -0.1979
  531TIP3    H123084   6.075   4.190  14.193 -0.3779  0.0058 -0.6853
  531TIP3    H223085   6.184   4.145  14.287 -0.4119  0.2512 -0.5269
  532TIP3   OH223086   0.619   4.068   1.070  0.0954 -0.1831  0.3444
  532TIP3    H123087   0.712   4.053   1.088  0.4859  0.0935 -1.3429
  532TIP3    H223088   0.579   4.077   1.157  1.7635  0.4454  1.0747
  533TIP3   OH223089   5.048   0.614   2.776 -0.3172  0.5729  0.0768
  533TIP3    H123090   5.143   0.611   2.782 -0.2869  1.1106 -0.0728
  533TIP3    H223091   5.020   0.525   2.797  0.2603  0.2232 -0.5765
  534TIP3   OH223092   6.129   3.722  16.783  0.1651  0.2522  0.1742
  534TIP3    H123093   6.173   3.731  16.868 -0.5974 -0.9503  0.7237
  534TIP3    H223094   6.198   3.689  16.725  0.0055 -1.9880  1.1166
  535TIP3   OH223095   4.500   3.068  11.653  0.2130  0.0232 -0.5376
  535TIP3    H123096   4.419   3.097  11.695  1.8844 -0.5903  3.6571
  535TIP3    H223097   4.556   3.145  11.651 -0.2817  0.4037 -3.2532
  536TIP3   OH223098   1.400   6.123   6.046  0.7374 -1.2344  0.5865
  536TIP3    H123099   1.451   6.111   5.966  1.7177 -1.0253  1.1678
  536TIP3    H223100   1.464   6.117   6.116  0.1631  0.2752  1.2756
  537TIP3   OH223101   6.222   4.389   2.968 -0.3956 -0.2344  0.3956
  537TIP3    H123102   6.286   4.338   2.918  1.0510  1.0371  0.8540
  537TIP3    H223103   6.153   4.410   2.904  0.7844  0.2886 -0.7570
  538TIP3   OH223104   3.545   4.972  14.339 -0.1372 -0.5394  0.2363
  538TIP3    H123105   3.559   4.937  14.427 -3.6408  1.3932  1.7201
  538TIP3    H223106   3.483   4.911  14.299 -0.5556  0.0029  0.0633
  539TIP3   OH223107   4.889   6.609   6.194 -0.0869  0.3147  0.5611
  539TIP3    H123108   4.900   6.534   6.252  0.1886  0.2249  0.3970
  539TIP3    H223109   4.826   6.665   6.238 -0.3275 -0.0355  0.6624
  540TIP3   OH223110   0.543   2.847  16.298  0.0244 -0.1983 -0.4958
  540TIP3    H123111   0.508   2.761  16.272  0.2077 -0.3152 -0.3593
  540TIP3    H223112   0.517   2.906  16.227 -0.0203 -0.3854 -0.6365
  541TIP3   OH223113   4.008   0.590  14.555 -0.2080  0.4568 -0.6418
  541TIP3    H123114   4.081   0.555  14.608 -0.3363  0.1722 -0.6557
  541TIP3    H223115   3.968   0.513  14.515 -0.3481  0.6410 -0.8548
  542TIP3   OH223116   2.968   2.977  13.310  0.0482 -0.2177 -0.3621
  542TIP3    H123117   2.929   2.916  13.247 -0.0896  0.7773 -1.2709
  542TIP3    H223118   2.981   3.058  13.260  0.1959  0.5143  0.8230
  543TIP3   OH223119   4.512   4.261   3.475  0.0554  0.7730  0.3641
  543TIP3    H123120   4.597   4.220   3.462 -0.0293  0.6712  0.1315
  543TIP3    H223121   4.532   4.354   3.488  0.2081  0.7373  0.3850
  544TIP3   OH223122   1.260   5.707   2.844 -0.1296  0.0447  0.2121
  544TIP3    H123123   1.338   5.666   2.884  1.2604  0.0082 -2.3059
  544TIP3    H223124   1.259   5.796   2.879 -0.3432 -0.6285  2.0292
  545TIP3   OH223125   2.567   4.732  12.156  0.0487 -0.0275 -0.5225
  545TIP3    H123126   2.657   4.710  12.131  0.0124  0.2694 -0.9265
  545TIP3    H223127   2.520   4.738  12.073 -0.2398  0.2864 -0.3398
  546TIP3   OH223128   1.364   6.404  14.435  0.3754  0.5442  0.2899
  546TIP3    H123129   1.383   6.368  14.522 -0.7922  1.1905  0.8346
  546TIP3    H223130   1.393   6.495  14.439  0.5872  0.4997 -0.1057
  547TIP3   OH223131   0.268   1.682   1.221 -0.1484 -0.3602 -0.1836
  547TIP3    H123132   0.238   1.718   1.137 -0.9162 -3.1278 -1.2091
  547TIP3    H223133   0.344   1.736   1.245  1.1952 -0.5364 -3.5501
  548TIP3   OH223134   5.061   1.274   3.866 -0.0778  0.2047  0.1857
  548TIP3    H123135   5.094   1.352   3.822  1.9531 -0.1130  1.0117
  548TIP3    H223136   5.060   1.207   3.798 -0.2149  0.5344 -0.1418
  549TIP3   OH223137   5.693   1.865  12.659 -0.0601  0.0197 -0.2210
  549TIP3    H123138   5.680   1.824  12.574  1.6119 -1.6570  0.2786
  549TIP3    H223139   5.653   1.804  12.721 -2.8399  2.0441  0.1672
  550TIP3   OH223140   0.099   0.656  14.980  0.9392 -0.1447  0.2403
  550TIP3    H123141   0.097   0.660  14.884 -0.2946  0.5397  0.2696
  550TIP3    H223142   0.095   0.748  15.007  0.6915 -0.3575  0.9452
  551TIP3   OH223143   3.050   4.955   0.214 -0.2186 -0.5305  0.1345
  551TIP3    H123144   2.974   4.978   0.161  0.7428  0.7456 -0.7314
  551TIP3    H223145   3.100   4.893   0.161 -0.1423 -0.6024  0.2872
  552TIP3   OH223146   2.402   4.934  13.219  0.0533  0.0552  0.1721
  552TIP3    H123147   2.476   4.988  13.247 -0.0328 -0.0383  0.5761
  552TIP3    H223148   2.325   4.977  13.255 -0.1705  0.6111 -0.9380
  553TIP3   OH223149   0.497   5.371  12.628 -0.3058  0.5656  0.1344
  553TIP3    H123150   0.450   5.298  12.667  0.2549  0.1354  0.0211
  553TIP3    H223151   0.586   5.365  12.664  0.7610 -0.8784 -2.4136
  554TIP3   OH223152   5.231   1.425  14.634 -0.5172 -0.0638 -0.7790
  554TIP3    H123153   5.197   1.343  14.598 -0.1291 -0.2132 -0.8087
  554TIP3    H223154   5.306   1.446  14.579 -0.2418 -0.0117 -0.3871
  555TIP3   OH223155   3.522   1.126  11.919 -0.3732 -0.2888  0.1597
  555TIP3    H123156   3.596   1.085  11.875 -1.1835 -0.0173 -1.5478
  555TIP3    H223157   3.489   1.058  11.978  0.9451 -0.5560  0.6254
  556TIP3   OH223158   4.759   0.428  14.858 -0.3023  0.2421 -0.1163
  556TIP3    H123159   4.781   0.498  14.919  0.5741  0.4823 -0.6949
  556TIP3    H223160   4.826   0.362  14.871 -0.4723  0.0111 -0.3771
  557TIP3   OH223161   5.329   1.601   3.113  0.3516  0.3357 -0.3123
  557TIP3    H123162   5.420   1.572   3.103 -0.1218 -1.4019  0.1332
  557TIP3    H223163   5.329   1.652   3.194  0.8411 -0.0413 -0.0671
  558TIP3   OH223164   4.771   0.792   6.456  0.7524 -0.0696 -0.4383
  558TIP3    H123165   4.692   0.825   6.413 -0.8420 -0.6344  1.8732
  558TIP3    H223166   4.809   0.733   6.391 -2.4354 -2.1792 -0.6374
  559TIP3   OH223167   1.751   5.945  13.048  0.1142 -0.1358  0.0878
  559TIP3    H123168   1.661   5.979  13.051  0.4821  0.8507  0.7243
  559TIP3    H223169   1.752   5.885  12.974 -0.7079  0.9206 -0.8110
  560TIP3   OH223170   4.686   2.629  13.907  0.1292  0.1640  0.2257
  560TIP3    H123171   4.661   2.703  13.851 -0.9462 -1.6626 -1.8479
  560TIP3    H223172   4.764   2.593  13.865  0.5167 -0.0266  1.0947
  561TIP3   OH223173   6.701   0.988   4.908  0.0567 -0.1515 -0.4440
  561TIP3    H123174   6.675   1.071   4.868  2.6958  0.5314 -0.9379
  561TIP3    H223175   6.678   0.922   4.843  0.2704  0.4948 -1.1942
  562TIP3   OH223176   6.445   0.765   5.313 -0.6818  0.7492 -0.0110
  562TIP3    H123177   6.373   0.715   5.350  0.2445 -0.8664 -0.3173
  562TIP3    H223178   6.511   0.768   5.383 -1.1764  2.6015  0.4305
  563TIP3   OH223179   0.033   1.436  15.886 -0.0852 -0.3757  0.4774
  563TIP3    H123180   0.079   1.361  15.925  1.2382 -0.6724 -1.5122
  563TIP3    H223181   0.036   1.504  15.953  1.3167 -1.1489  1.2305
  564TIP3   OH223182   4.142   6.398   1.579 -0.2843 -0.7125  0.1696
  564TIP3    H123183   4.172   6.322   1.528 -0.5383  0.0298 -1.1155
  564TIP3    H223184   4.201   6.469   1.553 -0.1716 -0.4079  1.2216
  565TIP3   OH223185   6.772   3.799  14.503 -0.2683  0.0311 -0.1330
  565TIP3    H123186   6.797   3.890  14.488 -0.7201 -0.1607 -2.2209
  565TIP3    H223187   6.677   3.799  14.504 -0.3115 -0.1112  2.2312
  566TIP3   OH223188   2.308   1.468   4.404 -0.0929  0.4552  0.1304
  566TIP3    H123189   2.324   1.556   4.370 -0.6902  0.3754 -0.3798
  566TIP3    H223190   2.217   1.470   4.434 -0.1232  0.0032  0.0806
  567TIP3   OH223191   1.607   5.448  15.147 -0.4290  0.5035 -0.0727
  567TIP3    H123192   1.643   5.467  15.233  2.0259  0.0849 -0.9458
  567TIP3    H223193   1.583   5.534  15.111  0.3778  0.8798  0.2656
  568TIP3   OH223194   6.706   5.065   3.258  0.1458 -0.2724 -0.5467
  568TIP3    H123195   6.635   5.080   3.196 -1.7049 -0.0759  1.5295
  568TIP3    H223196   6.783   5.102   3.215 -1.1141  0.1413 -2.5725
  569TIP3   OH223197   0.298   5.548  17.059 -0.2476 -0.2351  0.1531
  569TIP3    H123198   0.234   5.604  17.014 -0.9854 -1.8057 -0.8471
  569TIP3    H223199   0.382   5.592  17.048 -0.9886  1.3368  0.5745
  570TIP3   OH223200   0.979   5.031  11.240  0.0937 -0.0742 -0.1444
  570TIP3    H123201   0.997   5.040  11.147 -1.6794  2.6709 -0.3250
  570TIP3    H223202   1.016   5.110  11.279  0.8579 -1.2007  1.5459
  571TIP3   OH223203   2.463   6.016   4.493  0.4493  0.1545  0.0288
  571TIP3    H123204   2.559   6.012   4.496  0.4324  0.2062  1.0185
  571TIP3    H223205   2.435   5.929   4.465  0.6649 -1.4671  4.0732
  572TIP3   OH223206   3.642   6.132  13.168  0.4216  0.5715  0.0471
  572TIP3    H123207   3.677   6.219  13.148  1.4928  0.0270 -0.5098
  572TIP3    H223208   3.610   6.099  13.084  2.1369 -0.4852 -0.2326
  573TIP3   OH223209   5.396   5.558  10.310 -0.8055  0.4304 -0.2097
  573TIP3    H123210   5.455   5.621  10.352 -1.5480  1.8018 -1.1601
  573TIP3    H223211   5.336   5.611  10.258 -1.6162 -1.0567 -0.8731
  574TIP3   OH223212   6.017   0.179   3.925 -0.1741  0.2811 -0.3515
  574TIP3    H123213   6.108   0.154   3.939  0.0453  1.4867  0.5611
  574TIP3    H223214   6.019   0.275   3.922 -1.3055  0.3057 -1.1378
  575TIP3   OH223215   3.668   4.838  16.460 -0.2760 -0.0627  0.2942
  575TIP3    H123216   3.620   4.825  16.542  0.8339 -0.2080  0.9501
  575TIP3    H223217   3.757   4.861  16.488  0.4726 -1.3912 -0.8734
  576TIP3   OH223218   4.162   4.593  15.815 -0.3446  0.1992 -0.7070
  576TIP3    H123219   4.243   4.570  15.861 -0.9630  0.1791  0.4166
  576TIP3    H223220   4.134   4.511  15.774 -0.6190 -0.2036  0.2383
  577TIP3   OH223221   3.170   2.483   5.450 -0.3119 -0.2061  0.3292
  577TIP3    H123222   3.185   2.408   5.508 -2.0405  0.5497  1.8545
  577TIP3    H223223   3.091   2.461   5.401  1.4421 -1.0924 -2.3172
  578TIP3   OH223224   6.398   1.008  16.809  0.3406  0.0072  0.5979
  578TIP3    H123225   6.370   0.964  16.729  0.8647  0.1711  0.3217
  578TIP3    H223226   6.455   0.945  16.853  2.6067  1.0357 -0.6956
  579TIP3   OH223227   1.947   3.797   6.171 -0.3634 -0.1332  0.5029
  579TIP3    H123228   1.930   3.802   6.077 -1.6678  1.0026  0.7735
  579TIP3    H223229   1.905   3.874   6.208  0.6263 -0.2445  1.9698
  580TIP3   OH223230   5.214   2.609  12.846  0.5150  0.2713  0.1164
  580TIP3    H123231   5.291   2.603  12.902  2.0713  1.4949 -1.7603
  580TIP3    H223232   5.155   2.668  12.893  0.4695 -0.9872  1.7652
  581TIP3   OH223233   0.446   0.988   4.243  0.6267  0.6004  0.1851
  581TIP3    H123234   0.394   1.049   4.191 -1.0658 -2.5237 -2.1095
  581TIP3    H223235   0.498   0.939   4.178  0.7052 -1.4456  1.6921
  582TIP3   OH223236   2.644   3.974   2.845 -0.0295  0.2225 -0.1156
  582TIP3    H123237   2.555   3.979   2.811 -0.6949 -0.7987  1.4035
  582TIP3    H223238   2.684   3.901   2.798 -0.2903  0.0900 -0.1289
  583TIP3   OH223239   0.089   1.225  11.821  0.1459 -0.4798 -0.3093
  583TIP3    H123240   0.086   1.134  11.851 -3.1132  0.5245  3.1732
  583TIP3    H223241   0.060   1.221  11.730  0.7691 -2.9281 -0.4633
  584TIP3   OH223242   6.160   0.857  15.403 -0.3528 -0.0334  0.0251
  584TIP3    H123243   6.103   0.802  15.457 -0.6664  0.6046  0.3434
  584TIP3    H223244   6.148   0.945  15.437 -0.5366  0.3782 -1.0781
  585TIP3   OH223245   4.799   1.123  11.976 -0.2407 -0.1192  0.1990
  585TIP3    H123246   4.759   1.209  11.987 -0.7137 -0.0888 -1.5225
  585TIP3    H223247   4.886   1.132  12.015  0.0396  1.3993 -0.7173
  586TIP3   OH223248   4.999   6.476  15.651 -0.0267  0.0330  0.0720
  586TIP3    H123249   4.997   6.514  15.738 -0.7626  0.8315 -0.2843
  586TIP3    H223250   4.972   6.385  15.664 -1.7284  0.5677  0.4815
  587TIP3   OH223251   1.741   0.782   2.442 -0.0758  0.2116  0.4524
  587TIP3    H123252   1.811   0.845   2.422 -0.7685  0.5049 -1.3154
  587TIP3    H223253   1.673   0.835   2.482  0.3829  0.0726  1.4382
  588TIP3   OH223254   2.658   5.643  13.717  0.1801  0.0163 -0.0232
  588TIP3    H123255   2.658   5.568  13.777  0.5292 -0.1245 -0.1913
  588TIP3    H223256   2.595   5.704  13.754  1.1388  0.3845  1.0661
  589TIP3   OH223257   0.375   2.876   6.281 -0.6031  0.1648  0.0426
  589TIP3    H123258   0.418   2.799   6.244  0.1810  0.0930  1.0769
  589TIP3    H223259   0.446   2.930   6.315 -1.3065 -0.1651  2.1932
  590TIP3   OH223260   5.313   5.447  13.720 -0.1843 -0.0796  0.1174
  590TIP3    H123261   5.408   5.443  13.730 -0.1475  0.9450  0.2981
  590TIP3    H223262   5.289   5.534  13.753 -1.2967 -0.6916  1.0179
  591TIP3   OH223263   2.527   1.614   6.164 -0.3722  0.3054  0.0976
  591TIP3    H123264   2.478   1.597   6.244 -0.5251  0.3271  0.0091
  591TIP3    H223265   2.509   1.538   6.109  0.0012  0.1308  0.2136
  592TIP3   OH223266   0.576   3.145  13.789 -0.0898 -0.0384 -0.3613
  592TIP3    H123267   0.503   3.206  13.804 -0.6262 -0.8275  0.3487
  592TIP3    H223268   0.609   3.126  13.877 -0.5621 -1.5098 -0.4681
  593TIP3   OH223269   4.005   0.601   6.062  0.5636 -0.5148  0.2434
  593TIP3    H123270   3.936   0.553   6.107  0.3043  2.0162  2.8702
  593TIP3    H223271   3.958   0.658   6.001  0.2971  0.6845  1.5125
  594TIP3   OH223272   1.391   2.588  12.248  0.4838  0.0426  0.0438
  594TIP3    H123273   1.389   2.513  12.188  1.5445  0.7858 -0.9682
  594TIP3    H223274   1.309   2.634  12.231 -0.1083 -0.7914  0.5691
  595TIP3   OH223275   2.288   3.054   0.718  0.3981 -0.4668 -0.5852
  595TIP3    H123276   2.378   3.038   0.746  0.7338  1.9793 -0.1211
  595TIP3    H223277   2.293   3.058   0.622  0.4546 -1.9472 -0.6695
  596TIP3   OH223278   0.216   5.835   0.302 -0.8180  0.0732 -0.0927
  596TIP3    H123279   0.241   5.752   0.342 -0.4555  0.3496  0.2718
  596TIP3    H223280   0.162   5.878   0.368  1.1746  1.2754  0.8521
  597TIP3   OH223281   1.254   1.440  11.596  0.4690 -0.0479  0.0276
  597TIP3    H123282   1.256   1.349  11.624  2.5817 -0.8641 -2.3891
  597TIP3    H223283   1.312   1.485  11.658  1.2340 -0.8109 -0.1190
  598TIP3   OH223284   2.062   2.094   3.685 -0.1369  0.2460 -0.4756
  598TIP3    H123285   2.124   2.164   3.667  0.3876  0.0155  0.3915
  598TIP3    H223286   2.066   2.038   3.607  1.1144 -0.0363 -0.2317
  599TIP3   OH223287   1.361   0.610  11.989  0.3574  0.0597  0.7779
  599TIP3    H123288   1.342   0.643  12.076  0.3896 -2.4029  1.8034
  599TIP3    H223289   1.442   0.654  11.963 -0.4165  1.8849  1.3407
  600TIP3   OH223290   3.092   0.993  13.546 -0.7430  1.0649 -0.1528
  600TIP3    H123291   3.020   0.933  13.527 -0.1951  0.5971 -0.8160
  600TIP3    H223292   3.054   1.058  13.605 -1.8200  1.0607 -0.8098
  601TIP3   OH223293   4.029   1.447   3.271 -0.2963 -0.2662  0.1570
  601TIP3    H123294   4.010   1.495   3.191  3.7396  2.2645  0.4412
  601TIP3    H223295   3.957   1.469   3.330 -2.5325 -0.9417 -2.1205
  602TIP3   OH223296   6.426   4.840   3.638  0.0886  0.1044  0.6023
  602TIP3    H123297   6.509   4.852   3.684  0.6789  0.2235 -0.4766
  602TIP3    H223298   6.425   4.907   3.570 -0.4113 -0.5660 -0.0731
  603TIP3   OH223299   6.298   6.338  17.093 -0.0396 -0.1477  0.4225
  603TIP3    H123300   6.320   6.277  17.164  3.2629 -0.5227 -0.7659
  603TIP3    H223301   6.338   6.300  17.015 -1.6109  1.4208 -1.2460
  604TIP3   OH223302   0.277   5.261   3.555 -0.0586  0.0809 -0.2426
  604TIP3    H123303   0.238   5.347   3.569 -4.9721 -1.5960 -1.4977
  604TIP3    H223304   0.284   5.253   3.460  1.1244 -0.6502 -0.1119
  605TIP3   OH223305   6.391   2.884  15.685  0.0600  0.0099 -0.0986
  605TIP3    H123306   6.359   2.820  15.748 -0.9600  0.8079  0.2216
  605TIP3    H223307   6.367   2.848  15.600  0.8394 -0.7464 -0.0112
  606TIP3   OH223308   1.032   2.651   1.704 -0.4226  0.1798  0.8210
  606TIP3    H123309   1.052   2.565   1.666 -1.8726 -0.1525  0.7210
  606TIP3    H223310   1.041   2.712   1.631  2.2043  0.4114  1.2481
  607TIP3   OH223311   1.396   0.796  12.215 -0.6952 -0.0990 -0.0418
  607TIP3    H123312   1.328   0.848  12.258  0.4805  1.7997 -0.3658
  607TIP3    H223313   1.417   0.726  12.278 -3.2484 -1.0823 -0.1491
  608TIP3   OH223314   2.733   0.400  14.462 -0.3414 -0.0074 -0.8996
  608TIP3    H123315   2.790   0.433  14.393  1.2961  0.2925  0.5217
  608TIP3    H223316   2.782   0.328  14.501 -0.4700  0.8306  0.9367
  609TIP3   OH223317   0.249   0.523   0.145  0.0158  0.3362 -0.9119
  609TIP3    H123318   0.235   0.489   0.056 -0.4405  1.7591 -1.4059
  609TIP3    H223319   0.167   0.564   0.168  0.1561  0.0304  0.1664
  610TIP3   OH223320   1.126   5.525   1.628  0.1658 -0.1218  0.1838
  610TIP3    H123321   1.146   5.555   1.540  1.7756  2.0687  1.1935
  610TIP3    H223322   1.127   5.604   1.682 -0.9629 -1.3556  2.1559
  611TIP3   OH223323   0.974   5.018  14.476  0.2111 -0.0921  0.5049
  611TIP3    H123324   1.031   5.040  14.549  1.5595 -0.3281 -0.4517
  611TIP3    H223325   0.911   4.955  14.512  1.4581 -0.9446  1.2332
  612TIP3   OH223326   4.032   5.742   4.128 -0.0887 -0.3705 -0.8703
  612TIP3    H123327   4.020   5.669   4.067 -1.1773  0.2082 -1.3633
  612TIP3    H223328   4.127   5.757   4.128  0.0649 -1.2395 -1.3915
  613TIP3   OH223329   2.627   6.551   3.056  0.8937  0.4852  0.4984
  613TIP3    H123330   2.602   6.465   3.090 -0.3199  0.5634 -0.1199
  613TIP3    H223331   2.678   6.532   2.978  0.4721  0.3076  0.2574
  614TIP3   OH223332   2.113   5.918   3.351 -0.3873  0.2912  0.0109
  614TIP3    H123333   2.095   5.959   3.436 -1.3485  1.1538 -0.5919
  614TIP3    H223334   2.042   5.855   3.340  0.1111 -0.2973  0.1405
  615TIP3   OH223335   3.030   0.958  14.602 -0.2865  0.4060 -0.3100
  615TIP3    H123336   3.090   0.908  14.657 -2.4952 -2.1833 -0.0174
  615TIP3    H223337   3.039   0.919  14.516 -0.5110  1.0137 -0.6152
  616TIP3   OH223338   1.862   6.266  11.006  0.1290  0.1069  0.3084
  616TIP3    H123339   1.899   6.218  11.080  1.7167 -0.9656 -1.0930
  616TIP3    H223340   1.818   6.198  10.954 -0.6876  0.7895  0.0961
  617TIP3   OH223341   5.022   3.022  16.133 -0.5665  0.3048  0.2988
  617TIP3    H123342   4.993   3.113  16.137  2.7797  1.6109 -1.4302
  617TIP3    H223343   5.000   2.993  16.045 -0.1088  0.0118  0.2792
  618TIP3   OH223344   1.439   5.800  13.974  0.4771 -0.2387 -0.3197
  618TIP3    H123345   1.471   5.781  14.062 -0.0353 -2.5710 -0.5627
  618TIP3    H223346   1.343   5.796  13.982  0.4334 -0.8615 -1.0303
  619TIP3   OH223347   0.794   6.009   3.002 -0.3589  0.8173 -0.5726
  619TIP3    H123348   0.887   5.989   2.992 -0.3976 -0.2634  0.8649
  619TIP3    H223349   0.754   5.924   3.023 -1.9684  0.9417 -2.8521
  620TIP3   OH223350   2.655   1.312   5.726  0.0186 -0.1310  0.1607
  620TIP3    H123351   2.560   1.296   5.727  0.2012 -1.3159 -0.2953
  620TIP3    H223352   2.687   1.271   5.807  0.2802 -0.6530 -0.2067
  621TIP3   OH223353   2.370   3.717  12.931 -0.4205  0.5434  0.0732
  621TIP3    H123354   2.374   3.809  12.958 -1.0264  0.3945  0.6995
  621TIP3    H223355   2.457   3.699  12.895 -0.3351  1.3945 -0.1809
  622TIP3   OH223356   1.363   0.097  12.810 -0.2902 -0.2326 -0.0470
  622TIP3    H123357   1.448   0.052  12.812 -0.2908 -0.2050  0.8917
  622TIP3    H223358   1.359   0.135  12.722  2.0621  2.3872  0.8434
  623TIP3   OH223359   1.541   4.801   2.591 -0.1229  0.0858  0.2261
  623TIP3    H123360   1.578   4.720   2.627  1.3097 -0.1263 -1.5774
  623TIP3    H223361   1.446   4.789   2.597 -0.0072 -2.5091 -1.5214
  624TIP3   OH223362   1.780   2.633   5.146  0.0786 -0.0806  0.1088
  624TIP3    H123363   1.864   2.609   5.107  0.1415 -1.2977  0.9748
  624TIP3    H223364   1.715   2.608   5.081  0.4148  2.5234 -1.3812
  625TIP3   OH223365   6.198   0.437  11.364 -0.4135 -0.7042  0.3785
  625TIP3    H123366   6.181   0.508  11.425 -2.7820 -0.1208 -0.8607
  625TIP3    H223367   6.166   0.469  11.280  0.9786 -2.2189 -0.7903
  626TIP3   OH223368   1.994   6.698  15.818 -0.0307  0.1610 -0.2009
  626TIP3    H123369   2.038   6.617  15.843 -3.2467 -1.1637  1.8050
  626TIP3    H223370   2.060   6.766  15.832  1.2394 -1.5453  3.3368
  627TIP3   OH223371   2.956   0.573   4.576 -0.1481 -0.0155 -0.6518
  627TIP3    H123372   2.955   0.575   4.672 -2.1525  1.4027 -0.6462
  627TIP3    H223373   2.905   0.495   4.553 -0.9710  0.4767 -0.5369
  628TIP3   OH223374   1.584   6.735  12.725  0.4155  0.2250 -0.3473
  628TIP3    H123375   1.603   6.712  12.634  1.0516  0.5543 -0.3013
  628TIP3    H223376   1.669   6.758  12.762  0.1497  0.1541  0.3168
  629TIP3   OH223377   5.860   2.861   0.994  0.3228 -0.8972 -0.5296
  629TIP3    H123378   5.925   2.797   1.021  0.8168  0.5999  2.1809
  629TIP3    H223379   5.909   2.923   0.939  0.7731 -0.8083 -0.0414
  630TIP3   OH223380   4.310   6.054  13.105 -0.1103  0.0381 -0.1636
  630TIP3    H123381   4.241   6.021  13.048 -0.1792  0.2586 -0.2106
  630TIP3    H223382   4.388   6.004  13.081 -0.3437 -0.4923  0.1634
  631TIP3   OH223383   4.822   3.717   1.238  0.7421  0.5903 -0.2763
  631TIP3    H123384   4.813   3.661   1.160  0.3817 -0.9770  0.8480
  631TIP3    H223385   4.752   3.781   1.229  0.7451  0.4825 -1.2663
  632TIP3   OH223386   5.515   5.977  10.584 -0.2219  0.6176  0.1043
  632TIP3    H123387   5.487   5.926  10.660 -1.2730 -0.6793 -1.1054
  632TIP3    H223388   5.439   5.979  10.527  1.5141 -1.5288 -2.5312
  633TIP3   OH223389   0.010   0.046  12.733 -0.4053 -0.3723 -0.1707
  633TIP3    H123390  -0.013   0.016  12.821  1.4313  0.8902  0.7987
  633TIP3    H223391   0.028   0.139  12.742 -0.2939 -0.1734 -1.9329
  634TIP3   OH223392   6.410   6.712   0.769  0.6417  0.0756 -0.0666
  634TIP3    H123393   6.352   6.777   0.730 -0.4389  0.1569  1.5449
  634TIP3    H223394   6.407   6.637   0.710 -0.0061  0.6144 -0.7273
  635TIP3   OH223395   4.822   6.187  14.775  0.3085 -1.0085  0.3057
  635TIP3    H123396   4.911   6.172  14.806  1.5574 -0.3994 -2.6491
  635TIP3    H223397   4.828   6.180  14.680 -1.7544  3.9185 -0.4671
  636TIP3   OH223398   3.933   5.424  12.413  0.4332  0.3420  0.0147
  636TIP3    H123399   3.896   5.409  12.500  1.4616 -0.2908  0.3582
  636TIP3    H223400   3.866   5.394  12.352 -0.0340  0.1858  0.6015
  637TIP3   OH223401   2.968   2.305  12.799  0.1683  0.2463 -0.6725
  637TIP3    H123402   3.038   2.365  12.773  1.9111 -1.6947 -0.6716
  637TIP3    H223403   2.928   2.278  12.716 -0.6911  1.4325 -0.6669
  638TIP3   OH223404   5.053   2.594   5.400  0.5946  0.4383 -0.6709
  638TIP3    H123405   5.049   2.630   5.312  0.3462 -0.3965 -1.0141
  638TIP3    H223406   4.973   2.543   5.409 -1.5402  3.7612  1.5310
  639TIP3   OH223407   0.425   1.153  15.525 -0.5566  0.0619 -0.2163
  639TIP3    H123408   0.466   1.165  15.611  1.3885 -0.0955 -1.0600
  639TIP3    H223409   0.334   1.177  15.539  0.1781  2.3135  1.3818
  640TIP3   OH223410   3.889   1.672  14.533 -0.4939 -0.0030 -0.4387
  640TIP3    H123411   3.893   1.590  14.482 -2.0330 -0.3444 -0.0676
  640TIP3    H223412   3.922   1.648  14.619  0.3965  0.1354 -0.7255
  641TIP3   OH223413   3.796   5.142  12.481 -0.4679 -0.1851  0.5659
  641TIP3    H123414   3.743   5.072  12.445 -1.1745  1.3464 -1.5567
  641TIP3    H223415   3.886   5.114  12.466 -0.7169 -1.1184  0.7616
  642TIP3   OH223416   5.393   1.190  11.610  0.7976  0.5125  0.0044
  642TIP3    H123417   5.440   1.107  11.603 -1.2199 -0.5993 -1.0684
  642TIP3    H223418   5.418   1.238  11.531 -0.4575 -0.4375 -1.0131
  643TIP3   OH223419   1.793   3.810   0.630  0.3227 -0.4503 -0.6710
  643TIP3    H123420   1.806   3.805   0.536  3.7014  1.8454 -0.5310
  643TIP3    H223421   1.870   3.767   0.667 -0.4539 -0.4514  1.0437
  644TIP3   OH223422   2.466   6.762   0.764  0.3820 -0.6660  0.2615
  644TIP3    H123423   2.379   6.766   0.805 -0.0661  0.8718 -0.7481
  644TIP3    H223424   2.449   6.728   0.676  0.9573 -1.3822  0.4247
  645TIP3   OH223425   6.596   6.663  11.383 -0.6088  0.2895  0.0382
  645TIP3    H123426   6.518   6.698  11.427 -0.8418 -0.2593  0.0626
  645TIP3    H223427   6.614   6.581  11.427 -0.0835  0.3576 -0.0484
  646TIP3   OH223428   1.205   0.957   3.641 -0.0904  0.3401  0.7610
  646TIP3    H123429   1.249   0.998   3.715 -2.8631  1.4748  1.9057
  646TIP3    H223430   1.138   1.020   3.615  1.1155  0.3066 -3.2173
  647TIP3   OH223431   4.886   5.816   0.373 -0.2452 -0.0760  0.5823
  647TIP3    H123432   4.861   5.755   0.442 -0.4168  1.3447  1.8266
  647TIP3    H223433   4.966   5.779   0.336  0.7078 -0.1296  2.5822
  648TIP3   OH223434   0.047   6.665  12.513  0.2591 -0.0496 -0.0505
  648TIP3    H123435   0.138   6.638  12.506  0.3525  0.2288  0.1012
  648TIP3    H223436   0.039   6.703  12.601  0.4795  1.7739 -0.7771
  649TIP3   OH223437   0.367   4.221   5.961  0.2009 -0.5612 -0.3374
  649TIP3    H123438   0.333   4.143   6.004 -1.0034  0.2034  0.1499
  649TIP3    H223439   0.460   4.221   5.982 -0.2758 -0.3620  2.1438
  650TIP3   OH223440   3.474   6.664  17.059 -0.5531  0.4369  0.0052
  650TIP3    H123441   3.407   6.689  16.996 -0.1168 -0.0294 -0.6551
  650TIP3    H223442   3.505   6.746  17.097 -1.1577  0.6833 -0.0333
  651TIP3   OH223443   6.114   4.002  12.778 -0.2290  0.3718  0.2231
  651TIP3    H123444   6.153   4.075  12.826 -0.0761  0.4978 -0.0959
  651TIP3    H223445   6.110   4.031  12.687 -2.1907  0.8589  0.4080
  652TIP3   OH223446   4.376   0.014   5.565  0.4599 -0.1608 -0.0469
  652TIP3    H123447   4.345   0.004   5.656 -1.4073 -0.6356 -0.6790
  652TIP3    H223448   4.350   0.102   5.541 -0.7677 -0.6778 -0.6943
  653TIP3   OH223449   0.538   1.795  14.075 -0.1744 -0.2180  0.9067
  653TIP3    H123450   0.491   1.729  14.126  1.6618 -2.0927  0.2826
  653TIP3    H223451   0.625   1.800  14.115 -0.0475  1.3435  0.5090
  654TIP3   OH223452   6.573   5.083  13.919  0.6656 -0.0612 -0.8380
  654TIP3    H123453   6.520   5.154  13.955 -0.3278 -1.1035 -0.1613
  654TIP3    H223454   6.516   5.041  13.854  0.4160 -1.4948  0.2354
  655TIP3   OH223455   2.825   2.484   2.460  0.3413 -0.0338  0.0733
  655TIP3    H123456   2.851   2.454   2.373  0.6294  0.1792  0.0837
  655TIP3    H223457   2.731   2.469   2.464  0.0733  1.2357 -0.8009
  656TIP3   OH223458   6.132   5.698   1.491  0.7478  0.1005 -0.1797
  656TIP3    H123459   6.163   5.735   1.408  0.1049  1.7128  0.2560
  656TIP3    H223460   6.091   5.772   1.536 -0.3165 -1.1014  0.8954
  657TIP3   OH223461   2.477   1.277   2.367  0.9548  0.1907  0.4834
  657TIP3    H123462   2.572   1.270   2.373  0.9733  0.8798  0.9958
  657TIP3    H223463   2.462   1.355   2.313  0.6770  1.2062  1.9709
  658TIP3   OH223464   1.751   3.312  11.775 -0.4876  0.9745  0.3490
  658TIP3    H123465   1.742   3.406  11.764  2.4735  1.0549 -3.2775
  658TIP3    H223466   1.712   3.275  11.695  1.6549 -0.5223 -0.0802
  659TIP3   OH223467   0.472   5.080  14.269  0.2982 -1.0644 -0.2125
  659TIP3    H123468   0.454   5.005  14.325  2.9146  0.4006  2.9892
  659TIP3    H223469   0.394   5.135  14.276  0.7935 -0.5205  3.0462
  660TIP3   OH223470   2.655   6.253   0.823 -0.5526  0.0548  0.2071
  660TIP3    H123471   2.705   6.206   0.756 -2.6461 -1.2936 -0.5224
  660TIP3    H223472   2.713   6.256   0.899  0.9829 -0.5480 -0.9053
  661TIP3   OH223473   5.555   1.346   2.240 -0.0979  0.5594  0.7435
  661TIP3    H123474   5.589   1.433   2.261 -0.6179  0.7863  0.6559
  661TIP3    H223475   5.628   1.301   2.198  0.0662  1.0733  0.4718
  662TIP3   OH223476   3.400   2.793   5.620 -0.5996  0.2400  0.0701
  662TIP3    H123477   3.442   2.853   5.681  1.1400 -1.0635  0.2342
  662TIP3    H223478   3.346   2.736   5.676 -0.2199  0.0258  0.2230
  663TIP3   OH223479   3.475   3.949   2.130 -0.0981  0.1773  0.2216
  663TIP3    H123480   3.474   3.864   2.085 -2.0434  1.4495 -2.3230
  663TIP3    H223481   3.565   3.980   2.119 -0.0887 -0.3175 -1.3669
  664TIP3   OH223482   0.583   2.726   1.827 -0.0961  0.0671 -0.1867
  664TIP3    H123483   0.663   2.775   1.805 -1.4190  1.6377 -1.7431
  664TIP3    H223484   0.605   2.635   1.808  1.5357  0.3609  0.0934
  665TIP3   OH223485   0.533   3.804  14.187  0.4191  0.4218  0.0087
  665TIP3    H123486   0.518   3.750  14.264 -1.3332  0.8681  0.0103
  665TIP3    H223487   0.566   3.743  14.121 -2.2722 -0.8641 -0.2535
  666TIP3   OH223488   5.182   6.739  16.926  0.1179 -0.8164 -0.4457
  666TIP3    H123489   5.147   6.803  16.987  0.2532 -0.2818 -0.9235
  666TIP3    H223490   5.139   6.657  16.950 -3.1109  0.1612 -2.2838
  667TIP3   OH223491   1.480   5.868  14.902 -0.3042 -0.1703 -0.2831
  667TIP3    H123492   1.560   5.862  14.851  0.2385  0.0397  0.5344
  667TIP3    H223493   1.410   5.856  14.838  0.3900 -1.7016 -0.8052
  668TIP3   OH223494   0.226   4.054  11.766 -0.2362  0.1164  0.1354
  668TIP3    H123495   0.234   4.145  11.738 -0.3258  0.5358  1.4335
  668TIP3    H223496   0.182   4.011  11.692  2.1434  0.4994 -1.6377
  669TIP3   OH223497   2.881   6.487  13.395 -0.4626  0.0587  0.2078
  669TIP3    H123498   2.839   6.495  13.310 -0.7323 -0.9625  0.2353
  669TIP3    H223499   2.819   6.436  13.448  0.4971 -0.8790  0.4567
  670TIP3   OH223500   1.273   1.101   1.818 -0.2737  0.0527 -0.0160
  670TIP3    H123501   1.327   1.077   1.743  1.4525  1.9851  0.4987
  670TIP3    H223502   1.183   1.100   1.786  0.4048  0.6414 -2.0671
  671TIP3   OH223503   5.996   0.610  15.300 -0.0277 -0.0234 -0.1635
  671TIP3    H123504   5.903   0.621  15.322 -0.4650 -2.3976 -0.5542
  671TIP3    H223505   6.004   0.651  15.213 -0.8283 -0.2509 -0.3552
  672TIP3   OH223506   0.947   1.706   4.826 -0.1882  0.2410 -0.1332
  672TIP3    H123507   0.951   1.652   4.747  1.1817  0.8819 -0.5285
  672TIP3    H223508   1.021   1.767   4.818 -0.0032  0.3217  1.6340
  673TIP3   OH223509   1.280   6.587   4.255  0.2772  0.0070  0.3218
  673TIP3    H123510   1.311   6.572   4.166 -0.7968 -1.0951  0.1025
  673TIP3    H223511   1.360   6.591   4.308  1.0832  2.8815 -0.9173
  674TIP3   OH223512   3.755   2.948   5.950  0.2659  0.0824  0.2470
  674TIP3    H123513   3.713   2.919   6.031 -1.3246  1.0565 -0.1790
  674TIP3    H223514   3.726   2.885   5.884  1.1520 -0.4160  0.3165
  675TIP3   OH223515   5.198   2.951   4.203 -0.4449 -0.1119  0.0075
  675TIP3    H123516   5.241   2.893   4.139 -0.4744  0.0485 -0.1562
  675TIP3    H223517   5.247   3.033   4.199 -0.3618 -0.1456  0.2887
  676TIP3   OH223518   6.542   6.192  13.070 -0.1902  0.4544  0.7416
  676TIP3    H123519   6.508   6.159  12.988  1.0680  1.2894 -0.1559
  676TIP3    H223520   6.474   6.173  13.134  0.0033 -2.8616  0.1149
  677TIP3   OH223521   0.924   4.014   3.882  0.3016  0.0829 -0.0989
  677TIP3    H123522   0.887   4.101   3.867 -0.4566 -0.1150  0.5253
  677TIP3    H223523   1.016   4.022   3.858 -0.2152  0.4846 -2.1289
  678TIP3   OH223524   0.031   2.405  14.640 -0.2162  0.0518 -0.0815
  678TIP3    H123525   0.054   2.335  14.579 -2.4673 -0.9223  0.0958
  678TIP3    H223526   0.095   2.474  14.622  1.0772 -1.4150 -1.3768
  679TIP3   OH223527   2.081   0.498   3.621 -0.3285 -0.2168  0.1594
  679TIP3    H123528   2.052   0.499   3.530 -0.3523  0.9694  0.1692
  679TIP3    H223529   2.175   0.480   3.617 -0.4827 -1.0080 -0.0421
  680TIP3   OH223530   6.222   6.371  10.808 -0.1205  0.3960 -0.1295
  680TIP3    H123531   6.211   6.387  10.714  0.9967 -0.6604 -0.4652
  680TIP3    H223532   6.133   6.363  10.842 -0.6277  2.7325 -0.7154
  681TIP3   OH223533   4.970   2.183  12.255 -0.1568 -0.4172  0.7493
  681TIP3    H123534   5.003   2.100  12.221  0.2194 -0.1976  0.5649
  681TIP3    H223535   4.905   2.159  12.321  0.0507 -0.8562  0.7921
  682TIP3   OH223536   5.664   0.635  14.802  0.2100 -0.0715  0.1673
  682TIP3    H123537   5.671   0.542  14.778  0.1422 -0.2985  0.9793
  682TIP3    H223538   5.737   0.677  14.756  0.0712 -0.4753 -0.4313
  683TIP3   OH223539   3.041   0.977  13.128  0.0117 -0.5728  0.6091
  683TIP3    H123540   3.113   1.041  13.127  0.2837 -0.8764  0.4574
  683TIP3    H223541   2.973   1.016  13.074  0.4481 -0.7110 -0.0550
  684TIP3   OH223542   2.529   3.085   0.872  0.1578 -0.6533  0.6618
  684TIP3    H123543   2.572   3.169   0.855  0.0310 -0.4268  1.4468
  684TIP3    H223544   2.574   3.049   0.949 -1.0723 -0.3866  1.5287
  685TIP3   OH223545   2.361   0.375   4.103 -0.0797 -0.2441 -0.3228
  685TIP3    H123546   2.323   0.286   4.101  0.8816 -0.6597 -0.4412
  685TIP3    H223547   2.450   0.364   4.070 -0.0827  0.8411 -0.7341
  686TIP3   OH223548   5.295   4.232   4.655 -0.0995  0.2316  0.9582
  686TIP3    H123549   5.387   4.257   4.644  1.0453 -3.8560 -0.5844
  686TIP3    H223550   5.249   4.281   4.588  1.1957  1.1778  0.7191
  687TIP3   OH223551   5.949   2.807  11.949 -0.1159 -0.1252 -0.1443
  687TIP3    H123552   6.010   2.880  11.942 -0.2597 -0.0087 -0.1913
  687TIP3    H223553   5.862   2.847  11.939 -0.1322 -0.4959 -1.7454
  688TIP3   OH223554   6.497   0.423  14.743  0.4234 -0.0394 -0.3332
  688TIP3    H123555   6.483   0.392  14.832  1.5305  0.7739  0.1414
  688TIP3    H223556   6.419   0.476  14.724 -0.1594 -0.8084 -0.1331
  689TIP3   OH223557   2.366   0.573   3.870 -0.1822 -0.5309 -0.4116
  689TIP3    H123558   2.357   0.511   3.943  2.0879 -0.3194  0.1231
  689TIP3    H223559   2.410   0.522   3.801  3.0289  0.6856  0.5298
  690TIP3   OH223560   6.243   3.887  16.418  0.2706 -0.1977  0.4403
  690TIP3    H123561   6.218   3.832  16.343  0.3070  0.1132  0.2015
  690TIP3    H223562   6.321   3.845  16.453 -0.5725 -1.1909  1.2007
  691TIP3   OH223563   4.752   2.156   4.582  0.2168 -0.1311  0.3549
  691TIP3    H123564   4.742   2.236   4.634 -2.0858 -0.2132  0.1161
  691TIP3    H223565   4.846   2.138   4.585  0.7861  2.4089  0.6539
  692TIP3   OH223566   3.087   0.624  13.583  0.7050 -0.3168  0.5721
  692TIP3    H123567   3.052   0.630  13.672  0.2074  0.4017  0.3307
  692TIP3    H223568   3.025   0.672  13.529  0.1942 -1.9881 -0.4126
  693TIP3   OH223569   5.893   2.671   2.773  0.4793 -0.3098 -0.2039
  693TIP3    H123570   5.800   2.652   2.787  0.8504 -0.4011  2.7851
  693TIP3    H223571   5.940   2.603   2.821  2.0647  0.5248 -0.4913
  694TIP3   OH223572   6.256   6.088  14.345  0.6973  0.2238  0.0639
  694TIP3    H123573   6.309   6.026  14.395 -0.5779  0.4127  1.7161
  694TIP3    H223574   6.233   6.040  14.265  2.4073 -0.2466 -0.1871
  695TIP3   OH223575   1.498   0.397  14.400 -0.0978 -0.3659 -0.1249
  695TIP3    H123576   1.482   0.357  14.315 -1.9562  1.5715 -0.7891
  695TIP3    H223577   1.570   0.458  14.385  0.5164 -1.0279  0.0701
  696TIP3   OH223578   0.086   1.383  11.475  0.0672 -0.6347 -0.0399
  696TIP3    H123579   0.074   1.461  11.420 -0.1183  1.0415  2.2307
  696TIP3    H223580   0.003   1.337  11.469  0.2509 -0.8349 -1.5929
  697TIP3   OH223581   1.924   1.113  13.398 -0.8254  0.1123  0.4964
  697TIP3    H123582   1.982   1.089  13.326  1.4976  1.5689  1.7512
  697TIP3    H223583   1.936   1.043  13.463 -0.1352  0.5857  0.8988
  698TIP3   OH223584   4.347   0.251   4.618  0.7811 -0.3527  0.0257
  698TIP3    H123585   4.338   0.337   4.578  0.5036 -0.2896  0.2207
  698TIP3    H223586   4.440   0.244   4.640  0.8582 -0.2275 -0.2651
  699TIP3   OH223587   0.943   6.239  11.869  0.4216 -0.0228 -0.8191
  699TIP3    H123588   1.002   6.240  11.794  0.1670  3.0624 -1.0896
  699TIP3    H223589   0.866   6.289  11.841  0.7105  2.0692  1.6820
  700TIP3   OH223590   3.752   0.185   4.516 -0.0212  0.8209  0.0710
  700TIP3    H123591   3.820   0.176   4.583  0.4238 -0.5028 -0.5370
  700TIP3    H223592   3.787   0.249   4.454  1.2340 -0.6827 -0.8557
  701TIP3   OH223593   3.261   1.030  11.324 -0.6245  0.9287  0.1983
  701TIP3    H123594   3.194   1.063  11.264  0.7226 -0.8806 -2.4859
  701TIP3    H223595   3.344   1.056  11.284  0.3357  0.2670  1.6794
  702TIP3   OH223596   1.481   1.075  12.184 -0.2714  0.3448  0.3721
  702TIP3    H123597   1.568   1.106  12.159 -0.1918 -0.4221 -0.3377
  702TIP3    H223598   1.472   0.989  12.142 -1.7311  0.8043 -0.3501
  703TIP3   OH223599   6.224   6.462   3.143 -0.4213 -0.5849 -0.1037
  703TIP3    H123600   6.287   6.534   3.148 -1.4664  0.3479  0.0507
  703TIP3    H223601   6.216   6.431   3.234 -1.1418  0.1709  0.1071
  704TIP3   OH223602   1.744   1.132  11.894 -0.6013  0.1309 -0.0996
  704TIP3    H123603   1.803   1.122  11.819 -0.3657 -1.9205  0.2910
  704TIP3    H223604   1.728   1.226  11.900  1.0214  0.5400 -1.4433
  705TIP3   OH223605   4.682   6.147   5.150  0.0944 -0.1570  0.1772
  705TIP3    H123606   4.733   6.077   5.191  1.7162  0.3755 -0.8573
  705TIP3    H223607   4.593   6.134   5.184  0.7354 -1.5770  1.4395
  706TIP3   OH223608   6.219   1.230   0.212 -0.3995  0.1570  0.2261
  706TIP3    H123609   6.274   1.224   0.289  0.8258  4.3028 -0.0982
  706TIP3    H223610   6.276   1.267   0.144 -1.9772 -1.3665 -2.1057
  707TIP3   OH223611   4.343   5.492   5.149 -0.1172 -0.5796  0.0356
  707TIP3    H123612   4.318   5.580   5.177 -0.5389 -0.8220  0.4261
  707TIP3    H223613   4.377   5.450   5.229  1.3616 -0.3313 -0.4259
  708TIP3   OH223614   3.636   2.746  11.990 -0.4245  0.0488 -0.5928
  708TIP3    H123615   3.648   2.736  11.895  0.5909 -1.0659 -0.3782
  708TIP3    H223616   3.723   2.729  12.027 -0.8581  0.2251  0.5560
  709TIP3   OH223617   5.688   2.436  15.057  0.0449  0.2061  0.6188
  709TIP3    H123618   5.747   2.372  15.095 -2.4840 -2.5959  0.2259
  709TIP3    H223619   5.649   2.481  15.133  0.1639 -0.3455  1.0106
  710TIP3   OH223620   1.379   4.656   1.983 -0.0506 -0.4270  0.3700
  710TIP3    H123621   1.368   4.730   2.042 -2.2331 -0.1048 -0.3432
  710TIP3    H223622   1.463   4.673   1.939 -0.1125  1.1929  0.7979
  711TIP3   OH223623   6.550   4.263   4.457 -0.0245 -0.0737 -0.7082
  711TIP3    H123624   6.482   4.206   4.422 -0.0753 -1.0451  0.8706
  711TIP3    H223625   6.620   4.259   4.392 -0.6421 -0.7288 -1.3533
  712TIP3   OH223626   4.178   0.500  15.555 -0.5725  0.2850 -0.2012
  712TIP3    H123627   4.252   0.441  15.539 -0.8189 -0.1567  0.2296
  712TIP3    H223628   4.217   0.576  15.598 -0.5991 -0.8369  1.9739
  713TIP3   OH223629   4.839   3.468   1.641  0.1315  0.4341  0.0950
  713TIP3    H123630   4.771   3.508   1.587  0.5385  2.6409  1.1032
  713TIP3    H223631   4.858   3.384   1.597 -1.5676  0.8048 -1.4979
  714TIP3   OH223632   4.089   3.754   2.335 -0.7085 -0.9188 -0.0079
  714TIP3    H123633   4.103   3.662   2.355 -0.0088 -0.7897  0.1472
  714TIP3    H223634   4.086   3.758   2.239  2.7333 -0.7135 -0.2569
  715TIP3   OH223635   1.977   1.276  13.077 -0.5257  0.2484 -0.4257
  715TIP3    H123636   1.953   1.316  12.994  0.3396 -1.5408 -1.5995
  715TIP3    H223637   2.061   1.318  13.100  0.0575 -0.3989 -1.3159
  716TIP3   OH223638   3.058   3.759  12.733  0.1299 -0.1272 -0.1681
  716TIP3    H123639   3.139   3.777  12.685 -0.2479  0.1259 -0.7251
  716TIP3    H223640   3.066   3.668  12.760  2.0002  0.7058  2.5500
  717TIP3   OH223641   1.906   1.714  11.521 -0.0003 -0.0213 -0.2333
  717TIP3    H123642   1.857   1.713  11.603  0.4511  1.9094  0.1081
  717TIP3    H223643   1.848   1.674  11.457 -0.4815 -1.2795  0.9478
  718TIP3   OH223644   3.412   1.557  13.500 -0.2001 -0.2955  0.2680
  718TIP3    H123645   3.455   1.629  13.546 -0.6069 -0.5912  1.1149
  718TIP3    H223646   3.454   1.556  13.413  1.1037 -0.2150  0.8716
  719TIP3   OH223647   3.210   2.379   0.036 -0.3879  0.3580  0.3030
  719TIP3    H123648   3.270   2.305   0.035 -1.5902 -0.7551  2.6446
  719TIP3    H223649   3.206   2.407   0.127 -1.7456  1.8262 -0.1444
  720TIP3   OH223650   0.779   3.392  14.713 -0.1015 -0.3891 -0.4163
  720TIP3    H123651   0.711   3.329  14.735  0.8586 -1.1808  0.3682
  720TIP3    H223652   0.816   3.418  14.798  0.3886  0.2503 -0.8156
  721TIP3   OH223653   2.537   4.362   2.728  0.0361  0.3365  0.0166
  721TIP3    H123654   2.471   4.431   2.731 -0.8474 -0.3861 -1.6464
  721TIP3    H223655   2.614   4.404   2.690  0.8369  1.3346  2.4876
  722TIP3   OH223656   0.779   2.898   0.053  0.3112  0.2962 -0.0744
  722TIP3    H123657   0.722   2.939  -0.012 -0.2721  1.3517  1.0439
  722TIP3    H223658   0.864   2.942   0.041  0.4991 -0.2534 -0.7947
  723TIP3   OH223659   6.340   3.269   0.994 -0.7280  0.3740  0.8140
  723TIP3    H123660   6.333   3.180   1.027 -3.2616 -0.2292 -1.0382
  723TIP3    H223661   6.254   3.308   1.010 -0.2123  1.9138  0.0963
  724TIP3   OH223662   3.612   3.004  13.675 -0.0858 -0.0760 -0.2511
  724TIP3    H123663   3.697   3.033  13.640 -0.2390 -1.0789 -1.5417
  724TIP3    H223664   3.584   2.936  13.614 -0.9694 -1.0453  1.1990
  725TIP3   OH223665   1.034   1.262   1.553 -0.4076 -0.3141 -0.0442
  725TIP3    H123666   0.944   1.262   1.521 -0.6678 -0.2919  0.6775
  725TIP3    H223667   1.086   1.288   1.477 -1.1764  1.4377 -0.0214
  726TIP3   OH223668   2.915   4.946   5.756 -0.1812  0.1103 -0.0994
  726TIP3    H123669   2.825   4.914   5.748 -0.3734 -0.0184  1.9800
  726TIP3    H223670   2.969   4.879   5.715 -0.9374 -0.5940  0.0485
  727TIP3   OH223671   4.670   5.737  14.246 -0.4351  0.4680  0.1817
  727TIP3    H123672   4.727   5.676  14.294 -0.0095  0.0129 -0.8835
  727TIP3    H223673   4.603   5.761  14.310 -1.4233 -2.1905  0.2955
  728TIP3   OH223674   5.230   0.620  14.950 -0.2905  0.6374  0.5898
  728TIP3    H123675   5.187   0.577  15.024  0.2860  0.0399  0.5876
  728TIP3    H223676   5.228   0.714  14.972 -1.8505  0.6599  0.4353
  729TIP3   OH223677   3.980   2.810  16.725  0.3261 -0.1086 -0.4776
  729TIP3    H123678   3.985   2.858  16.808 -0.4077  0.6402 -0.8537
  729TIP3    H223679   3.952   2.722  16.750 -1.6333  0.5897 -0.0614
  730TIP3   OH223680   5.829   4.042   2.640  0.3055 -0.2378 -0.2510
  730TIP3    H123681   5.818   3.950   2.665  1.6682 -0.5639 -0.7879
  730TIP3    H223682   5.806   4.091   2.720 -0.1801 -1.0367  0.1186
  731TIP3   OH223683   0.861   5.996   0.922 -0.3352  0.7108 -0.7706
  731TIP3    H123684   0.842   5.916   0.972  0.5932  0.9929  0.0693
  731TIP3    H223685   0.919   5.967   0.851 -0.1490  0.6083 -0.5766
  732TIP3   OH223686   6.076   6.422  16.684 -0.1605 -0.2972  0.0995
  732TIP3    H123687   6.091   6.487  16.752  0.7778 -1.6818  1.2914
  732TIP3    H223688   5.981   6.412  16.680 -0.2175 -1.3763  2.4589
  733TIP3   OH223689   2.042   1.652   5.252  0.1245  0.1191 -0.4795
  733TIP3    H123690   2.134   1.679   5.261 -0.1745  0.9789  0.1576
  733TIP3    H223691   2.041   1.562   5.284  0.4887  0.6053  0.9918
  734TIP3   OH223692   3.637   3.242  16.085  0.7296 -0.4568  0.1361
  734TIP3    H123693   3.672   3.327  16.111 -1.3718  0.0156  1.7362
  734TIP3    H223694   3.714   3.189  16.065  2.1994  1.1645  1.2500
  735TIP3   OH223695   3.583   3.085   2.471 -0.2542  0.1936  0.2678
  735TIP3    H123696   3.556   3.151   2.407 -0.7489 -1.1735 -0.9934
  735TIP3    H223697   3.569   3.001   2.427  1.6391 -0.7469  1.3059
  736TIP3   OH223698   0.765   5.875   2.296  0.0697  0.6705 -0.6553
  736TIP3    H123699   0.789   5.955   2.250  0.8502 -0.0471 -1.5400
  736TIP3    H223700   0.848   5.830   2.311 -0.4511 -0.6721 -1.5194
  737TIP3   OH223701   5.456   5.432   3.674  0.7346  0.6651 -0.6755
  737TIP3    H123702   5.532   5.463   3.723  1.3760  0.2825 -1.3970
  737TIP3    H223703   5.467   5.337   3.670  0.0019  0.5640 -0.4437
  738TIP3   OH223704   0.415   1.566  17.089 -0.0039  0.3683 -0.0584
  738TIP3    H123705   0.420   1.620  17.010 -0.7786  0.6022  0.0401
  738TIP3    H223706   0.326   1.530  17.088  0.5037 -0.9524 -0.1399
  739TIP3   OH223707   4.833   2.043  13.547 -0.3897  0.5034  0.1905
  739TIP3    H123708   4.811   1.950  13.541  1.2587  0.0449  0.9725
  739TIP3    H223709   4.865   2.065  13.459 -0.4505  0.2581  0.1041
  740TIP3   OH223710   4.098   3.622   6.390  1.3967 -0.3877 -0.1445
  740TIP3    H123711   4.121   3.552   6.451 -0.4302 -0.3878  0.5847
  740TIP3    H223712   4.004   3.636   6.402  1.5061  1.4766 -1.0228
  741TIP3   OH223713   0.368   1.448  10.997  0.3736 -0.5854 -0.2456
  741TIP3    H123714   0.371   1.453  10.902  0.3288  0.4757 -0.2074
  741TIP3    H223715   0.274   1.447  11.018  0.3807 -0.3059 -0.1970
  742TIP3   OH223716   3.678   5.384   4.066  0.0066 -0.4700 -0.1493
  742TIP3    H123717   3.761   5.361   4.109  0.4969 -0.6147 -1.1633
  742TIP3    H223718   3.619   5.404   4.139  0.8691 -0.5628  0.5955
  743TIP3   OH223719   6.792   0.578   3.405 -0.4153  0.2508 -0.2478
  743TIP3    H123720   6.729   0.616   3.343 -0.6517 -1.2946 -1.0018
  743TIP3    H223721   6.744   0.507   3.447  0.3587  0.0492  0.3111
  744TIP3   OH223722   6.533   2.525   5.291  0.2229  0.4027  0.6758
  744TIP3    H123723   6.505   2.504   5.380  1.1505 -1.2478  0.6242
  744TIP3    H223724   6.620   2.563   5.301  0.2908  0.3002  0.4936
  745TIP3   OH223725   1.914   1.281   0.232  0.0509 -0.3732  0.2573
  745TIP3    H123726   1.876   1.222   0.166  0.0839  0.0006 -0.0983
  745TIP3    H223727   1.973   1.225   0.283 -0.8101 -0.9202  0.6826
  746TIP3   OH223728   4.559   0.077  13.552 -0.0189  0.3742 -0.6514
  746TIP3    H123729   4.639   0.118  13.584 -0.3754 -0.1754  1.0761
  746TIP3    H223730   4.589  -0.003  13.508  0.4134  0.4408 -0.4828
  747TIP3   OH223731   6.090   2.543  12.939 -0.0171 -0.2658  0.4041
  747TIP3    H123732   6.151   2.480  12.900  0.3525  1.0976 -1.3852
  747TIP3    H223733   6.145   2.617  12.964 -0.7973  0.6249 -0.4454
  748TIP3   OH223734   3.893   0.538  15.546  0.0747 -0.5576 -0.3848
  748TIP3    H123735   3.986   0.516  15.548 -0.0382 -0.9823  1.0456
  748TIP3    H223736   3.888   0.627  15.581 -0.2703 -1.5430  2.3193
  749TIP3   OH223737   2.135   3.171   1.225 -0.6628  0.1488 -0.1056
  749TIP3    H123738   2.083   3.215   1.158 -2.2034  0.3146  1.1294
  749TIP3    H223739   2.199   3.119   1.176 -2.1955 -0.3086 -1.7173
  750TIP3   OH223740   0.122   1.284   2.661  0.0677  0.6023  0.3048
  750TIP3    H123741   0.049   1.333   2.698 -0.1936 -0.0150  0.6207
  750TIP3    H223742   0.199   1.316   2.708  0.2077  2.1990 -0.9315
  751TIP3   OH223743   5.179   2.079   3.178 -0.7481 -0.0562  0.4237
  751TIP3    H123744   5.233   2.112   3.106 -0.8251 -0.5939  0.1133
  751TIP3    H223745   5.200   1.986   3.182 -0.7344 -0.0236  1.1114
  752TIP3   OH223746   4.296   4.544  10.506 -0.5191 -0.1345  0.3838
  752TIP3    H123747   4.219   4.531  10.561  0.3561 -1.4005  1.3699
  752TIP3    H223748   4.370   4.525  10.564  0.6257  2.2061 -0.2022
  753TIP3   OH223749   1.725   1.385  13.980  0.2315 -0.1492  0.5319
  753TIP3    H123750   1.769   1.470  13.984  0.1383 -0.1215  1.0369
  753TIP3    H223751   1.783   1.326  14.030  0.5471 -0.4971 -0.2315
  754TIP3   OH223752   4.786   3.079   5.063  0.5152 -0.4023  0.5575
  754TIP3    H123753   4.867   3.129   5.068  0.6370 -0.5272 -0.0888
  754TIP3    H223754   4.746   3.088   5.150  0.9814  0.0563  0.7245
  755TIP3   OH223755   4.169   5.974   3.907 -0.9467  0.1555  0.3909
  755TIP3    H123756   4.090   6.028   3.905 -1.0045  0.0679  0.2830
  755TIP3    H223757   4.215   6.002   3.986 -0.0749  1.6308 -0.5811
  756TIP3   OH223758   4.968   4.434   0.427  0.0293 -0.2633  0.4288
  756TIP3    H123759   4.958   4.472   0.339 -1.1330 -0.5581  0.4134
  756TIP3    H223760   5.061   4.411   0.433  0.4601  1.2226 -0.1096
  757TIP3   OH223761   5.691   2.967  11.958 -0.5965 -0.1322  0.2125
  757TIP3    H123762   5.613   2.971  12.013  0.5473 -0.1810  1.9200
  757TIP3    H223763   5.699   3.055  11.921 -0.8626  0.1928  0.9111
  758TIP3   OH223764   6.513   5.942  15.536  0.0821  0.7117  0.4346
  758TIP3    H123765   6.527   5.889  15.458 -2.4558 -1.7010  1.4268
  758TIP3    H223766   6.521   6.032  15.506  0.4778 -0.1437 -2.3188
  759TIP3   OH223767   1.354   6.761  10.452  0.3751  0.1809 -0.2698
  759TIP3    H123768   1.445   6.780  10.473 -0.2329  1.4568  1.5233
  759TIP3    H223769   1.334   6.817  10.377  1.3510 -0.9778 -1.4302
  760TIP3   OH223770   0.380   4.651   1.985  0.3933  0.2359 -0.4376
  760TIP3    H123771   0.415   4.736   1.959  0.7952 -0.0770 -0.9487
  760TIP3    H223772   0.443   4.587   1.951  0.8424 -0.2166  1.1787
  761TIP3   OH223773   4.826   3.577  13.447  0.1377 -0.3149  0.0133
  761TIP3    H123774   4.732   3.561  13.456 -0.2487  0.1897 -2.4367
  761TIP3    H223775   4.861   3.494  13.412  0.2467  0.1058 -0.9068
  762TIP3   OH223776   0.632   2.010   0.459  0.2450 -0.0990 -0.0315
  762TIP3    H123777   0.623   2.104   0.441  0.3956 -0.3001 -1.1930
  762TIP3    H223778   0.725   1.992   0.450  0.3198 -0.2300  0.9061
  763TIP3   OH223779   3.312   6.652  11.618  0.0269  0.4392  0.2260
  763TIP3    H123780   3.279   6.562  11.615 -0.3226  0.5790 -0.2021
  763TIP3    H223781   3.370   6.654  11.694  1.1491 -0.5277 -0.5678
  764TIP3   OH223782   1.362   2.178   4.364  0.0880  0.8100  0.2111
  764TIP3    H123783   1.316   2.254   4.399 -0.8889 -0.2879  1.3899
  764TIP3    H223784   1.436   2.165   4.423  0.7621  1.3358 -0.4924
  765TIP3   OH223785   3.947   2.654   5.783  1.1871 -0.1592 -0.3682
  765TIP3    H123786   4.030   2.701   5.776  1.2221  0.0307  0.9931
  765TIP3    H223787   3.912   2.680   5.868 -0.3839 -0.0745 -1.0081
  766TIP3   OH223788   0.310   2.616  12.214 -0.2747  0.4253  0.0393
  766TIP3    H123789   0.333   2.524  12.226 -0.3041  0.4756  0.5346
  766TIP3    H223790   0.388   2.656  12.175 -0.6780 -0.0351 -1.2711
  767TIP3   OH223791   2.776   6.314  15.884 -0.5736  0.4423  0.0554
  767TIP3    H123792   2.830   6.307  15.805 -0.8039  1.7854 -0.2484
  767TIP3    H223793   2.689   6.290  15.855 -0.1349 -2.0103  0.6112
  768TIP3   OH223794   0.911   0.456  16.624  0.2522  0.1875  0.0991
  768TIP3    H123795   0.980   0.512  16.660  0.8965  0.1676 -1.0748
  768TIP3    H223796   0.831   0.488  16.665  1.0333 -0.4513  2.2907
  769TIP3   OH223797   1.452   5.541   4.883 -0.5507  0.1230 -0.4620
  769TIP3    H123798   1.454   5.555   4.788 -0.0461  0.3748 -0.4196
  769TIP3    H223799   1.360   5.548   4.907 -0.6258  0.5595 -0.8653
  770TIP3   OH223800   5.956   6.282  12.646  0.0618 -0.1267 -0.0841
  770TIP3    H123801   5.877   6.229  12.634  0.2276 -0.3303 -0.2831
  770TIP3    H223802   5.929   6.351  12.707 -0.4989  0.2959 -0.8003
  771TIP3   OH223803   5.391   3.574  16.982  0.4504 -0.0476 -0.4033
  771TIP3    H123804   5.451   3.503  16.958  0.6849  0.1995 -0.5504
  771TIP3    H223805   5.392   3.633  16.907 -0.7993 -0.5767 -0.8652
  772TIP3   OH223806   3.520   2.977  14.341 -0.1634 -0.1796 -0.0169
  772TIP3    H123807   3.519   3.008  14.432  2.0985  1.3262 -0.3985
  772TIP3    H223808   3.474   3.045  14.292 -1.8532 -1.2559  0.0314
  773TIP3   OH223809   3.273   6.596   4.568 -0.0050 -0.4528  0.1383
  773TIP3    H123810   3.280   6.688   4.545 -0.2287 -0.4650  0.0107
  773TIP3    H223811   3.233   6.596   4.655 -0.7511 -0.4428 -0.1904
  774TIP3   OH223812   3.485   2.273  13.428  0.1056  0.2379  0.5751
  774TIP3    H123813   3.394   2.268  13.456  0.0248 -2.2589  0.0828
  774TIP3    H223814   3.483   2.330  13.351 -1.5203 -1.6467 -0.9165
  775TIP3   OH223815   3.388   4.651  15.779 -0.4771 -0.3401 -0.6452
  775TIP3    H123816   3.327   4.616  15.845 -0.1561  0.1811 -0.0565
  775TIP3    H223817   3.381   4.591  15.705 -1.1946 -0.6749 -0.3144
  776TIP3   OH223818   0.161   4.485   2.113  0.4292  0.1486 -0.5237
  776TIP3    H123819   0.194   4.486   2.023 -0.5228 -0.2415 -0.8950
  776TIP3    H223820   0.117   4.400   2.122  1.6153 -0.3614  0.7410
  777TIP3   OH223821   0.764   5.245   4.948  0.0637 -0.3920  0.1062
  777TIP3    H123822   0.813   5.181   4.896  1.5527  0.5503  0.2826
  777TIP3    H223823   0.831   5.306   4.979 -1.0547  0.1533  1.5377
  778TIP3   OH223824   4.449   5.733  13.019 -0.0176  0.3037  0.0212
  778TIP3    H123825   4.497   5.810  12.991  0.0384  0.2088 -0.1453
  778TIP3    H223826   4.414   5.696  12.938 -2.4082  1.6971  0.3275
  779TIP3   OH223827   1.160   6.185  12.829  0.0317  0.4433  0.2619
  779TIP3    H123828   1.176   6.091  12.830  0.6279  0.5154 -1.1250
  779TIP3    H223829   1.161   6.210  12.737 -3.4756  1.2711  0.2901
  780TIP3   OH223830   3.511   1.867  16.267  0.0499 -0.2547 -0.0342
  780TIP3    H123831   3.514   1.874  16.363  0.0897 -1.4946  0.0669
  780TIP3    H223832   3.420   1.885  16.245 -0.0175 -0.2157  0.2635
  781TIP3   OH223833   6.048   4.920  14.315 -0.1510  0.0534 -0.0818
  781TIP3    H123834   5.970   4.864  14.316 -0.7725  0.8968  1.0417
  781TIP3    H223835   6.082   4.917  14.404  0.3087  0.7657 -0.2231
  782TIP3   OH223836   6.776   6.188   0.051  0.7938  0.6827  0.0447
  782TIP3    H123837   6.699   6.164  -0.001  0.2389 -0.6019  1.3879
  782TIP3    H223838   6.830   6.108   0.052  0.6835  0.6018  1.5842
  783TIP3   OH223839   6.149   1.113   2.540  0.0718 -0.5471 -0.2047
  783TIP3    H123840   6.134   1.207   2.532  1.2514 -0.4298 -1.5550
  783TIP3    H223841   6.241   1.106   2.567  0.2276 -1.3148 -0.9041
  784TIP3   OH223842   0.386   0.037   4.197 -0.1838 -0.4788 -0.2983
  784TIP3    H123843   0.471  -0.004   4.215 -0.0303 -0.5864 -1.2606
  784TIP3    H223844   0.380   0.108   4.261  0.9603  0.0068 -0.7094
  785TIP3   OH223845   0.953   5.138  17.011 -0.4003  0.0562 -0.3045
  785TIP3    H123846   0.859   5.119  17.013 -0.7841  1.5596 -1.8075
  785TIP3    H223847   0.960   5.231  17.032  0.4143  0.6963 -2.9215
  786TIP3   OH223848   4.239   6.183   1.459 -0.0537 -0.3175  0.0966
  786TIP3    H123849   4.278   6.157   1.542  0.9539  0.3687 -0.1439
  786TIP3    H223850   4.308   6.168   1.394 -0.3273  0.5064 -0.4039
  787TIP3   OH223851   3.489   2.860  13.431  0.0927  0.2975 -0.0986
  787TIP3    H123852   3.399   2.847  13.399  0.2012  1.3826 -0.8874
  787TIP3    H223853   3.524   2.772  13.439 -1.1865 -0.1742  0.6533
  788TIP3   OH223854   0.995   0.626  11.232  0.2929  0.2423 -0.2312
  788TIP3    H123855   1.009   0.614  11.139  0.2972 -0.8078 -0.1034
  788TIP3    H223856   1.081   0.650  11.267 -0.1024  2.7943 -0.7814
  789TIP3   OH223857   4.858   0.982   3.000 -0.0818  0.2774  0.1306
  789TIP3    H123858   4.922   1.039   2.957  0.7853  1.0868  2.3835
  789TIP3    H223859   4.873   0.995   3.093 -2.5232 -0.7037  0.7253
  790TIP3   OH223860   4.996   2.566  14.479  0.4390  0.1833  0.4112
  790TIP3    H123861   4.939   2.490  14.486 -2.3292  1.9607 -1.0692
  790TIP3    H223862   5.017   2.589  14.570  0.8843 -1.9300  0.8979
  791TIP3   OH223863   4.306   2.588  13.013  0.1502  0.0667 -0.8249
  791TIP3    H123864   4.359   2.518  12.974 -1.4856 -0.7876 -1.6466
  791TIP3    H223865   4.270   2.549  13.092  1.0800  0.7978 -0.0221
  792TIP3   OH223866   6.619   4.819   1.690  0.1852 -0.1815  0.6403
  792TIP3    H123867   6.710   4.790   1.698  0.2959  0.6082  2.8118
  792TIP3    H223868   6.623   4.914   1.695 -0.7986 -0.1629  1.3745
  793TIP3   OH223869   0.834   1.709  11.604 -0.1045 -0.1798 -0.0827
  793TIP3    H123870   0.775   1.782  11.622  0.4575  0.3390 -0.3112
  793TIP3    H223871   0.908   1.748  11.558  0.2238 -0.8886 -0.1771
  794TIP3   OH223872   3.818   1.671   5.165 -0.1202  0.6419  0.1411
  794TIP3    H123873   3.874   1.742   5.196 -1.1497  1.2405  0.6918
  794TIP3    H223874   3.729   1.704   5.178 -0.6064  0.0109 -1.3985
  795TIP3   OH223875   2.770   3.121   2.865  0.2638 -0.0822  0.1980
  795TIP3    H123876   2.748   3.051   2.925 -1.7125  0.7352  0.5063
  795TIP3    H223877   2.726   3.098   2.783 -0.0857  0.6021  0.1857
  796TIP3   OH223878   1.978   5.720  17.162 -0.4968  0.5062  0.3755
  796TIP3    H123879   1.976   5.797  17.219  2.7069  1.3858 -0.5083
  796TIP3    H223880   2.042   5.662  17.203 -1.0134 -0.5764 -0.3137
  797TIP3   OH223881   4.074   3.434   6.079  0.1718  0.3762 -0.8848
  797TIP3    H123882   4.130   3.365   6.114  0.4065  2.0718  2.4315
  797TIP3    H223883   4.103   3.445   5.988 -0.2022 -4.0567 -1.7827
  798TIP3   OH223884   0.012   6.061  15.347 -0.3569  0.0162  0.2820
  798TIP3    H123885  -0.047   6.050  15.421  0.2283  0.5014  0.8367
  798TIP3    H223886   0.094   6.021  15.375 -0.5476 -1.0885 -0.6688
  799TIP3   OH223887   6.060   4.632   0.361  0.2256 -0.2318 -0.0875
  799TIP3    H123888   6.106   4.701   0.409 -2.5167  0.6903  1.4830
  799TIP3    H223889   6.027   4.573   0.430 -2.7333  0.4117 -0.7979
  800TIP3   OH223890   2.902   3.083   1.720 -0.1395 -0.5636  0.0122
  800TIP3    H123891   2.870   3.173   1.719 -0.0527 -0.5280  0.2798
  800TIP3    H223892   2.996   3.092   1.737 -0.2945 -0.7465  0.9901
  801TIP3   OH223893   0.947   4.159   2.651  0.1975 -0.3185 -0.3357
  801TIP3    H123894   0.899   4.094   2.601 -0.3408 -1.6981  1.8399
  801TIP3    H223895   1.035   4.123   2.659  0.5987  0.4358 -1.1908
  802TIP3   OH223896   6.687   1.231   1.449  0.2953 -0.1940 -0.0282
  802TIP3    H123897   6.759   1.168   1.457  0.1169 -0.5542 -1.0546
  802TIP3    H223898   6.660   1.249   1.539  1.6400 -0.0825  0.3683
  803TIP3   OH223899   4.446   0.468  13.468 -0.4796  0.9428 -0.2894
  803TIP3    H123900   4.386   0.397  13.488  0.8158  0.0934  0.8002
  803TIP3    H223901   4.487   0.443  13.386 -0.8423  1.0026 -0.4895
  804TIP3   OH223902   2.049   5.615   4.203  0.1605 -0.2057  0.8164
  804TIP3    H123903   1.959   5.586   4.188 -0.2419  0.6697  1.4910
  804TIP3    H223904   2.047   5.709   4.189  1.2418 -0.3275 -0.3213
  805TIP3   OH223905   0.645   5.660  13.262 -0.2295  0.3363  0.0843
  805TIP3    H123906   0.615   5.632  13.176  2.1451 -0.2765 -0.6224
  805TIP3    H223907   0.705   5.591  13.290  0.5750  1.4911  1.3352
  806TIP3   OH223908   3.153   0.802   5.193 -0.3618 -0.1020 -0.2426
  806TIP3    H123909   3.226   0.765   5.143 -1.7117 -0.3150 -2.1661
  806TIP3    H223910   3.155   0.896   5.171  0.2608  0.1868  0.9665
  807TIP3   OH223911   2.853   3.514   0.064 -0.0206  0.6201 -0.1242
  807TIP3    H123912   2.833   3.474  -0.020  0.0083 -0.5415  0.3975
  807TIP3    H223913   2.771   3.554   0.092 -0.9855 -1.8316  0.7830
  808TIP3   OH223914   4.060   4.094  15.720  0.3644 -0.2572  0.2669
  808TIP3    H123915   4.147   4.069  15.688  0.7142 -1.5179  2.0219
  808TIP3    H223916   3.999   4.037  15.674  0.7304 -1.1437  0.8599
  809TIP3   OH223917   1.245   3.381  12.502 -0.0140 -0.3013 -0.0233
  809TIP3    H123918   1.290   3.366  12.419  1.9039  0.0332  0.8973
  809TIP3    H223919   1.199   3.299  12.520 -0.2280 -0.4665 -1.2835
  810TIP3   OH223920   3.310   2.801  13.071 -0.4063  0.2964  0.0553
  810TIP3    H123921   3.406   2.797  13.074 -0.4380 -0.2446  0.9376
  810TIP3    H223922   3.286   2.849  13.150 -0.8248  1.7071 -0.9020
  811TIP3   OH223923   3.567   2.884  12.787 -0.1394 -0.1647 -0.4085
  811TIP3    H123924   3.536   2.829  12.714  0.8837 -1.1334 -0.1371
  811TIP3    H223925   3.592   2.822  12.855 -0.4798  0.7115  0.5510
  812TIP3   OH223926   3.117   5.066   3.372  0.0955 -0.3644  0.0350
  812TIP3    H123927   3.079   5.119   3.302  1.1606 -1.0987 -1.1462
  812TIP3    H223928   3.209   5.093   3.375  0.4032 -1.3841  0.1186
  813TIP3   OH223929   0.154   1.148  15.596  0.4706  0.5554 -0.0662
  813TIP3    H123930   0.173   1.240  15.615 -1.6232  1.2170 -0.9361
  813TIP3    H223931   0.143   1.108  15.682 -2.9548  2.1628  0.3964
  814TIP3   OH223932   4.815   5.081  14.058  0.4113  0.1770 -0.3353
  814TIP3    H123933   4.885   5.017  14.043 -0.0002 -0.2956 -0.2748
  814TIP3    H223934   4.738   5.027  14.078 -0.0560  0.6787 -0.7557
  815TIP3   OH223935   2.278   2.446  11.921  0.0074 -0.6913 -0.5318
  815TIP3    H123936   2.318   2.382  11.862  1.3034  0.8150 -1.3328
  815TIP3    H223937   2.347   2.510  11.938 -1.4217  0.8226 -0.2048
  816TIP3   OH223938   2.643   1.105  12.383 -0.0963 -0.8469 -0.1510
  816TIP3    H123939   2.675   1.152  12.307 -0.7763 -3.1328 -1.9779
  816TIP3    H223940   2.551   1.131  12.391 -0.1926 -1.0593 -0.5279
  817TIP3   OH223941   0.561   3.306  10.553  0.2200  0.3778  0.1036
  817TIP3    H123942   0.592   3.397  10.557  0.2290  0.3496  0.7995
  817TIP3    H223943   0.633   3.258  10.511  1.6179  0.1190  2.6407
  818TIP3   OH223944   6.302   6.719  10.765 -0.0235  0.4625 -0.1239
  818TIP3    H123945   6.348   6.798  10.794 -1.1317  0.7494  0.9300
  818TIP3    H223946   6.268   6.742  10.679 -0.3761  1.1681  0.1919
  819TIP3   OH223947   2.482   6.674  15.672 -0.5790  0.7062 -0.1274
  819TIP3    H123948   2.442   6.623  15.743 -2.8229  1.4672 -0.7607
  819TIP3    H223949   2.575   6.680  15.696 -0.9723 -0.4085  1.9001
  820TIP3   OH223950   1.554   2.610  16.465 -0.2928 -0.4382  0.5905
  820TIP3    H123951   1.544   2.705  16.461 -1.4245 -0.5401  0.5422
  820TIP3    H223952   1.635   2.596  16.513  0.7266  0.5631 -0.7704
  821TIP3   OH223953   4.194   1.409  13.085 -0.5814  0.6435 -0.3931
  821TIP3    H123954   4.219   1.342  13.022  0.2325  1.1141 -0.5845
  821TIP3    H223955   4.133   1.365  13.144 -0.9933  0.0695 -1.2224
  822TIP3   OH223956   3.872   0.244   1.415 -0.3455 -0.3098  0.0799
  822TIP3    H123957   3.794   0.218   1.465 -0.2863  0.3464  0.5190
  822TIP3    H223958   3.869   0.340   1.414  0.0119 -0.2980 -0.6134
  823TIP3   OH223959   5.637   5.891  16.330  0.3322  0.2325  0.3853
  823TIP3    H123960   5.582   5.835  16.384  2.1145 -0.4090  1.6050
  823TIP3    H223961   5.718   5.843  16.319  1.0195  1.5431 -0.5970
  824TIP3   OH223962   1.062   6.668   1.127 -0.4659  0.4599  0.1998
  824TIP3    H123963   1.113   6.736   1.171 -1.2900  0.8664  0.5356
  824TIP3    H223964   1.128   6.603   1.100  0.4517  1.8255 -0.9869
  825TIP3   OH223965   5.240   3.824   0.879  0.3677 -0.3102  0.1859
  825TIP3    H123966   5.330   3.848   0.857  0.4954 -0.8522  0.0994
  825TIP3    H223967   5.187   3.897   0.848  0.7692 -0.0185  0.1737
  826TIP3   OH223968   1.369   3.476   5.165  0.5789 -0.3876 -0.1364
  826TIP3    H123969   1.343   3.409   5.102  0.0221  1.1715 -1.6269
  826TIP3    H223970   1.338   3.443   5.249  0.6939 -2.1734 -0.7515
  827TIP3   OH223971   0.678   1.959   1.182 -0.1300 -0.4176 -0.2704
  827TIP3    H123972   0.598   2.002   1.152  0.9887  1.4904 -0.6615
  827TIP3    H223973   0.733   2.030   1.215  1.1741 -1.7555  0.5675
  828TIP3   OH223974   6.461   1.244   5.020 -0.2492  0.9041  0.6829
  828TIP3    H123975   6.389   1.265   4.961 -0.0953 -0.7554 -0.1491
  828TIP3    H223976   6.501   1.166   4.982  0.4789  0.3690  2.4489
  829TIP3   OH223977   4.235   6.748   1.696 -0.1152 -0.0984  0.1599
  829TIP3    H123978   4.270   6.774   1.610  0.2796 -0.9522  0.0530
  829TIP3    H223979   4.144   6.777   1.694  0.4780  1.9955  0.3556
  830TIP3   OH223980   1.832   5.877   6.236 -0.4647  0.2384 -0.1092
  830TIP3    H123981   1.756   5.923   6.274  0.0926 -0.7845  2.4611
  830TIP3    H223982   1.877   5.944   6.185 -1.5088  1.6585  0.7452
  831TIP3   OH223983   6.419   0.574   2.325  0.1030 -0.0714 -0.1176
  831TIP3    H123984   6.349   0.508   2.321 -0.9714  0.8155  2.4867
  831TIP3    H223985   6.379   0.653   2.288 -0.4111  0.5098  1.6210
  832TIP3   OH223986   4.651   4.446  12.378 -0.0703 -0.7462 -0.2728
  832TIP3    H123987   4.563   4.460  12.342 -0.2556 -1.7044 -0.2197
  832TIP3    H223988   4.651   4.355  12.407  1.2035 -1.0239 -1.0321
  833TIP3   OH223989   5.166   5.877   4.531  0.1870  0.1868  0.5683
  833TIP3    H123990   5.241   5.845   4.581  0.4880 -0.3674 -0.2326
  833TIP3    H223991   5.146   5.962   4.572  0.9646  0.1425  1.0761
  834TIP3   OH223992   0.973   3.117  11.844 -0.1870 -0.0282  0.0072
  834TIP3    H123993   1.063   3.112  11.876 -0.0330  0.7014 -0.3062
  834TIP3    H223994   0.922   3.144  11.920 -0.1132 -0.2239  0.1274
  835TIP3   OH223995   5.974   5.730   4.436  0.2923  0.3104  0.0605
  835TIP3    H123996   5.944   5.772   4.516 -0.1340  0.9041 -0.4080
  835TIP3    H223997   6.066   5.707   4.454 -0.0696 -0.4186  1.0556
  836TIP3   OH223998   4.066   0.050  14.708 -0.3654  0.1440 -0.0062
  836TIP3    H123999   4.127   0.119  14.682 -0.8301 -0.2382 -2.2627
  836TIP3    H224000   3.984   0.095  14.724 -0.2132  0.3118  0.3218
  837TIP3   OH224001   3.754   3.299  14.980  0.1568 -0.3531 -0.0180
  837TIP3    H124002   3.686   3.338  14.925  0.7435 -1.1036 -1.3238
  837TIP3    H224003   3.829   3.357  14.971  0.2424 -0.4541  0.0369
  838TIP3   OH224004   5.209   4.403   0.763 -0.5224 -0.2890  0.3708
  838TIP3    H124005   5.121   4.439   0.770 -0.6352 -0.8451  2.2462
  838TIP3    H224006   5.224   4.357   0.846  1.3398 -0.6405 -0.0997
  839TIP3   OH224007   0.980   0.667  13.152 -0.2650 -0.3000 -0.0894
  839TIP3    H124008   0.978   0.597  13.087  2.3166 -1.8686  1.3511
  839TIP3    H224009   1.026   0.739  13.109  0.1879 -0.8066 -0.4613
  840TIP3   OH224010   5.464   6.098   1.897 -0.3818 -0.0471  0.5815
  840TIP3    H124011   5.463   6.007   1.865  1.9918  0.9270 -2.7617
  840TIP3    H224012   5.455   6.090   1.992  0.6120 -3.8403  0.5108
  841TIP3   OH224013   4.430   3.013   2.196 -0.0860  0.2361 -0.1803
  841TIP3    H124014   4.419   2.962   2.116 -0.2203 -0.4069  0.2386
  841TIP3    H224015   4.523   3.036   2.199  0.5043 -2.0220  0.8109
  842TIP3   OH224016   3.087   4.760  11.263 -0.2641  0.1989  0.1443
  842TIP3    H124017   3.003   4.759  11.309  0.6160  0.3110  1.8254
  842TIP3    H224018   3.090   4.675  11.217 -1.5285  0.4474 -0.4303
  843TIP3   OH224019   6.435   3.165  16.242  0.2859 -0.3743 -0.4029
  843TIP3    H124020   6.508   3.226  16.254  1.5705 -1.5426 -1.8803
  843TIP3    H224021   6.428   3.118  16.325 -0.3680  1.3333  0.5696
  844TIP3   OH224022   3.560   4.799   2.051 -0.8593  0.2148  0.2885
  844TIP3    H124023   3.520   4.716   2.026 -2.7961  1.2350 -0.1913
  844TIP3    H224024   3.546   4.804   2.146  1.2429 -0.9658  0.7163
  845TIP3   OH224025   4.564   1.439   4.874  0.3703 -0.2138 -0.2138
  845TIP3    H124026   4.553   1.531   4.897 -0.4548 -0.4866  0.5322
  845TIP3    H224027   4.632   1.408   4.935  0.0251 -0.3085  0.1249
  846TIP3   OH224028   3.700   2.495   0.349  0.5415  0.8443 -0.2352
  846TIP3    H124029   3.705   2.508   0.444 -1.8205 -0.5048  0.1652
  846TIP3    H224030   3.791   2.498   0.319  1.3225  1.6394  2.0035
  847TIP3   OH224031   2.201   5.076  13.413 -0.1474  0.2694 -0.2336
  847TIP3    H124032   2.255   5.114  13.482 -2.3349  0.8781  1.2708
  847TIP3    H224033   2.124   5.042  13.459  0.3481 -3.5218 -1.8643
  848TIP3   OH224034   3.848   6.601  11.455  0.1424 -0.0552 -0.2940
  848TIP3    H124035   3.942   6.619  11.453  0.0951  0.3768  0.6144
  848TIP3    H224036   3.828   6.588  11.547 -0.4371 -1.6408 -0.6241
  849TIP3   OH224037   1.946   3.727   5.590 -0.5284  0.1764 -0.3244
  849TIP3    H124038   2.015   3.752   5.528 -0.6797  0.9130 -0.2078
  849TIP3    H224039   1.877   3.689   5.535 -0.7758  1.0690 -0.6449
  850TIP3   OH224040   3.899   1.055   0.597  0.3260 -0.6092  0.4994
  850TIP3    H124041   3.823   1.066   0.654 -0.0236 -1.6690  0.2611
  850TIP3    H224042   3.954   1.132   0.615 -1.2699  0.7202 -0.0834
  851TIP3   OH224043   0.285   4.142   3.382  0.3126  0.8548  0.2899
  851TIP3    H124044   0.287   4.227   3.425 -0.6031  1.3405 -0.5669
  851TIP3    H224045   0.330   4.155   3.299  3.3243 -0.4254  1.5809
  852TIP3   OH224046   1.983   0.917   5.211 -0.0813 -0.0750 -0.2334
  852TIP3    H124047   1.890   0.893   5.208 -0.3736  1.1368 -1.8636
  852TIP3    H224048   1.999   0.965   5.130  1.9665 -0.1731  0.0530
  853TIP3   OH224049   4.732   2.237  10.860  0.4406  0.2310 -0.1903
  853TIP3    H124050   4.683   2.251  10.779  0.7032  2.7935 -0.0106
  853TIP3    H224051   4.810   2.188  10.833  0.6034  1.1687 -1.5546
  854TIP3   OH224052   5.676   1.268  11.458  0.1223 -0.2203  0.2699
  854TIP3    H124053   5.623   1.306  11.387  0.2554 -1.5782 -0.5854
  854TIP3    H224054   5.724   1.343  11.494  1.1999  0.3240 -2.0823
  855TIP3   OH224055   3.158   5.321   1.961 -0.0559  0.5312 -0.1414
  855TIP3    H124056   3.159   5.256   2.032 -0.4027 -0.5986 -1.1425
  855TIP3    H224057   3.086   5.380   1.984  1.2470  1.5419  1.5935
  856TIP3   OH224058   5.692   1.717  15.940  0.0764 -0.0956 -0.1157
  856TIP3    H124059   5.778   1.759  15.950  0.6001 -0.7489 -1.4965
  856TIP3    H224060   5.634   1.788  15.912 -0.0620  0.5245  1.6328
  857TIP3   OH224061   2.400   1.816   6.336  0.1551 -0.0144 -0.2365
  857TIP3    H124062   2.455   1.851   6.267 -0.4043  0.3037 -0.5260
  857TIP3    H224063   2.340   1.887   6.358  1.0140  0.2670  1.3305
  858TIP3   OH224064   6.458   5.982   1.200  0.0141 -0.9445  0.1500
  858TIP3    H124065   6.416   6.064   1.172 -0.3737 -0.9243  0.7753
  858TIP3    H224066   6.522   6.009   1.265  0.5251 -1.0507 -0.3032
  859TIP3   OH224067   6.185   1.734   6.573  0.2915 -0.2115 -0.7532
  859TIP3    H124068   6.162   1.783   6.652  1.0417  0.9789 -1.2339
  859TIP3    H224069   6.100   1.716   6.531 -0.0820 -0.4912  0.1067
  860TIP3   OH224070   0.296   1.533  12.994 -0.0285  0.0749 -0.2614
  860TIP3    H124071   0.300   1.626  13.016  0.0309  0.3026 -1.1922
  860TIP3    H224072   0.212   1.504  13.029  0.2039  0.3433  0.5262
  861TIP3   OH224073   2.324   1.085  11.934 -0.2833 -0.2991  0.6151
  861TIP3    H124074   2.234   1.063  11.956 -0.7862 -0.8565 -1.6691
  861TIP3    H224075   2.334   1.055  11.843  1.2621  2.4035 -0.2354
  862TIP3   OH224076   0.803   0.266   3.769 -0.4305  0.1453 -0.4419
  862TIP3    H124077   0.785   0.254   3.675 -1.0318  2.6329 -0.7151
  862TIP3    H224078   0.719   0.294   3.806  0.5852  2.8198  0.0728
  863TIP3   OH224079   5.464   4.225   6.221 -1.0295  0.5063  0.1263
  863TIP3    H124080   5.481   4.133   6.241 -0.3987  0.6146  0.1215
  863TIP3    H224081   5.550   4.267   6.228 -1.5083  1.3424  1.4402
  864TIP3   OH224082   2.232   1.059   0.147  0.4544 -0.3216 -0.4848
  864TIP3    H124083   2.210   0.991   0.211  2.0066 -0.7816 -0.3977
  864TIP3    H224084   2.313   1.027   0.106 -0.0855  0.3436 -2.1286
  865TIP3   OH224085   6.067   0.220  10.879  0.4841  0.5272 -0.1319
  865TIP3    H124086   6.009   0.254  10.812  0.4251  0.5894 -0.0487
  865TIP3    H224087   6.072   0.289  10.945 -1.1004 -0.3173  0.9502
  866TIP3   OH224088   3.953   5.478  13.088  0.2481  0.1985 -0.1313
  866TIP3    H124089   3.895   5.550  13.113  0.8675  0.0400  1.9116
  866TIP3    H224090   4.036   5.498  13.133  0.6508 -1.4217 -0.0990
  867TIP3   OH224091   5.377   2.906   1.268 -0.0851 -0.1978 -0.3606
  867TIP3    H124092   5.402   2.814   1.280 -0.3689 -0.2523 -0.1524
  867TIP3    H224093   5.281   2.904   1.267 -0.0997 -0.1193 -2.1391
  868TIP3   OH224094   1.924   6.357  13.490 -0.7115 -0.7248 -0.3621
  868TIP3    H124095   1.885   6.306  13.420 -0.8125  0.4980 -1.2370
  868TIP3    H224096   1.966   6.431  13.445 -2.8381  1.4501  0.9641
  869TIP3   OH224097   6.739   5.162   2.170  0.7461  0.1940 -0.2523
  869TIP3    H124098   6.694   5.080   2.191  1.0097 -0.1944 -1.1463
  869TIP3    H224099   6.801   5.138   2.101  1.6067  0.9322  0.2495
  870TIP3   OH224100   0.841   2.496   0.369 -0.2510  0.3836  0.1672
  870TIP3    H124101   0.907   2.557   0.403  0.5424 -0.3672  0.0242
  870TIP3    H224102   0.826   2.523   0.279  0.2512  0.2546  0.0402
  871TIP3   OH224103   1.319   2.554  13.243  0.1877 -0.3149  0.6373
  871TIP3    H124104   1.236   2.527  13.205 -0.0104 -0.8138  1.4016
  871TIP3    H224105   1.367   2.472  13.255  0.9767  0.0067 -0.2050
  872TIP3   OH224106   6.717   6.084  12.352  0.1769  0.3416 -0.5728
  872TIP3    H124107   6.632   6.104  12.390 -0.0224  1.3349 -1.4869
  872TIP3    H224108   6.710   6.114  12.261  1.6866  0.9686 -0.5050
  873TIP3   OH224109   1.214   4.528   4.808 -0.1162 -0.1202  0.0101
  873TIP3    H124110   1.294   4.545   4.858 -0.4687 -1.3187  1.0302
  873TIP3    H224111   1.146   4.575   4.857  0.1291  2.1177 -1.6524
  874TIP3   OH224112   4.960   4.995   3.128  0.2952 -0.2055 -0.8552
  874TIP3    H124113   5.023   5.033   3.068 -0.5953  0.2971 -1.4867
  874TIP3    H224114   5.003   4.916   3.161  1.0290 -0.1718 -1.6979
  875TIP3   OH224115   4.641   0.847   3.456  0.0485  0.5601 -0.1439
  875TIP3    H124116   4.665   0.909   3.525 -0.6038  1.1405 -0.4267
  875TIP3    H224117   4.602   0.901   3.388 -1.8423 -0.2992  0.1936
  876TIP3   OH224118   5.489   4.601   5.498  0.6503  0.4047 -0.4229
  876TIP3    H124119   5.457   4.621   5.586  3.3510  3.3765  0.0752
  876TIP3    H224120   5.410   4.585   5.447 -1.1016  0.2222  2.1544
  877TIP3   OH224121   2.490   3.432   1.659  0.7944 -0.3736  1.1466
  877TIP3    H124122   2.441   3.512   1.637  0.5772 -0.5116  1.1242
  877TIP3    H224123   2.426   3.361   1.649  1.8721 -1.0330 -2.5283
  878TIP3   OH224124   0.949   3.200  15.387  0.6042 -0.0041  0.1382
  878TIP3    H124125   1.016   3.169  15.448 -1.9991 -0.7568  2.8284
  878TIP3    H224126   0.899   3.121  15.363  0.6661  0.5081 -1.9079
  879TIP3   OH224127   4.223   1.726  14.267 -0.1516  0.0074  0.4323
  879TIP3    H124128   4.162   1.686  14.205 -0.5879  0.8172  0.3146
  879TIP3    H224129   4.255   1.654  14.320 -1.1666 -0.4512  0.4436
  880TIP3   OH224130   6.744   4.412  15.921  0.2406  0.2053  0.0184
  880TIP3    H124131   6.652   4.415  15.947 -0.1236 -0.8756 -1.1071
  880TIP3    H224132   6.743   4.414  15.826  1.2756 -1.7405 -0.0787
  881TIP3   OH224133   1.693   6.327  11.373 -0.2169  0.3852 -0.1477
  881TIP3    H124134   1.641   6.313  11.294  0.7616 -0.7893 -0.6114
  881TIP3    H224135   1.746   6.405  11.354  0.6817 -0.4146 -1.0372
  882TIP3   OH224136   6.167   0.693  16.949  0.3724 -0.1814  0.1998
  882TIP3    H124137   6.153   0.632  17.021 -0.6056  0.2144  0.3594
  882TIP3    H224138   6.171   0.779  16.990  2.8191 -0.1626  0.1044
  883TIP3   OH224139   4.981   4.551   0.164  0.5299  0.4444  0.4840
  883TIP3    H124140   5.038   4.533   0.090  1.1206 -3.0297  1.6082
  883TIP3    H224141   4.893   4.534   0.131  0.9066 -2.9574  0.8502
  884TIP3   OH224142   1.126   0.699   2.703  0.3257  0.3471  0.0583
  884TIP3    H124143   1.119   0.640   2.628 -2.1765  1.3678 -0.6172
  884TIP3    H224144   1.090   0.649   2.776 -1.4069  0.8241 -0.4259
  885TIP3   OH224145   0.918   2.119  12.370  0.1735 -0.5280  0.3997
  885TIP3    H124146   0.884   2.112  12.281 -2.3834  1.6783  1.0485
  885TIP3    H224147   0.919   2.213  12.388  0.2342 -0.9137  2.8017
  886TIP3   OH224148   3.797   2.312   5.322 -0.1471 -0.2160  0.3935
  886TIP3    H124149   3.892   2.302   5.315 -0.4349 -2.5938 -1.4013
  886TIP3    H224150   3.772   2.251   5.392 -0.1988  2.2973  2.7267
  887TIP3   OH224151   6.186   4.238  12.890  0.6774  0.4086 -0.3111
  887TIP3    H124152   6.129   4.306  12.855 -0.3185 -0.6173 -0.7177
  887TIP3    H224153   6.220   4.276  12.972 -0.4535  1.0898 -0.1365
  888TIP3   OH224154   3.046   2.963   3.157  0.6165  0.1447  0.6723
  888TIP3    H124155   3.044   3.058   3.152  2.1180  0.1453 -0.4734
  888TIP3    H224156   3.088   2.944   3.241 -0.0023  0.4652  1.0648
  889TIP3   OH224157   4.886   2.177  14.793  0.0245  0.7659 -0.5580
  889TIP3    H124158   4.917   2.092  14.761 -1.9792  0.3624 -1.6467
  889TIP3    H224159   4.886   2.234  14.716  0.3045  1.4293 -0.0779
  890TIP3   OH224160   2.085   2.916   0.901 -0.0230 -0.6363 -0.3604
  890TIP3    H124161   2.049   2.828   0.898  2.4183 -1.7636  0.3176
  890TIP3    H224162   2.138   2.924   0.822  1.0945 -0.4334  0.3845
  891TIP3   OH224163   3.368   5.117   0.956  0.2458  0.4519  0.3615
  891TIP3    H124164   3.334   5.149   0.873  1.2206  2.1777  0.5730
  891TIP3    H224165   3.320   5.166   1.022  0.3933  0.0479  0.7698
  892TIP3   OH224166   0.565   0.018  11.242 -0.2301  0.7599 -0.6463
  892TIP3    H124167   0.615  -0.055  11.280  0.5954  1.4747 -0.3314
  892TIP3    H224168   0.481  -0.021  11.217  1.1614 -0.9380 -3.0208
  893TIP3   OH224169   0.384   2.617  12.930  0.0497 -0.0091 -0.4870
  893TIP3    H124170   0.404   2.688  12.870  1.5473 -0.4234 -0.5204
  893TIP3    H224171   0.362   2.660  13.013 -0.1409  0.5030 -0.8022
  894TIP3   OH224172   1.715   0.182  14.969  0.0614 -0.1327 -0.3417
  894TIP3    H124173   1.660   0.259  14.979  1.1823  0.7377 -0.7446
  894TIP3    H224174   1.744   0.160  15.058  0.7946  0.7180 -0.3552
  895TIP3   OH224175   4.237   1.834  15.476 -0.6693 -0.1272  0.3839
  895TIP3    H124176   4.292   1.788  15.539  0.8680  0.0098 -0.7953
  895TIP3    H224177   4.183   1.892  15.530 -0.4437 -1.0631  1.6610
  896TIP3   OH224178   3.784   6.676  10.779  0.7163 -0.3041 -0.0494
  896TIP3    H124179   3.822   6.671  10.691 -0.7179  0.4413 -0.7372
  896TIP3    H224180   3.854   6.714  10.832  1.2711  0.1513 -1.0698
  897TIP3   OH224181   1.957   4.315   2.687 -0.3970  0.1594 -0.6475
  897TIP3    H124182   2.032   4.256   2.683 -0.2588  0.3183 -0.4238
  897TIP3    H224183   1.989   4.391   2.736 -1.0961 -0.3719  0.6908
  898TIP3   OH224184   0.292   3.242  16.078  0.9170  0.3782 -0.0256
  898TIP3    H124185   0.203   3.257  16.109  1.1568  0.9537  0.4148
  898TIP3    H224186   0.287   3.253  15.983  0.1530 -1.4913 -0.2382
  899TIP3   OH224187   6.278   0.087   3.973  0.7427  0.0137 -0.0069
  899TIP3    H124188   6.264   0.061   3.882  0.8277 -0.5208  0.1317
  899TIP3    H224189   6.294   0.005   4.019  0.8463  0.2981  0.4648
  900TIP3   OH224190   1.590   6.353   1.914  0.1081  0.3082 -0.2863
  900TIP3    H124191   1.646   6.412   1.965 -0.7366  0.4098  0.5443
  900TIP3    H224192   1.565   6.285   1.976  0.1302 -0.2941 -0.9328
  901TIP3   OH224193   3.149   1.270   2.225 -0.1264  0.0482  0.0250
  901TIP3    H124194   3.102   1.328   2.165 -0.2001  1.2366  1.1835
  901TIP3    H224195   3.242   1.288   2.208 -0.1348 -0.0817 -0.1629
  902TIP3   OH224196   5.454   0.902   2.717 -1.1450  0.1029 -0.9260
  902TIP3    H124197   5.495   0.963   2.655 -2.3585  2.0186  0.0795
  902TIP3    H224198   5.375   0.873   2.672 -2.5425  2.2494  0.0084
  903TIP3   OH224199   6.545   3.817  13.710  0.3315 -0.1277  0.5909
  903TIP3    H124200   6.563   3.754  13.641  0.6477 -0.5289  1.0306
  903TIP3    H224201   6.455   3.799  13.736  0.5878 -0.7645  1.0744
  904TIP3   OH224202   2.298   0.960  12.626  0.2010 -0.1604  0.0165
  904TIP3    H124203   2.267   0.975  12.715  2.7216  1.2625  0.7371
  904TIP3    H224204   2.356   0.884  12.633  1.3382  0.6646 -0.1285
  905TIP3   OH224205   3.453   2.002   3.320 -0.2015  0.2305 -0.1659
  905TIP3    H124206   3.459   1.963   3.408 -0.6134 -0.6874 -0.5251
  905TIP3    H224207   3.427   2.092   3.336 -0.4840  0.0216  0.6516
  906TIP3   OH224208   2.257   2.679   3.100  0.0074  0.0286 -1.1915
  906TIP3    H124209   2.275   2.680   3.194  0.9834  2.9146 -1.2844
  906TIP3    H224210   2.162   2.666   3.093 -0.0121 -0.6372  0.1655
  907TIP3   OH224211   4.525   2.231  12.444 -0.0817 -0.5277  0.5424
  907TIP3    H124212   4.533   2.303  12.507  0.6299 -0.6354  0.5860
  907TIP3    H224213   4.463   2.170  12.486 -1.5577  0.5455  0.0113
  908TIP3   OH224214   3.493   0.947  12.945  0.0230  0.2450  0.3603
  908TIP3    H124215   3.416   0.944  13.002  0.5987 -0.0226  1.1363
  908TIP3    H224216   3.500   1.039  12.919 -1.8888 -0.0647 -1.5967
  909TIP3   OH224217   4.573   5.263   2.686  0.1979 -0.1690 -0.3791
  909TIP3    H124218   4.592   5.354   2.709 -0.0344 -0.2557  0.1675
  909TIP3    H224219   4.654   5.230   2.646  0.4262  0.1415 -0.1710
  910TIP3   OH224220   4.201   4.643   4.656 -0.0811 -0.5220  0.3522
  910TIP3    H124221   4.281   4.630   4.605 -1.0322  0.5383 -1.5168
  910TIP3    H224222   4.209   4.731   4.693 -0.4605 -0.3426  0.0101
  911TIP3   OH224223   5.559   2.742  17.017  0.0709 -0.3839  0.2486
  911TIP3    H124224   5.574   2.759  17.110  0.4956 -1.4173  0.3797
  911TIP3    H224225   5.547   2.648  17.011 -0.5227 -0.2611 -0.6764
  912TIP3   OH224226   3.568   1.750   5.166  0.4487  0.0246 -0.4124
  912TIP3    H124227   3.502   1.686   5.139  0.3194  0.1925 -0.5036
  912TIP3    H224228   3.516   1.825   5.195  0.5986  0.0794 -0.2909
  913TIP3   OH224229   0.139   0.381   2.014  0.0823 -0.5179  0.1880
  913TIP3    H124230   0.096   0.454   2.059  2.7014  0.8874  0.5705
  913TIP3    H224231   0.176   0.328   2.084  3.0187  0.9447 -0.1374
  914TIP3   OH224232   5.195   4.230   2.167  0.3500 -0.2625 -0.0764
  914TIP3    H124233   5.218   4.296   2.102  0.9917 -1.6372 -1.2787
  914TIP3    H224234   5.131   4.174   2.123 -0.7279 -0.0701  1.1665
  915TIP3   OH224235   1.148   6.391   4.648  0.1956 -0.0245  0.0517
  915TIP3    H124236   1.151   6.364   4.556 -0.1714 -1.0673  0.3230
  915TIP3    H224237   1.069   6.348   4.682  0.0231  0.8033  0.7216
  916TIP3   OH224238   1.802   0.546   2.575 -0.0145  0.2282  0.3632
  916TIP3    H124239   1.773   0.623   2.526 -1.5858 -0.8927 -0.5633
  916TIP3    H224240   1.781   0.472   2.518 -1.5825 -1.1136  2.5495
  917TIP3   OH224241   3.716   2.164  15.180 -0.8100  0.3314 -0.0092
  917TIP3    H124242   3.784   2.206  15.128 -2.0180 -0.5642 -2.5000
  917TIP3    H224243   3.695   2.084  15.132 -1.3500 -1.1016  2.4386
  918TIP3   OH224244   3.357   6.541  13.372  0.2558  0.7482  0.1382
  918TIP3    H124245   3.333   6.462  13.325  1.3194  1.0068 -0.8910
  918TIP3    H224246   3.358   6.610  13.306 -0.4687  1.6072  0.9806
  919TIP3   OH224247   6.163   0.898  17.369 -0.3556 -0.2601 -0.3306
  919TIP3    H124248   6.095   0.926  17.430  0.4551  1.1649 -0.0436
  919TIP3    H224249   6.234   0.867  17.426 -0.5328 -1.2379 -0.6211
  920TIP3   OH224250   5.194   2.465  15.414 -0.4098 -0.3992 -1.0020
  920TIP3    H124251   5.107   2.487  15.381 -0.5083  0.6237 -0.1204
  920TIP3    H224252   5.254   2.514  15.358 -0.6331  2.4092  1.0186
  921TIP3   OH224253   3.374   5.632  14.298 -0.4702 -0.2071  0.3867
  921TIP3    H124254   3.348   5.723  14.289  2.3903  0.7025  0.4513
  921TIP3    H224255   3.363   5.595  14.210  1.7744  1.2550 -0.5901
  922TIP3   OH224256   4.161   5.504  15.934 -0.2138  0.2160  0.2338
  922TIP3    H124257   4.115   5.449  15.870 -0.0763 -0.5566  0.7860
  922TIP3    H224258   4.134   5.593  15.913 -2.2181 -0.2328  0.7236
  923TIP3   OH224259   6.476   5.636   1.952 -0.5001  0.1635 -0.3111
  923TIP3    H124260   6.561   5.679   1.947 -0.0241 -0.2922  2.2045
  923TIP3    H224261   6.497   5.542   1.959 -1.3184 -0.1382 -1.6158
  924TIP3   OH224262   0.981   2.247   2.512  0.5069  0.6378 -0.4387
  924TIP3    H124263   1.005   2.307   2.441 -1.4133  1.0736 -0.7805
  924TIP3    H224264   1.058   2.244   2.568  1.4307  1.7045 -1.5903
  925TIP3   OH224265   4.376   4.363   6.373 -0.5382 -0.3672 -0.1951
  925TIP3    H124266   4.414   4.347   6.459  0.8529  1.3358 -0.4294
  925TIP3    H224267   4.312   4.432   6.387  0.2104  0.4382 -0.5926
  926TIP3   OH224268   6.335   2.656   5.493 -0.5834 -0.2862  0.1072
  926TIP3    H124269   6.295   2.636   5.409 -1.1266 -1.3259  0.5856
  926TIP3    H224270   6.281   2.609   5.557  0.3564 -0.2628  0.9458
  927TIP3   OH224271   3.647   5.657  11.278 -0.0676  0.4319  0.5973
  927TIP3    H124272   3.693   5.730  11.319 -0.9272  1.4254 -0.1733
  927TIP3    H224273   3.578   5.697  11.226 -1.1409 -0.9700  0.8650
  928TIP3   OH224274   1.896   1.959   4.191 -0.1185  0.1644  0.5308
  928TIP3    H124275   1.816   1.963   4.138  0.3036  0.9476 -0.0616
  928TIP3    H224276   1.913   2.050   4.215  1.2238  0.1561 -0.3102
  929TIP3   OH224277   2.532   1.062   4.458  0.7787 -0.2189  0.8385
  929TIP3    H124278   2.550   1.147   4.498  1.7566 -0.5319  1.1126
  929TIP3    H224279   2.460   1.078   4.398  1.3315  0.9384  0.4456
  930TIP3   OH224280   3.519   1.076  11.083  0.6122  0.1553 -0.0796
  930TIP3    H124281   3.590   1.011  11.088  0.9074  0.4817  0.0200
  930TIP3    H224282   3.544   1.133  11.010  0.2944  0.0933 -0.2409
  931TIP3   OH224283   6.402   0.356  15.003  0.3037 -0.7831 -0.3506
  931TIP3    H124284   6.361   0.361  15.089 -0.6183  0.5958 -0.8246
  931TIP3    H224285   6.483   0.406  15.012  1.0931 -2.1244  0.1591
  932TIP3   OH224286   2.388   5.904   0.430 -0.1954  0.1760  0.4402
  932TIP3    H124287   2.329   5.936   0.361 -0.3393 -0.7659  0.1060
  932TIP3    H224288   2.343   5.827   0.465 -0.6468  1.2516  2.3441
  933TIP3   OH224289   1.032   1.140  16.626  0.1822 -0.1030  0.5378
  933TIP3    H124290   0.946   1.176  16.605  0.4173 -0.1513 -0.5852
  933TIP3    H224291   1.089   1.171  16.556  0.7890 -1.1335  0.5481
  934TIP3   OH224292   6.739   0.354  16.040 -0.3171  0.2810  0.0027
  934TIP3    H124293   6.773   0.280  15.989  1.5997  1.0661  0.0757
  934TIP3    H224294   6.717   0.420  15.974 -0.9146  0.1064  0.0159
  935TIP3   OH224295   0.477   0.585  11.038 -0.2602  0.1192  0.1954
  935TIP3    H124296   0.538   0.655  11.017 -0.2159  0.0717  0.1665
  935TIP3    H224297   0.532   0.508  11.053 -0.2923  0.1551  0.4895
  936TIP3   OH224298   4.092   4.855   6.432  0.0267  0.0906  0.1857
  936TIP3    H124299   4.026   4.914   6.470 -0.5638 -0.0157 -0.6494
  936TIP3    H224300   4.093   4.877   6.339  0.5659 -0.5047  0.0460
  937TIP3   OH224301   1.411   4.992  11.155 -0.1603  0.0620 -0.1358
  937TIP3    H124302   1.461   4.992  11.237  0.1927  0.0954 -0.3475
  937TIP3    H224303   1.370   5.079  11.152 -2.5591 -0.9003  1.4225
  938TIP3   OH224304   2.349   6.787  14.671 -0.0139  0.0136  0.5832
  938TIP3    H124305   2.418   6.782  14.605 -0.4508  0.5417  0.0826
  938TIP3    H224306   2.292   6.858  14.641 -0.0269  0.4938  1.7091
  939TIP3   OH224307   1.150   2.054   1.337 -0.2636 -0.0191 -0.1516
  939TIP3    H124308   1.204   1.980   1.365  0.5992  0.7617  0.3025
  939TIP3    H224309   1.092   2.018   1.270  2.6252 -0.3616 -2.6763
  940TIP3   OH224310   2.360   3.615   5.246 -0.8965 -0.0388 -0.8362
  940TIP3    H124311   2.439   3.663   5.222 -0.8814  1.5537  1.9568
  940TIP3    H224312   2.342   3.559   5.171  1.8892  0.7979 -2.2580
  941TIP3   OH224313   5.443   6.045   2.167 -0.0900  0.3337  0.0688
  941TIP3    H124314   5.497   5.967   2.166 -1.1849 -0.4986  1.4150
  941TIP3    H224315   5.439   6.070   2.260  0.4290  2.1453 -0.3502
  942TIP3   OH224316   1.691   5.910  12.581  0.3706 -0.5424  0.0940
  942TIP3    H124317   1.619   5.847  12.582  1.8439 -2.3069  0.8741
  942TIP3    H224318   1.705   5.930  12.488 -1.4190  0.2383 -0.0396
  943TIP3   OH224319   6.441   2.798   6.329  0.6190 -0.0427 -0.7210
  943TIP3    H124320   6.507   2.729   6.330  0.7224 -0.0468 -3.2115
  943TIP3    H224321   6.359   2.753   6.352  1.1408 -0.3676  0.6325
  944TIP3   OH224322   2.022   1.957   1.621  0.0695  0.2532 -0.1888
  944TIP3    H124323   1.933   1.959   1.656  0.5866  1.6867  1.1551
  944TIP3    H224324   2.071   2.020   1.674  1.4456  0.9376 -2.1298
  945TIP3   OH224325   5.767   2.807   3.713 -0.5376 -0.2131 -0.0268
  945TIP3    H124326   5.828   2.834   3.783 -0.9252  2.6976 -0.7069
  945TIP3    H224327   5.694   2.767   3.760  0.9299 -1.9534  0.9272
  946TIP3   OH224328   2.558   4.822  12.987  0.4481  0.0795  0.3453
  946TIP3    H124329   2.469   4.852  12.969 -1.0813 -3.8203  0.3861
  946TIP3    H224330   2.563   4.817  13.083  0.3096 -0.6718  0.3196
  947TIP3   OH224331   3.982   1.441  15.410 -0.2676 -0.0340 -0.4004
  947TIP3    H124332   4.069   1.439  15.450 -2.1105 -0.3545  4.2215
  947TIP3    H224333   3.955   1.532  15.416 -1.0724 -0.3107  0.3104
  948TIP3   OH224334   2.353   0.528   2.180  0.4196 -0.4679 -0.0634
  948TIP3    H124335   2.350   0.500   2.271 -1.7699 -0.3301 -0.0239
  948TIP3    H224336   2.309   0.457   2.132  0.1627  0.1691 -0.7838
  949TIP3   OH224337   3.944   0.467   0.820 -0.8772 -0.3518 -0.3052
  949TIP3    H124338   3.869   0.490   0.875 -0.2798 -0.6829  0.6775
  949TIP3    H224339   3.951   0.372   0.827  0.4129 -0.2121  0.6840
  950TIP3   OH224340   2.532   5.202  15.197 -0.0227  0.2865  0.3540
  950TIP3    H124341   2.614   5.235  15.159  0.2598 -1.0311 -0.2559
  950TIP3    H224342   2.558   5.121  15.242 -1.0114 -0.2269  0.0322
  951TIP3   OH224343   6.655   1.665  15.177 -0.0489 -0.1574 -0.0137
  951TIP3    H124344   6.574   1.640  15.134  0.3251 -0.0471 -0.7964
  951TIP3    H224345   6.666   1.758  15.155  0.5456 -0.2975 -0.3432
  952TIP3   OH224346   2.566   2.535  14.080 -0.3456 -0.1040 -0.2759
  952TIP3    H124347   2.602   2.611  14.034 -0.4035 -0.1400 -0.3813
  952TIP3    H224348   2.518   2.487  14.012 -1.2331  0.3425  0.0217
  953TIP3   OH224349   6.658   5.436   4.770 -0.1514  0.2603 -0.3412
  953TIP3    H124350   6.579   5.394   4.736  0.7691 -1.1722 -0.7881
  953TIP3    H224351   6.680   5.387   4.849  0.0255  0.9627  0.0593
  954TIP3   OH224352   2.730   4.714   0.298 -0.1172 -0.4588 -0.1114
  954TIP3    H124353   2.710   4.634   0.346 -0.5490 -0.5209 -0.3841
  954TIP3    H224354   2.699   4.785   0.355  1.1229 -0.4235  0.5551
  955TIP3   OH224355   5.877   2.779   0.549  0.2453  0.1862  0.2743
  955TIP3    H124356   5.921   2.845   0.602  0.0633  2.1354 -1.8303
  955TIP3    H224357   5.884   2.812   0.459 -1.8388 -1.5408 -0.6149
  956TIP3   OH224358   0.757   4.379   2.687 -0.1365 -0.5229 -0.5649
  956TIP3    H124359   0.777   4.288   2.709  0.9088  0.0063  0.7605
  956TIP3    H224360   0.799   4.392   2.602 -0.3551 -1.2801 -0.8058
  957TIP3   OH224361   3.742   0.819   5.794 -0.3892  0.4486  0.6624
  957TIP3    H124362   3.828   0.860   5.809  0.1830 -0.8428  1.0557
  957TIP3    H224363   3.708   0.801   5.881 -0.5993  0.0578  0.5034
  958TIP3   OH224364   5.983   1.961  15.357  0.2223 -0.0425 -0.0382
  958TIP3    H124365   5.893   1.967  15.388  0.0771 -2.3296  0.1504
  958TIP3    H224366   5.978   1.984  15.264 -0.1247  2.1617  0.4835
  959TIP3   OH224367   6.392   4.643   5.002 -0.2238  0.0399  0.0223
  959TIP3    H124368   6.453   4.690   5.059 -1.2000 -0.1461  1.2627
  959TIP3    H224369   6.404   4.551   5.026  1.4309 -0.3795 -2.1525
  960TIP3   OH224370   4.978   4.550   0.802 -0.0644 -0.0466 -0.0780
  960TIP3    H124371   4.884   4.545   0.818 -0.2361 -1.9336 -1.3148
  960TIP3    H224372   4.989   4.628   0.748 -0.6349  1.1796  1.4760
  961TIP3   OH224373   6.365   4.721  12.251 -0.3550  0.4075 -0.4397
  961TIP3    H124374   6.339   4.631  12.271  0.0403  0.4147  0.1536
  961TIP3    H224375   6.419   4.714  12.172  1.2330 -0.1331  0.6432
  962TIP3   OH224376   2.370   0.078  11.645  0.1066 -0.2003 -0.0411
  962TIP3    H124377   2.422   0.146  11.688 -1.6167  0.5795  0.9134
  962TIP3    H224378   2.395  -0.003  11.689  0.5502  0.1392  0.3486
  963TIP3   OH224379   1.464   2.258   2.429  0.2484  0.1883 -0.4776
  963TIP3    H124380   1.429   2.170   2.440  0.6834  0.1325  0.6359
  963TIP3    H224381   1.397   2.315   2.468 -0.1335  0.3845 -1.3884
  964TIP3   OH224382   5.933   3.770   2.711  0.0934  0.1625 -0.3617
  964TIP3    H124383   5.876   3.735   2.779 -1.5033  0.1933 -1.6293
  964TIP3    H224384   5.995   3.699   2.693  0.5768  0.1737  1.1189
  965TIP3   OH224385   3.685   0.746   4.694  0.2445 -0.0786 -0.4046
  965TIP3    H124386   3.704   0.715   4.783 -0.4652  2.3386  0.6901
  965TIP3    H224387   3.665   0.667   4.644  0.1237 -1.4760  1.7375
  966TIP3   OH224388   3.381   2.025   3.606  0.0344 -0.0571 -0.2208
  966TIP3    H124389   3.472   2.049   3.624 -0.4933  1.0641  1.1636
  966TIP3    H224390   3.336   2.109   3.597 -0.6796 -0.5960 -2.0532
  967TIP3   OH224391   0.238   3.128  10.713 -0.5158 -0.7934 -0.1868
  967TIP3    H124392   0.249   3.131  10.618  0.2065  1.0187 -0.0821
  967TIP3    H224393   0.148   3.099  10.726 -1.9181  2.4860 -1.5548
  968TIP3   OH224394   1.875   0.449   4.369 -0.0200 -0.5163  0.6280
  968TIP3    H124395   1.928   0.454   4.289 -1.6577 -0.4784 -0.5021
  968TIP3    H224396   1.933   0.409   4.434  1.4772 -0.1827 -0.4625
  969TIP3   OH224397   4.834   0.399  14.369  0.0913 -0.5866  0.3353
  969TIP3    H124398   4.838   0.304  14.382  0.6155 -0.5678  0.3391
  969TIP3    H224399   4.764   0.429  14.427  1.0433 -0.7533  1.6040
  970TIP3   OH224400   5.569   5.587  11.028  0.1523 -0.0913 -0.3147
  970TIP3    H124401   5.501   5.654  11.030  0.6803  0.4507 -0.1325
  970TIP3    H224402   5.556   5.542  10.945  1.0676  1.5915 -1.4282
  971TIP3   OH224403   1.064   6.341   5.728  0.1636  0.5033 -0.0248
  971TIP3    H124404   1.078   6.254   5.767 -2.4029 -0.4836 -1.0304
  971TIP3    H224405   1.129   6.397   5.769  1.1915 -1.6630  1.4978
  972TIP3   OH224406   6.362   0.697   0.607 -0.0545  0.0572 -0.4512
  972TIP3    H124407   6.410   0.760   0.661 -0.7009  1.1480 -1.1248
  972TIP3    H224408   6.420   0.621   0.602  0.5307  0.3984  0.7733
  973TIP3   OH224409   1.505   2.475   0.058  0.3245  0.2201 -0.0456
  973TIP3    H124410   1.539   2.559   0.029  0.4148  0.0898 -0.3248
  973TIP3    H224411   1.443   2.496   0.128  0.0521  0.5416 -0.3800
  974TIP3   OH224412   0.031   5.550  16.552  0.4834  0.2421  0.1779
  974TIP3    H124413   0.032   5.565  16.646  0.7375  0.5628  0.1294
  974TIP3    H224414   0.079   5.625  16.516 -1.5174  1.3400 -0.3684
  975TIP3   OH224415   2.530   1.280   4.021  0.0964 -0.0586  0.4884
  975TIP3    H124416   2.495   1.365   4.048 -0.2170 -0.1335  0.3225
  975TIP3    H224417   2.457   1.219   4.032  0.0404 -0.1378 -0.2893
  976TIP3   OH224418   5.978   2.717   0.274  0.4416  0.6361 -0.2317
  976TIP3    H124419   5.885   2.705   0.255  0.3545  1.3024 -0.2430
  976TIP3    H224420   6.015   2.629   0.269 -0.6217 -0.0000  2.1518
  977TIP3   OH224421   4.757   2.996   3.039 -0.2916 -0.2411 -0.2452
  977TIP3    H124422   4.746   3.011   3.133 -0.5268  0.8222 -0.4299
  977TIP3    H224423   4.724   3.076   2.998  2.6152  0.6405 -1.0851
  978TIP3   OH224424   5.880   0.417  14.698 -0.0151 -0.2854  0.2067
  978TIP3    H124425   5.938   0.345  14.672  1.1393  1.1004 -1.3070
  978TIP3    H224426   5.939   0.484  14.731 -0.9698  0.4251  0.5150
  979TIP3   OH224427   5.850   1.347   4.623  0.0861 -0.3666 -0.3320
  979TIP3    H124428   5.877   1.264   4.585 -0.2967 -0.1374 -1.1248
  979TIP3    H224429   5.931   1.397   4.632  0.0451  0.1527 -2.2932
  980TIP3   OH224430   3.991   3.083  13.804  0.3231 -0.4138  0.6109
  980TIP3    H124431   4.055   3.089  13.733  0.5938  0.8685  0.9389
  980TIP3    H224432   4.042   3.098  13.884 -0.2015 -0.5135  0.9724
  981TIP3   OH224433   3.985   6.588  17.271  0.0400 -0.5524  0.1783
  981TIP3    H124434   3.927   6.640  17.327  1.7000  1.7467 -0.1100
  981TIP3    H224435   3.950   6.599  17.183  1.1062  1.2763 -0.0709
  982TIP3   OH224436   2.221   4.816  10.832  0.3208 -0.7949  0.6283
  982TIP3    H124437   2.220   4.905  10.868 -2.0099 -1.3942  2.2576
  982TIP3    H224438   2.172   4.822  10.751 -0.8365 -0.7457  1.3049
  983TIP3   OH224439   1.402   0.978   1.323  0.5818 -0.0090  0.1919
  983TIP3    H124440   1.357   0.953   1.404  0.9178  1.3984  0.8359
  983TIP3    H224441   1.347   0.941   1.254 -1.1401  0.9504  0.9742
  984TIP3   OH224442   5.482   4.530   3.995  0.3723  0.2173 -0.4337
  984TIP3    H124443   5.407   4.555   3.942 -0.1414  0.1569  0.2444
  984TIP3    H224444   5.555   4.578   3.957 -0.1448  0.8470 -0.6652
  985TIP3   OH224445   5.468   4.477  17.333 -0.2415 -0.7799  0.4233
  985TIP3    H124446   5.535   4.522  17.384 -0.7058 -1.1462  1.3862
  985TIP3    H224447   5.433   4.411  17.392 -3.1194  0.9579  0.8605
  986TIP3   OH224448   0.833   5.811  11.168 -0.1933  0.6175  0.2858
  986TIP3    H124449   0.861   5.751  11.099 -2.6663  0.0524 -0.3490
  986TIP3    H224450   0.837   5.898  11.127 -1.2900  0.3230 -0.5007
  987TIP3   OH224451   5.187   3.858   3.706 -0.2932 -0.5406  0.0039
  987TIP3    H124452   5.180   3.772   3.664 -1.4261 -1.5477  2.0498
  987TIP3    H224453   5.129   3.914   3.656  2.0351 -0.3213 -2.6567
  988TIP3   OH224454   6.027   2.629   4.001  0.8273 -0.6903  0.1276
  988TIP3    H124455   6.002   2.717   3.971  0.2194 -0.9299 -0.0811
  988TIP3    H224456   6.119   2.620   3.975  1.0731  0.1154  0.6904
  989TIP3   OH224457   5.655   3.814   1.336  0.2771 -0.0029 -0.3541
  989TIP3    H124458   5.701   3.740   1.377 -0.4568 -0.5851 -0.5597
  989TIP3    H224459   5.570   3.778   1.311 -0.4119  1.1277  0.2820
  990TIP3   OH224460   4.186   3.641  12.910  0.6117  0.5647 -0.4389
  990TIP3    H124461   4.235   3.615  12.988 -0.3012  0.9171  0.2731
  990TIP3    H224462   4.169   3.734  12.922  1.4871  0.9147 -1.6562
  991TIP3   OH224463   6.024   6.356  14.298 -0.2590 -0.4621 -0.2544
  991TIP3    H124464   5.930   6.369  14.298 -0.1683  0.5230 -2.2553
  991TIP3    H224465   6.040   6.293  14.227  0.4531 -2.2163  1.3686
  992TIP3   OH224466   2.376   2.644   6.049  0.4948  0.2237  0.3992
  992TIP3    H124467   2.457   2.684   6.080  2.2432  0.0343 -3.4472
  992TIP3    H224468   2.391   2.627   5.956 -3.9196  0.0208 -0.5023
  993TIP3   OH224469   4.325   3.677  15.044  0.0555 -0.0855  0.6402
  993TIP3    H124470   4.355   3.587  15.029 -0.9832 -0.4121  0.4241
  993TIP3    H224471   4.389   3.731  14.998  1.1640 -0.6492  1.4565
  994TIP3   OH224472   1.993   0.613   0.461  0.8037  0.5441  0.9145
  994TIP3    H124473   2.076   0.565   0.461 -0.9141 -2.7718 -0.5291
  994TIP3    H224474   2.013   0.695   0.505  4.5513 -0.5615  1.6531
  995TIP3   OH224475   3.220   4.486  14.348  0.2774  0.0532  0.3156
  995TIP3    H124476   3.268   4.503  14.268 -0.6579 -1.9222 -0.7383
  995TIP3    H224477   3.232   4.393  14.365 -3.5041 -0.7513 -0.3626
  996TIP3   OH224478   0.484   2.660   0.076 -0.7855  0.8667 -0.1551
  996TIP3    H124479   0.453   2.692  -0.009 -1.4595 -0.4314 -0.4250
  996TIP3    H224480   0.482   2.565   0.068  1.0945  0.7140  0.6369
  997TIP3   OH224481   6.385   0.410  13.252 -0.5777 -0.4616  0.3037
  997TIP3    H124482   6.337   0.470  13.194  0.0011 -1.0103 -0.7762
  997TIP3    H224483   6.390   0.457  13.336 -0.1817  0.9921 -0.4913
  998TIP3   OH224484   6.505   1.153  13.242  0.0243 -0.1572  0.0386
  998TIP3    H124485   6.421   1.106  13.246  1.2680 -2.4953  0.3126
  998TIP3    H224486   6.528   1.168  13.334  0.4401 -0.5452 -0.0015
  999TIP3   OH224487   5.816   1.967   1.071  0.0202  0.3967 -0.2743
  999TIP3    H124488   5.863   1.993   0.992  0.6816 -0.0568 -0.0421
  999TIP3    H224489   5.794   2.050   1.114  0.4461  0.6239 -0.4853
 1000TIP3   OH224490   1.534   2.007  16.094  0.2324  0.0680  0.2484
 1000TIP3    H124491   1.620   1.997  16.054  0.1231  0.3655 -0.0715
 1000TIP3    H224492   1.476   1.955  16.038  0.6235 -2.4217  2.0266
 1001TIP3   OH224493   4.698   2.218  11.137 -0.1188 -0.5109  0.2892
 1001TIP3    H124494   4.789   2.229  11.167 -0.0282 -0.1692 -0.1109
 1001TIP3    H224495   4.705   2.209  11.042 -0.3721 -1.9577  0.3788
 1002TIP3   OH224496   2.696   5.060  16.985 -0.1541 -0.4733  0.2773
 1002TIP3    H124497   2.621   5.001  16.984 -0.9595  0.5101 -1.3408
 1002TIP3    H224498   2.738   5.047  16.899 -0.2128  1.0876 -0.0185
 1003TIP3   OH224499   6.196   1.936   3.922  0.3135  0.1632 -0.2041
 1003TIP3    H124500   6.106   1.919   3.896  0.3813 -2.0519  0.7849
 1003TIP3    H224501   6.236   1.979   3.846 -0.1413 -3.6800 -2.8766
 1004TIP3   OH224502   0.273   2.644  16.486  0.3731  0.0887 -0.2038
 1004TIP3    H124503   0.277   2.734  16.520  0.6072  0.1060 -0.2771
 1004TIP3    H224504   0.287   2.589  16.563  0.3776  0.1185 -0.1824
 1005TIP3   OH224505   6.292   4.467  15.692 -0.1351  0.0316 -0.5022
 1005TIP3    H124506   6.302   4.521  15.770 -0.1062  0.9707 -1.1443
 1005TIP3    H224507   6.200   4.439  15.694  0.1598 -0.9201  0.4707
 1006TIP3   OH224508   2.704   4.299   3.617  0.1227 -0.4868  0.0113
 1006TIP3    H124509   2.762   4.227   3.643 -0.6034 -1.2036 -0.3158
 1006TIP3    H224510   2.694   4.351   3.696  2.1451  0.3245 -0.2114
 1007TIP3   OH224511   4.065   2.498   1.600 -0.0548 -0.5106 -0.2673
 1007TIP3    H124512   4.128   2.556   1.643 -0.2329  0.2922 -1.0781
 1007TIP3    H224513   4.090   2.410   1.630  2.2165 -0.3586 -1.4832
 1008TIP3   OH224514   2.582   4.661  14.720 -0.1409  0.1573 -0.2631
 1008TIP3    H124515   2.594   4.566  14.723  1.9598  0.3631 -0.7250
 1008TIP3    H224516   2.488   4.674  14.735 -0.5286 -1.9966 -0.5351
 1009TIP3   OH224517   4.015   1.327  13.288 -0.4611  0.2494  0.1420
 1009TIP3    H124518   4.055   1.408  13.321 -2.1824  1.1918  0.0205
 1009TIP3    H224519   3.921   1.341  13.299 -0.7682 -2.1533  1.0323
 1010TIP3   OH224520   3.233   2.694  15.239 -0.0573  0.5123 -0.1072
 1010TIP3    H124521   3.152   2.665  15.197  0.2924 -1.2642  0.3764
 1010TIP3    H224522   3.204   2.752  15.309 -0.8837  0.2346 -0.2119
 1011TIP3   OH224523   0.505   0.461   2.952 -0.5558  0.4680 -0.4854
 1011TIP3    H124524   0.559   0.539   2.966  0.0289  0.1172 -0.7486
 1011TIP3    H224525   0.541   0.421   2.874 -0.3496 -0.4962  0.0914
 1012TIP3   OH224526   1.272   6.207  15.042  0.6436  0.0008  0.1679
 1012TIP3    H124527   1.269   6.166  14.956  0.9546  0.4384 -0.0589
 1012TIP3    H224528   1.361   6.241  15.049  1.1523 -1.4659  1.3527
 1013TIP3   OH224529   0.300   5.585   0.400 -0.3367  0.2383 -0.6672
 1013TIP3    H124530   0.251   5.534   0.464 -0.4236 -0.0029 -0.9255
 1013TIP3    H224531   0.392   5.579   0.428 -0.5550  1.6604  0.5047
 1014TIP3   OH224532   1.479   5.991  13.074  0.1202  0.2726 -0.1339
 1014TIP3    H124533   1.471   5.918  13.014  0.5893  0.7250 -0.7659
 1014TIP3    H224534   1.399   5.989  13.125  0.2781 -0.8781  0.0931
 1015TIP3   OH224535   6.705   6.283  10.136 -0.8788 -0.1001  0.1830
 1015TIP3    H124536   6.780   6.339  10.159 -1.8244  1.7047 -0.8678
 1015TIP3    H224537   6.740   6.194  10.138  1.6107  0.7308 -1.3604
 1016TIP3   OH224538   0.687   5.160  13.381  0.2429 -0.2048  0.2118
 1016TIP3    H124539   0.606   5.113  13.359 -1.8708  2.7597  1.0426
 1016TIP3    H224540   0.713   5.201  13.298  0.7156 -0.8321  0.0385
 1017TIP3   OH224541   0.304   3.734  14.782  0.1338 -0.2482  0.1796
 1017TIP3    H124542   0.336   3.814  14.742  1.7894 -0.4828  0.9326
 1017TIP3    H224543   0.371   3.712  14.848 -1.7951 -0.5731  2.1568
 1018TIP3   OH224544   4.195   5.892  12.901  0.2311  0.1747  0.1218
 1018TIP3    H124545   4.119   5.913  12.847  0.7189  0.7282 -0.3686
 1018TIP3    H224546   4.233   5.814  12.862 -0.2867 -0.3148  0.5849
 1019TIP3   OH224547   1.348   3.618   1.648  0.4904 -0.0860 -0.2276
 1019TIP3    H124548   1.322   3.708   1.668  1.5857  0.1857  0.0160
 1019TIP3    H224549   1.317   3.567   1.723  0.2705  0.1585 -0.1497
 1020TIP3   OH224550   2.391   5.609   6.517 -0.3811 -0.4913  0.0132
 1020TIP3    H124551   2.467   5.652   6.555 -0.3888 -0.0473 -0.4596
 1020TIP3    H224552   2.410   5.515   6.525  0.5101 -0.3865 -0.6680
 1021TIP3   OH224553   1.527   3.901   3.706  0.6519  0.4639  0.6435
 1021TIP3    H124554   1.518   3.995   3.691  0.8831  0.5829  1.2408
 1021TIP3    H224555   1.437   3.870   3.714  0.4560  0.2473 -1.7787
 1022TIP3   OH224556   0.235   5.631  11.480 -0.2132 -0.1376  0.0202
 1022TIP3    H124557   0.191   5.652  11.562  2.4257 -1.1160  1.8130
 1022TIP3    H224558   0.219   5.708  11.424 -1.4349  0.8960  1.6998
 1023TIP3   OH224559   6.513   3.531   0.633  0.2288 -0.1454  0.4852
 1023TIP3    H124560   6.502   3.561   0.723  0.3043 -0.0618  0.4663
 1023TIP3    H224561   6.482   3.440   0.635  0.6972 -0.3012  0.7052
 1024TIP3   OH224562   3.325   5.231  14.598  0.1052  0.5245  0.4171
 1024TIP3    H124563   3.416   5.206  14.615  0.2356  0.0392 -0.9148
 1024TIP3    H224564   3.326   5.327  14.605  0.6438  0.5010  0.7587
 1025TIP3   OH224565   3.349   6.662  15.465 -0.1307  0.0445 -0.2027
 1025TIP3    H124566   3.254   6.656  15.474 -0.3583  2.4797 -0.5131
 1025TIP3    H224567   3.381   6.679  15.553 -0.0922  0.2910 -0.2632
 1026TIP3   OH224568   5.111   1.948  13.124 -0.5229 -0.6690  0.6150
 1026TIP3    H124569   5.079   2.023  13.075 -2.4218 -1.4383  0.6077
 1026TIP3    H224570   5.124   1.879  13.058  0.4945 -0.6007  0.7223
 1027TIP3   OH224571   1.974   5.318   1.917 -0.0711 -0.0599 -0.3952
 1027TIP3    H124572   1.893   5.281   1.953  0.8331 -2.3336 -0.5557
 1027TIP3    H224573   2.039   5.306   1.986  0.1643  1.8280 -0.2316
 1028TIP3   OH224574   1.567   1.493  15.710 -0.2939 -0.5074  0.7432
 1028TIP3    H124575   1.538   1.410  15.748 -1.4428  0.1034  1.2344
 1028TIP3    H224576   1.663   1.492  15.720 -0.3605 -1.4517  1.3760
 1029TIP3   OH224577   2.065   6.306   4.658 -0.1519 -0.2065  0.4462
 1029TIP3    H124578   2.122   6.329   4.585  0.6063 -1.7323  0.4984
 1029TIP3    H224579   2.119   6.321   4.736  0.0838 -1.2894  0.5152
 1030TIP3   OH224580   2.875   1.064  14.351  0.2211 -0.2815 -0.1957
 1030TIP3    H124581   2.905   1.065  14.260 -0.1344 -1.7782 -0.3592
 1030TIP3    H224582   2.943   1.111  14.399 -1.1130  3.4365 -1.5972
 1031TIP3   OH224583   3.025   1.973  14.526  0.2346 -0.2496  0.2135
 1031TIP3    H124584   2.960   2.041  14.547  0.7033 -0.0496  1.0446
 1031TIP3    H224585   2.994   1.896  14.573 -0.2357 -0.5974 -0.6410
 1032TIP3   OH224586   1.483   5.891  15.810 -0.1368 -0.3897  0.1261
 1032TIP3    H124587   1.396   5.856  15.791 -0.3656 -1.0755  2.1332
 1032TIP3    H224588   1.540   5.814  15.807 -0.0251 -0.3572  1.0713
 1033TIP3   OH224589   2.706   1.624   6.948  0.2998  0.7682  0.5871
 1033TIP3    H124590   2.637   1.690   6.963  2.3790  2.7497  2.2145
 1033TIP3    H224591   2.783   1.676   6.927  1.4085 -1.3774 -0.9009
 1034TIP3   OH224592   0.586   5.190   2.436 -0.3435 -0.3531  0.1119
 1034TIP3    H124593   0.591   5.278   2.474 -0.6465  0.1337 -0.9361
 1034TIP3    H224594   0.676   5.170   2.409 -0.1243 -0.7080  1.0716
 1035TIP3   OH224595   5.678   0.202   6.283  0.0486 -0.3879 -0.0170
 1035TIP3    H124596   5.634   0.118   6.292 -0.6929 -0.5858 -3.8482
 1035TIP3    H224597   5.633   0.259   6.345 -2.7027 -1.6808 -0.6589
 1036TIP3   OH224598   3.328   1.901   3.977  0.0757 -0.0138 -0.4372
 1036TIP3    H124599   3.395   1.966   3.955 -0.2401  0.5518  0.2185
 1036TIP3    H224600   3.377   1.827   4.013  0.3715  0.3114 -0.1578
 1037TIP3   OH224601   1.355   2.166   3.381 -0.5266 -0.4023  0.1272
 1037TIP3    H124602   1.355   2.258   3.353 -1.3734 -0.3441  0.2715
 1037TIP3    H224603   1.263   2.148   3.400 -0.4594 -1.4670 -0.5087
 1038TIP3   OH224604   5.741   3.080   5.805 -0.5452  0.0658 -0.0009
 1038TIP3    H124605   5.799   3.070   5.730  1.1871  0.5870  1.1982
 1038TIP3    H224606   5.730   2.990   5.838 -0.3712 -0.0413 -0.2281
 1039TIP3   OH224607   1.622   1.487   5.008 -0.1014  0.5810 -0.2867
 1039TIP3    H124608   1.696   1.543   5.032  0.0707  0.5277 -0.6828
 1039TIP3    H224609   1.650   1.444   4.927 -0.5608  0.5487 -0.4319
 1040TIP3   OH224610   1.391   0.207   1.814 -0.5120  0.4099 -0.8633
 1040TIP3    H124611   1.452   0.280   1.812  2.0451 -1.5367  0.1953
 1040TIP3    H224612   1.339   0.220   1.894  0.5240  0.6291 -0.2171
 1041TIP3   OH224613   2.272   5.433   0.961 -0.2185  0.0497  0.0611
 1041TIP3    H124614   2.259   5.401   1.050 -1.3252  0.0317 -0.1035
 1041TIP3    H224615   2.320   5.515   0.973 -0.1213 -0.0873  0.6546
 1042TIP3   OH224616   0.336   5.239   6.108 -0.4234  0.1004 -0.1997
 1042TIP3    H124617   0.382   5.250   6.192 -0.9234 -2.1574  0.4224
 1042TIP3    H224618   0.252   5.283   6.121 -0.1999  0.4214  0.1937
 1043TIP3   OH224619   4.445   1.424   1.981 -0.2593  0.1835  0.2517
 1043TIP3    H124620   4.480   1.384   1.901  0.7939 -0.8055  1.1669
 1043TIP3    H224621   4.441   1.517   1.961 -0.8583 -0.1380 -1.2517
 1044TIP3   OH224622   3.052   6.765  13.336  0.0983  0.0278 -0.2455
 1044TIP3    H124623   3.060   6.683  13.385  0.0807 -0.3677 -0.8972
 1044TIP3    H224624   2.981   6.749  13.273  1.6592 -0.2792 -1.9941
 1045TIP3   OH224625   3.932   1.943   4.178 -0.6082 -0.2105  0.6809
 1045TIP3    H124626   3.850   1.912   4.217  0.1550 -0.6602  2.0116
 1045TIP3    H224627   3.957   2.019   4.231  0.9658 -1.4383  1.8286
 1046TIP3   OH224628   1.164   3.775   4.142 -0.1069  0.2088  0.0768
 1046TIP3    H124629   1.104   3.701   4.149 -2.2352  1.4919 -2.6171
 1046TIP3    H224630   1.191   3.776   4.050  0.5353  2.2529  0.2422
 1047TIP3   OH224631   5.669   1.405  15.457 -0.3603  0.3508 -0.5587
 1047TIP3    H124632   5.721   1.468  15.506 -0.9926 -0.2680  0.9462
 1047TIP3    H224633   5.604   1.459  15.411  0.7672  1.0075 -1.4660
 1048TIP3   OH224634   1.549   1.914  13.840  0.0893  0.5005 -0.1226
 1048TIP3    H124635   1.588   1.993  13.879 -3.1753  1.4997  1.4565
 1048TIP3    H224636   1.500   1.946  13.765 -1.2431  0.0301  0.5128
 1049TIP3   OH224637   5.040   2.498  16.582  0.0619 -0.0746 -0.4371
 1049TIP3    H124638   4.970   2.476  16.522 -0.6526 -0.3312  0.4670
 1049TIP3    H224639   5.006   2.571  16.633  0.4146 -0.2484  0.0576
 1050TIP3   OH224640   5.512   5.611  12.786 -0.0533 -0.3633  0.6277
 1050TIP3    H124641   5.442   5.646  12.732  1.0013  1.0270  0.1147
 1050TIP3    H224642   5.467   5.560  12.853 -1.4875 -0.3927 -0.3170
 1051TIP3   OH224643   1.697   5.875  15.472 -0.6771 -0.3687 -0.5176
 1051TIP3    H124644   1.658   5.938  15.411 -2.1837  0.6519  1.3647
 1051TIP3    H224645   1.738   5.929  15.540 -0.3118 -1.4318  0.1331
 1052TIP3   OH224646   6.033   6.287   2.106  0.3028  0.1351  0.2908
 1052TIP3    H124647   6.124   6.258   2.106 -0.2783 -1.8651 -0.5610
 1052TIP3    H224648   6.013   6.302   2.198  1.6594  1.2657  0.4343
 1053TIP3   OH224649   1.754   6.519  16.559 -0.2444  0.2006  0.5277
 1053TIP3    H124650   1.836   6.554  16.596 -0.7018 -1.0003  2.8805
 1053TIP3    H224651   1.697   6.595  16.551  0.7639  0.9077 -0.2515
 1054TIP3   OH224652   0.895   3.322   3.906  0.5759 -0.4537  0.1011
 1054TIP3    H124653   0.944   3.294   3.828  0.8781 -0.8423  0.4283
 1054TIP3    H224654   0.884   3.416   3.894 -0.9800 -0.7732 -1.2993
 1055TIP3   OH224655   1.410   0.811  11.482 -0.2788 -0.8154  0.7040
 1055TIP3    H124656   1.422   0.761  11.563 -0.3573 -0.1651  1.1271
 1055TIP3    H224657   1.382   0.898  11.511  0.2047 -0.4112  0.0017
 1056TIP3   OH224658   1.442   4.320  11.599 -0.6725 -0.4881 -0.0366
 1056TIP3    H124659   1.389   4.319  11.678 -0.1303 -0.6583  0.3344
 1056TIP3    H224660   1.499   4.243  11.607  1.6580  1.2124  1.0036
 1057TIP3   OH224661   3.740   6.278   2.942 -0.0090 -0.0099 -0.0771
 1057TIP3    H124662   3.676   6.285   3.013 -0.0498  0.6397 -0.1632
 1057TIP3    H224663   3.694   6.314   2.865  0.8794  1.7086  0.1530
 1058TIP3   OH224664   2.097   0.415   2.986  0.7058 -0.4031 -0.0721
 1058TIP3    H124665   2.088   0.395   3.079 -0.2487 -0.2514 -0.1193
 1058TIP3    H224666   2.152   0.345   2.951  0.0078 -1.1786  0.3596
 1059TIP3   OH224667   0.455   3.884  10.487  0.5687  0.4254  0.2977
 1059TIP3    H124668   0.524   3.877  10.421  0.2215  0.3894 -0.0676
 1059TIP3    H224669   0.382   3.835  10.449  0.2384  0.7285  0.5424
 1060TIP3   OH224670   5.731   3.357  16.057 -0.5274 -0.1962  0.0434
 1060TIP3    H124671   5.667   3.351  15.987  1.1389 -0.0007 -1.5557
 1060TIP3    H224672   5.811   3.317  16.022  0.4003 -0.0087  1.7876
 1061TIP3   OH224673   5.361   3.837   3.341 -0.0096 -0.0200  0.1547
 1061TIP3    H124674   5.363   3.744   3.363  0.9081 -0.2994 -1.0404
 1061TIP3    H224675   5.404   3.880   3.415  0.0876 -0.5989  0.4422
 1062TIP3   OH224676   1.968   0.414  15.646  0.3774 -0.3636 -0.4071
 1062TIP3    H124677   1.895   0.447  15.698  0.7927  1.7235 -1.0441
 1062TIP3    H224678   2.020   0.363  15.708  0.4987  1.4792  1.1034
 1063TIP3   OH224679   4.521   1.526   3.135 -0.0798 -0.0661  0.7637
 1063TIP3    H124680   4.515   1.616   3.168  0.4144  0.2609 -0.0094
 1063TIP3    H224681   4.513   1.535   3.040 -2.6106 -1.0886  0.7951
 1064TIP3   OH224682   1.099   6.704   6.197  0.5939  0.5694 -0.2075
 1064TIP3    H124683   1.102   6.758   6.276  0.8864  0.5322 -0.1904
 1064TIP3    H224684   1.186   6.664   6.192  0.2606 -0.1998 -0.0134
 1065TIP3   OH224685   4.368   4.995   4.483  0.8643  0.0104  0.6715
 1065TIP3    H124686   4.316   5.061   4.438  0.4157 -0.9897 -0.3160
 1065TIP3    H224687   4.459   5.017   4.459  0.7212  0.2508  0.3352
 1066TIP3   OH224688   5.866   0.659  12.202 -0.4737  0.1387  0.3812
 1066TIP3    H124689   5.889   0.628  12.290 -0.5586  0.3549  0.4829
 1066TIP3    H224690   5.944   0.705  12.172 -0.2342 -0.4546  0.0987
 1067TIP3   OH224691   3.732   2.120  16.752 -0.9806 -1.0327 -0.2568
 1067TIP3    H124692   3.805   2.061  16.733  0.2604  0.3198  0.1433
 1067TIP3    H224693   3.704   2.094  16.840  0.8981  0.2246  0.7835
 1068TIP3   OH224694   5.854   2.786  16.747 -0.0097  0.2522 -0.7251
 1068TIP3    H124695   5.794   2.853  16.715 -1.7552 -0.4185  1.0187
 1068TIP3    H224696   5.820   2.704  16.712  0.4664 -0.0383 -0.5204
 1069TIP3   OH224697   1.081   1.518   4.101 -0.2184 -0.3836  0.2087
 1069TIP3    H124698   1.008   1.477   4.055 -0.1271 -0.3215  0.0078
 1069TIP3    H224699   1.156   1.505   4.044  0.1262 -1.2604  0.8376
 1070TIP3   OH224700   0.009   6.214   3.809  0.4150  0.2962  0.3861
 1070TIP3    H124701   0.007   6.268   3.889  2.9552  1.9429 -0.5411
 1070TIP3    H224702   0.089   6.162   3.817 -1.4909 -2.8121  0.8013
 1071TIP3   OH224703   4.100   1.571   3.696 -0.0707 -0.4837  0.1607
 1071TIP3    H124704   4.167   1.637   3.679  0.0829 -0.3462  1.2196
 1071TIP3    H224705   4.136   1.490   3.659 -0.7273  0.1947 -2.1048
 1072TIP3   OH224706   5.039   0.218   4.008 -0.5618 -0.3571 -0.5167
 1072TIP3    H124707   5.048   0.312   3.995 -4.0860  0.3976  1.2729
 1072TIP3    H224708   5.048   0.206   4.103 -3.5933 -1.1461 -0.2056
 1073TIP3   OH224709   5.175   2.294  14.851  0.3239  0.5567 -0.1015
 1073TIP3    H124710   5.227   2.375  14.847  0.0872  0.6758 -1.1865
 1073TIP3    H224711   5.172   2.263  14.761 -3.7937  2.0500 -0.7244
 1074TIP3   OH224712   2.793   2.900  14.699 -0.1471  0.3326 -0.2627
 1074TIP3    H124713   2.748   2.815  14.692  1.3843 -0.6266  1.0157
 1074TIP3    H224714   2.723   2.964  14.690 -1.9182 -1.0956  2.0650
 1075TIP3   OH224715   2.837   2.141   5.123  0.0111 -0.4383  0.3645
 1075TIP3    H124716   2.746   2.172   5.125  0.3557  0.5736  0.4881
 1075TIP3    H224717   2.834   2.057   5.170 -1.1431 -1.2295 -1.0356
 1076TIP3   OH224718   4.917   1.533   4.384 -0.2291  0.1212  0.0530
 1076TIP3    H124719   5.002   1.509   4.347  0.4289  1.3002  0.7261
 1076TIP3    H224720   4.916   1.491   4.470  0.2163  1.0738  0.5451
 1077TIP3   OH224721   3.187   5.494  17.147  0.3890 -0.0914  0.1526
 1077TIP3    H124722   3.202   5.401  17.164  0.7014  0.0388  0.6132
 1077TIP3    H224723   3.207   5.505  17.054  1.6487 -0.2374  0.3858
 1078TIP3   OH224724   2.941   5.640   5.101  0.3323 -0.4753  0.0752
 1078TIP3    H124725   2.946   5.706   5.170 -0.0595 -0.2886 -0.0728
 1078TIP3    H224726   2.865   5.665   5.048  1.3139  0.0756 -1.1388
 1079TIP3   OH224727   2.460   0.837   1.099 -0.0739  0.2572 -0.1053
 1079TIP3    H124728   2.547   0.841   1.059  0.3324 -0.4387  0.6964
 1079TIP3    H224729   2.419   0.759   1.060 -0.6414  0.9875 -1.0374
 1080TIP3   OH224730   0.321   2.047   4.089 -0.2782 -0.5185 -0.1400
 1080TIP3    H124731   0.386   2.098   4.139  0.9954 -0.7152 -1.5299
 1080TIP3    H224732   0.346   2.060   3.998  0.0938 -3.6212 -0.5746
 1081TIP3   OH224733   1.914   6.609   4.090 -0.1268  0.0629  0.4066
 1081TIP3    H124734   1.846   6.667   4.056  0.9310  0.8736 -0.4115
 1081TIP3    H224735   1.912   6.534   4.032 -1.5926 -0.8491  1.5484
 1082TIP3   OH224736   5.203   3.832  14.248  0.1587 -0.0933 -0.2059
 1082TIP3    H124737   5.111   3.828  14.275  0.3830  0.1278  0.6346
 1082TIP3    H224738   5.203   3.891  14.172 -0.4562 -0.4815 -0.5130
 1083TIP3   OH224739   2.505   4.716  15.357  0.4080  0.2494 -0.8367
 1083TIP3    H124740   2.573   4.655  15.387  0.6184  0.2243 -1.3497
 1083TIP3    H224741   2.447   4.662  15.304 -0.1614  0.2178 -0.1859
 1084TIP3   OH224742   3.119   3.276  11.908 -0.1096  0.4111 -0.4161
 1084TIP3    H124743   3.056   3.250  11.840 -1.2152 -0.3913  0.8569
 1084TIP3    H224744   3.070   3.336  11.964 -0.5715 -1.9886  1.9166
 1085TIP3   OH224745   4.268   1.931   5.468  0.0060 -0.0776  0.8764
 1085TIP3    H124746   4.260   1.861   5.402  1.3253  0.4938  0.0789
 1085TIP3    H224747   4.316   2.000   5.423 -1.0622  1.2671  1.7404
 1086TIP3   OH224748   3.609   5.684  13.972  0.5898  0.5088  0.5792
 1086TIP3    H124749   3.704   5.693  13.975  0.6634 -0.1528  0.3826
 1086TIP3    H224750   3.577   5.735  14.047  1.2364 -1.1040  2.0035
 1087TIP3   OH224751   1.547   0.043   4.144  0.7231 -0.1549 -0.0726
 1087TIP3    H124752   1.520  -0.007   4.221 -0.3769 -1.1961 -1.1051
 1087TIP3    H224753   1.630   0.002   4.117  0.2056 -0.9487 -0.4760
 1088TIP3   OH224754   3.429   0.454   5.875  0.4261  0.7185 -0.1601
 1088TIP3    H124755   3.370   0.525   5.851 -0.7110  0.2513  1.1253
 1088TIP3    H224756   3.517   0.488   5.856 -0.1983  1.6377 -1.5602
 1089TIP3   OH224757   4.981   4.609   4.690 -0.1559 -0.1723  0.3427
 1089TIP3    H124758   4.897   4.567   4.672 -0.6862  0.5526  1.0548
 1089TIP3    H224759   4.984   4.618   4.785  0.0290  1.2100  0.2280
 1090TIP3   OH224760   0.707   5.740   0.173  0.1394  0.1685  0.6663
 1090TIP3    H124761   0.634   5.799   0.154 -1.0678 -1.2540  0.6901
 1090TIP3    H224762   0.753   5.781   0.246  0.5083  2.0325 -0.5384
 1091TIP3   OH224763   1.790   2.916  12.254 -0.0499 -0.6120 -0.2897
 1091TIP3    H124764   1.774   2.891  12.163 -0.5407 -1.2601 -0.0385
 1091TIP3    H224765   1.750   2.846  12.305  0.4686 -0.3999  0.4253
 1092TIP3   OH224766   5.154   0.679  15.649  0.6511  0.2920  0.2597
 1092TIP3    H124767   5.059   0.686  15.664  0.4519 -0.4456 -0.5673
 1092TIP3    H224768   5.187   0.635  15.727  0.1305 -0.5047  0.0485
 1093TIP3   OH224769   5.772   6.178  13.759 -0.3868 -0.1831  0.2480
 1093TIP3    H124770   5.801   6.102  13.810  1.4989  0.5882  0.4318
 1093TIP3    H224771   5.711   6.142  13.694  2.1135 -2.3019 -1.1402
 1094TIP3   OH224772   5.665   5.187  13.354 -0.5330 -0.0474  0.1613
 1094TIP3    H124773   5.627   5.154  13.435 -1.2614 -0.5778 -0.3779
 1094TIP3    H224774   5.732   5.250  13.382 -0.1679 -0.8622  1.1904
 1095TIP3   OH224775   2.533   6.163   0.207  0.2891 -0.3028 -0.0644
 1095TIP3    H124776   2.570   6.132   0.124  1.4115  0.2501  0.2079
 1095TIP3    H224777   2.439   6.147   0.198  0.1253  1.2970 -2.1574
 1096TIP3   OH224778   1.281   4.442   1.872 -0.6052  0.3856  0.4161
 1096TIP3    H124779   1.315   4.517   1.921 -0.9652  1.8302 -1.4557
 1096TIP3    H224780   1.270   4.474   1.783  0.4408 -2.2637 -0.7661
 1097TIP3   OH224781   0.408   3.088  16.729  0.2393 -0.4733 -0.3962
 1097TIP3    H124782   0.442   3.169  16.766  1.8824 -1.0389 -0.5669
 1097TIP3    H224783   0.398   3.107  16.635 -2.6364  0.5375  0.0233
 1098TIP3   OH224784   3.455   4.342  11.848  0.8755 -0.5311  0.2197
 1098TIP3    H124785   3.373   4.352  11.895  0.9929  0.9352  0.1510
 1098TIP3    H224786   3.441   4.385  11.764  2.0043  0.6125  0.5828
 1099TIP3   OH224787   1.197   5.328   2.331  0.5963  0.1348  0.6881
 1099TIP3    H124788   1.217   5.249   2.381  0.7295  0.4249  1.0973
 1099TIP3    H224789   1.230   5.400   2.385 -1.8026  0.6666  1.5694
 1100TIP3   OH224790   5.111   5.923  17.324 -0.3519  0.2338 -0.1543
 1100TIP3    H124791   5.037   5.869  17.296 -0.2887  0.6977 -1.2511
 1100TIP3    H224792   5.178   5.859  17.349 -1.0251 -0.1910  0.6205
 1101TIP3   OH224793   4.146   2.789  11.921  0.4067  0.2247  0.3033
 1101TIP3    H124794   4.160   2.749  11.835 -3.3801 -1.6940  0.3321
 1101TIP3    H224795   4.174   2.722  11.983 -0.4363 -0.0121  0.4467
 1102TIP3   OH224796   0.606   6.147  13.919  0.2569  0.1528  0.3475
 1102TIP3    H124797   0.591   6.236  13.952 -0.5035 -0.1277  0.7896
 1102TIP3    H224798   0.610   6.157  13.824 -0.6410  0.5634  0.3396
 1103TIP3   OH224799   0.671   4.721  17.224 -0.0053 -0.1493 -0.7258
 1103TIP3    H124800   0.640   4.633  17.245  0.6750 -0.2812 -0.2107
 1103TIP3    H224801   0.686   4.720  17.130 -0.8401 -0.3084 -0.8589
 1104TIP3   OH224802   0.973   0.942   2.702  0.2303 -0.0371 -0.3204
 1104TIP3    H124803   1.024   0.861   2.698  0.4870  0.0545  0.8184
 1104TIP3    H224804   0.929   0.939   2.787 -1.1767  0.1934 -1.0075
 1105TIP3   OH224805   0.422   1.791  13.018 -0.7934  0.3701 -0.3619
 1105TIP3    H124806   0.488   1.721  13.018 -0.5326  0.6107 -1.1362
 1105TIP3    H224807   0.439   1.839  13.099 -2.1751 -1.5518  1.1821
 1106TIP3   OH224808   5.746   0.655   5.718  0.5341  0.1791 -0.2179
 1106TIP3    H124809   5.684   0.610   5.776  0.8597 -2.1831 -1.5724
 1106TIP3    H224810   5.832   0.619   5.743  0.9557  0.9139 -0.5946
 1107TIP3   OH224811   6.778   6.641  12.914 -0.4326 -0.5616 -0.5136
 1107TIP3    H124812   6.737   6.704  12.973  2.6343  0.2374  1.0109
 1107TIP3    H224813   6.847   6.600  12.967  0.9254 -1.5834 -2.8726
 1108TIP3   OH224814   0.459   2.947  12.004  0.0325 -0.0293 -0.1996
 1108TIP3    H124815   0.364   2.952  11.988 -0.4518 -0.0267  2.2668
 1108TIP3    H224816   0.477   2.854  12.011 -0.0408 -0.0010  0.4772
 1109TIP3   OH224817   3.713   1.050  16.624  0.1347  0.6769 -0.2117
 1109TIP3    H124818   3.631   1.036  16.672 -0.2183 -0.9049 -1.1980
 1109TIP3    H224819   3.777   1.074  16.692 -1.2434  2.6391  0.5080
 1110TIP3   OH224820   1.612   4.539   2.681 -0.2577 -0.4000 -0.3102
 1110TIP3    H124821   1.625   4.501   2.768 -2.7087 -1.5689 -0.3731
 1110TIP3    H224822   1.658   4.479   2.622  2.3318  0.9654  0.1576
 1111TIP3   OH224823   3.670   3.368   2.933  0.0942  0.4372  0.3882
 1111TIP3    H124824   3.585   3.394   2.967  0.8801  0.2659  2.6162
 1111TIP3    H224825   3.657   3.278   2.902 -0.8391  0.8955 -0.6521
 1112TIP3   OH224826   3.428   2.354   1.809 -0.2467 -0.3699 -0.0163
 1112TIP3    H124827   3.453   2.334   1.899  0.7557  0.3198 -0.1260
 1112TIP3    H224828   3.497   2.412   1.777 -1.3839  0.6272 -0.7328
 1113TIP3   OH224829   2.573   2.740  14.895 -0.2725 -0.1714 -0.2446
 1113TIP3    H124830   2.492   2.709  14.936 -0.2608  0.8872  0.6424
 1113TIP3    H224831   2.614   2.795  14.963  0.9730 -0.3448 -0.8336
 1114TIP3   OH224832   2.430   4.897   4.837 -0.3272  0.6578  0.2445
 1114TIP3    H124833   2.490   4.828   4.865 -0.5111  0.4640  0.1620
 1114TIP3    H224834   2.370   4.854   4.777 -0.0925  1.0170 -0.2546
 1115TIP3   OH224835   4.679   0.973  12.598  0.2349  0.0397 -0.4250
 1115TIP3    H124836   4.619   1.029  12.548  1.4788  1.2085 -0.6857
 1115TIP3    H224837   4.718   0.916  12.532  2.2622  1.9311 -0.9828
 1116TIP3   OH224838   1.584   3.238  13.760  0.4255 -0.0005 -0.1807
 1116TIP3    H124839   1.624   3.155  13.786 -1.1543 -0.6006  0.4324
 1116TIP3    H224840   1.543   3.270  13.840  0.1546  0.8718 -0.6625
 1117TIP3   OH224841   0.658   4.744  14.985  0.0477  0.1546 -0.4780
 1117TIP3    H124842   0.570   4.782  14.981 -1.8450 -3.5890  0.7840
 1117TIP3    H224843   0.679   4.745  15.079 -0.1352 -1.7924 -0.3746
 1118TIP3   OH224844   5.208   1.308   0.195 -0.6128 -0.2720 -0.0506
 1118TIP3    H124845   5.197   1.239   0.261  1.1287 -1.4931 -0.9383
 1118TIP3    H224846   5.267   1.269   0.131  2.1395  2.7063  0.4219
 1119TIP3   OH224847   6.723   1.495   2.119  0.1205 -0.4069 -0.0845
 1119TIP3    H124848   6.674   1.417   2.092  0.3549 -1.3541  2.0571
 1119TIP3    H224849   6.692   1.515   2.207  0.0670  1.9643 -0.5655
 1120TIP3   OH224850   2.748   1.515   5.950  0.0316 -0.3021 -0.5984
 1120TIP3    H124851   2.715   1.461   6.022  1.3744  0.0124  0.3110
 1120TIP3    H224852   2.678   1.516   5.886 -1.0977 -0.8533  0.5761
 1121TIP3   OH224853   1.405   4.272  13.377 -0.2473 -0.2102 -0.6806
 1121TIP3    H124854   1.338   4.325  13.420 -0.4141 -0.8433 -0.1519
 1121TIP3    H224855   1.472   4.336  13.350 -1.4495  0.5500 -2.0080
 1122TIP3   OH224856   5.996   2.537  11.999  0.2092  0.4779 -0.0577
 1122TIP3    H124857   5.961   2.623  11.977 -0.1460  0.8602  1.7983
 1122TIP3    H224858   6.090   2.545  11.988  0.1375  0.9780 -0.3158
 1123TIP3   OH224859   2.940   1.657  16.272 -0.3563 -0.7965  0.3416
 1123TIP3    H124860   2.994   1.734  16.285 -1.5960  0.2763 -0.5762
 1123TIP3    H224861   2.990   1.585  16.310  0.7529  0.4802  1.3565
 1124TIP3   OH224862   4.265   2.271   3.196 -0.8142 -0.2715  0.0734
 1124TIP3    H124863   4.234   2.184   3.170 -0.3892  0.0374 -1.5347
 1124TIP3    H224864   4.209   2.332   3.149 -1.2003  0.3501  1.2985
 1125TIP3   OH224865   2.364   5.229   5.914 -0.3795  0.9946 -0.4701
 1125TIP3    H124866   2.448   5.186   5.927 -1.1638 -0.2182  0.9210
 1125TIP3    H224867   2.383   5.301   5.854  1.3261 -0.1817 -1.4322
 1126TIP3   OH224868   1.525   3.607   0.962  0.0871  0.0536  0.2574
 1126TIP3    H124869   1.454   3.567   1.012  0.7455 -1.0034  0.3702
 1126TIP3    H224870   1.573   3.659   1.026  0.0746 -0.1343  0.4221
 1127TIP3   OH224871   3.593   6.704  16.190 -0.0746  0.0907  0.7212
 1127TIP3    H124872   3.540   6.626  16.203 -0.1269  0.3620  2.4504
 1127TIP3    H224873   3.531   6.770  16.159  0.2764 -0.9280 -2.4501
 1128TIP3   OH224874   6.039   2.220  14.996  0.7937  0.8453 -0.1909
 1128TIP3    H124875   5.990   2.177  15.065  1.1742  0.6019 -0.0711
 1128TIP3    H224876   6.062   2.305  15.032  1.6993  0.4076  0.3003
 1129TIP3   OH224877   0.142   2.555   4.564  0.1870 -0.0207  0.0284
 1129TIP3    H124878   0.056   2.516   4.553 -0.3274  1.0223  0.2456
 1129TIP3    H224879   0.129   2.625   4.628  1.1651  0.2373 -0.0353
 1130TIP3   OH224880   1.789   2.912   5.781  0.2288 -0.9010 -0.5454
 1130TIP3    H124881   1.753   3.000   5.775 -0.0860 -0.9587  0.3146
 1130TIP3    H224882   1.865   2.913   5.722  0.2344 -0.0535 -0.5390
 1131TIP3   OH224883   1.494   4.593  12.471  0.0461 -0.0297  0.6723
 1131TIP3    H124884   1.551   4.600  12.548  1.3104  0.4720 -0.2758
 1131TIP3    H224885   1.551   4.613  12.397 -1.0817 -0.7464 -0.4317
 1132TIP3   OH224886   0.543   4.520  11.542  0.9248 -0.4842  0.1040
 1132TIP3    H124887   0.500   4.435  11.542 -0.8978  0.3744  0.7633
 1132TIP3    H224888   0.602   4.517  11.467 -1.2511 -1.3174 -1.7116
 1133TIP3   OH224889   4.576   0.122  11.654 -0.2586  0.1598  0.2399
 1133TIP3    H124890   4.625   0.055  11.702  0.2330  0.1738 -0.2400
 1133TIP3    H224891   4.519   0.072  11.595  0.3416  0.1694 -0.3480
 1134TIP3   OH224892   1.843   1.056  11.007 -0.2375 -0.1021 -1.0415
 1134TIP3    H124893   1.752   1.083  11.024  0.4225  1.1269  0.9723
 1134TIP3    H224894   1.871   1.110  10.934 -0.7264  0.5272 -0.7750
 1135TIP3   OH224895   4.568   0.760   2.220 -0.4495 -0.1580 -0.3253
 1135TIP3    H124896   4.647   0.712   2.197 -0.7539 -1.4844  1.2044
 1135TIP3    H224897   4.509   0.748   2.145  0.4358  0.0735 -1.0707
 1136TIP3   OH224898   3.151   1.662  15.127  0.0221 -0.3052  0.5490
 1136TIP3    H124899   3.062   1.628  15.113 -0.2191  0.3235  0.4932
 1136TIP3    H224900   3.192   1.599  15.185 -0.6638 -0.2989  1.0514
 1137TIP3   OH224901   4.573   4.368   4.929  0.4269  0.1020 -0.5665
 1137TIP3    H124902   4.481   4.388   4.911  0.3701  0.3899  0.0302
 1137TIP3    H224903   4.584   4.277   4.900 -0.5376 -0.5930  1.1132
 1138TIP3   OH224904   3.721   0.264  13.388  0.2461  0.3283  0.0829
 1138TIP3    H124905   3.750   0.296  13.303 -0.8649 -0.5187 -0.6462
 1138TIP3    H224906   3.719   0.169  13.379 -0.7350  0.2633  0.7556
 1139TIP3   OH224907   0.312   1.886   5.689 -0.3481  0.5097 -0.3176
 1139TIP3    H124908   0.397   1.850   5.665 -0.2653  1.0932 -0.9356
 1139TIP3    H224909   0.273   1.914   5.606 -0.9322  0.6981  0.0108
 1140TIP3   OH224910   0.282   3.160  12.921  0.3820 -0.2331  0.3565
 1140TIP3    H124911   0.259   3.115  13.002  0.5443 -0.8264  0.0832
 1140TIP3    H224912   0.292   3.252  12.946  0.8418 -0.4706  1.0926
 1141TIP3   OH224913   2.434   4.858   4.142  0.0657 -0.3435  0.6426
 1141TIP3    H124914   2.380   4.782   4.117  0.2065 -0.6978  1.4044
 1141TIP3    H224915   2.441   4.909   4.061  0.1306 -1.2384  0.0595
 1142TIP3   OH224916   1.710   2.020   2.690  0.0077  0.2816 -0.0493
 1142TIP3    H124917   1.643   1.968   2.733 -0.5198 -0.3997 -1.6221
 1142TIP3    H224918   1.745   2.077   2.759 -1.8830  0.3636  0.9004
 1143TIP3   OH224919   0.324   2.652  15.287 -0.0110 -0.1048  0.2165
 1143TIP3    H124920   0.414   2.633  15.315 -0.2606 -0.1513  0.9842
 1143TIP3    H224921   0.283   2.567  15.281  0.2642 -0.1681 -1.0963
 1144TIP3   OH224922   5.292   2.236   3.635 -0.3346 -0.3291 -0.6870
 1144TIP3    H124923   5.338   2.307   3.590 -0.9594 -0.9516 -2.3926
 1144TIP3    H224924   5.360   2.191   3.685  0.8295 -0.8391 -2.6214
 1145TIP3   OH224925   5.650   5.180  13.970 -0.3585  0.4328  0.4300
 1145TIP3    H124926   5.668   5.127  13.892  0.5340 -3.0843  2.7625
 1145TIP3    H224927   5.720   5.245  13.972  1.5805 -1.5054 -0.1032
 1146TIP3   OH224928   0.224   0.984  11.104  0.0045  0.1780  0.2010
 1146TIP3    H124929   0.262   0.914  11.158  0.9369 -0.1408 -0.8379
 1146TIP3    H224930   0.183   0.938  11.031  1.9427  0.7206 -1.3150
 1147TIP3   OH224931   0.015   5.477   0.076 -0.3344 -0.6785  0.2584
 1147TIP3    H124932  -0.028   5.538   0.136 -0.2396  0.1553 -0.4984
 1147TIP3    H224933   0.108   5.493   0.087 -0.1888 -2.1348  1.5294
 1148TIP3   OH224934   5.553   2.867  17.279  0.3070  0.0408  0.4714
 1148TIP3    H124935   5.578   2.945  17.329 -0.3481  0.5662  0.0001
 1148TIP3    H224936   5.475   2.834  17.324 -1.1530  1.3326 -0.9567
 1149TIP3   OH224937   3.514   0.272  10.486 -0.5210 -0.7382 -0.4326
 1149TIP3    H124938   3.597   0.314  10.463  0.9095 -3.0038  0.2655
 1149TIP3    H224939   3.533   0.223  10.566 -3.3574  0.9478  1.4290
 1150TIP3   OH224940   5.458   4.422   2.720  0.8296  0.0935  0.3543
 1150TIP3    H124941   5.465   4.441   2.627  0.4770  0.5059  0.4115
 1150TIP3    H224942   5.484   4.330   2.727 -2.0018 -0.8861 -0.5820
 1151TIP3   OH224943   2.342   3.435  16.848  0.3218  0.4847 -0.0525
 1151TIP3    H124944   2.364   3.342  16.854 -0.3041  0.3225 -0.2318
 1151TIP3    H224945   2.316   3.447  16.756 -1.6808  0.3661  0.4564
 1152TIP3   OH224946   0.121   6.581  10.925 -0.4366  0.0821 -0.5353
 1152TIP3    H124947   0.191   6.628  10.878 -0.5040  0.7026 -0.0231
 1152TIP3    H224948   0.099   6.508  10.867  0.6678 -0.1475 -0.6848
 1153TIP3   OH224949   1.760   1.892   0.564  0.0381 -0.0481  0.2197
 1153TIP3    H124950   1.776   1.825   0.498  0.6421 -0.0489  0.3689
 1153TIP3    H224951   1.824   1.960   0.545 -0.0564  0.1355  0.5575
 1154TIP3   OH224952   5.012   6.227   1.863  0.3910 -0.4178 -0.4889
 1154TIP3    H124953   5.042   6.298   1.805  0.9027 -1.4612 -1.5424
 1154TIP3    H224954   5.086   6.210   1.921  0.6132 -0.7209 -0.8594
 1155TIP3   OH224955   1.971   1.170   1.801  0.4301 -0.9981  0.0125
 1155TIP3    H124956   2.001   1.251   1.842  0.5398 -1.1512  0.2369
 1155TIP3    H224957   1.888   1.193   1.760 -0.0413 -1.0239  0.9352
 1156TIP3   OH224958   4.656   3.928   4.131 -0.6896 -0.1472 -0.2844
 1156TIP3    H124959   4.751   3.930   4.118 -0.6113 -1.4761 -0.0791
 1156TIP3    H224960   4.621   3.896   4.048 -0.7002 -2.3320  0.4844
 1157TIP3   OH224961   4.870   5.067   3.413  0.1758 -0.1425 -0.0560
 1157TIP3    H124962   4.920   5.140   3.449 -0.7101  1.1396 -1.3367
 1157TIP3    H224963   4.926   5.031   3.345 -0.2564  0.7462 -0.9015
 1158TIP3   OH224964   2.738   5.637   2.408  0.0718  0.1435 -0.1627
 1158TIP3    H124965   2.828   5.606   2.398 -0.5036 -1.7680  0.0767
 1158TIP3    H224966   2.727   5.648   2.502 -0.6934 -2.3077  0.1119
 1159TIP3   OH224967   1.286   6.371  16.495  0.1647  0.0585 -0.9933
 1159TIP3    H124968   1.214   6.336  16.547 -0.2824 -2.2383 -2.9937
 1159TIP3    H224969   1.365   6.334  16.535 -0.1952 -1.9623 -2.0661
 1160TIP3   OH224970   0.071   1.036  15.364 -0.1199  0.4406 -0.0737
 1160TIP3    H124971   0.128   1.083  15.425  1.8834 -0.7778 -0.9039
 1160TIP3    H224972  -0.016   1.070  15.382  0.8232  2.3083  1.3645
 1161TIP3   OH224973   1.776   4.849   4.634 -0.2216 -0.6527  0.0408
 1161TIP3    H124974   1.839   4.803   4.579 -0.7198 -0.9377 -0.2929
 1161TIP3    H224975   1.709   4.880   4.574  0.2714  0.8171  0.2116
 1162TIP3   OH224976   4.477   4.095  14.726  0.5417 -0.4678  0.2643
 1162TIP3    H124977   4.527   4.145  14.661  0.8468 -1.1929 -0.0744
 1162TIP3    H224978   4.387   4.126  14.716  0.4530 -1.1041 -1.0416
 1163TIP3   OH224979   4.729   2.738   2.938  0.7025 -0.4052  0.5951
 1163TIP3    H124980   4.728   2.815   2.995  1.0600  0.2364 -0.2336
 1163TIP3    H224981   4.790   2.678   2.980  2.0491  0.6271  0.2123
 1164TIP3   OH224982   4.778   4.461  13.528  0.1720 -0.0764 -0.4581
 1164TIP3    H124983   4.759   4.552  13.550  0.0590  0.0104 -0.9038
 1164TIP3    H224984   4.725   4.410  13.589 -1.6090  0.1560 -1.7477
 1165TIP3   OH224985   0.829   6.690   5.442 -0.0254  0.3425  0.5107
 1165TIP3    H124986   0.871   6.604   5.448  1.5709  1.0482 -0.1228
 1165TIP3    H224987   0.773   6.683   5.364  1.4261  0.4029 -0.5694
 1166TIP3   OH224988   2.191   6.411   4.874 -0.0473  0.2674 -0.1670
 1166TIP3    H124989   2.284   6.398   4.893 -0.0781 -0.2439 -0.3323
 1166TIP3    H224990   2.174   6.502   4.896  0.6184  0.5144 -0.6414
 1167TIP3   OH224991   5.528   6.302   5.757 -0.0348  0.0859 -0.5033
 1167TIP3    H124992   5.512   6.349   5.675  0.1052  1.6279  0.3305
 1167TIP3    H224993   5.599   6.350   5.799  0.0015 -0.7831  0.4614
 1168TIP3   OH224994   2.786   5.255   5.564 -0.1295 -0.2749 -0.1173
 1168TIP3    H124995   2.758   5.277   5.653  1.0421  0.2497  0.1319
 1168TIP3    H224996   2.719   5.194   5.532 -1.1788  0.4176  0.7039
 1169TIP3   OH224997   0.556   5.293   1.936  0.0138  0.1126 -0.1628
 1169TIP3    H124998   0.517   5.354   1.874 -0.6866  1.5507  1.5953
 1169TIP3    H224999   0.509   5.309   2.018  0.2879 -2.3262  0.5548
 1170TIP3   OH225000   1.948   1.842   2.242 -0.3340  0.0272  0.2439
 1170TIP3    H125001   1.968   1.935   2.251  0.8108 -0.1414 -0.3816
 1170TIP3    H225002   1.971   1.805   2.327  1.4909 -0.0437 -0.2375
 1171TIP3   OH225003   6.724   2.153  14.553 -0.4594 -0.0380 -0.1862
 1171TIP3    H125004   6.772   2.097  14.614  1.0532  0.6202 -0.7016
 1171TIP3    H225005   6.642   2.107  14.536 -1.1810  0.0293  2.7360
 1172TIP3   OH225006   5.788   0.617  15.053 -0.1164 -0.2403 -0.0125
 1172TIP3    H125007   5.728   0.640  14.982 -0.3625  0.0314  0.2777
 1172TIP3    H225008   5.829   0.700  15.077  0.6479 -0.4828 -0.4496
 1173TIP3   OH225009   6.692   0.321  13.489 -0.3246  0.1355 -0.3873
 1173TIP3    H125010   6.646   0.267  13.552  0.3173 -1.6424 -1.3804
 1173TIP3    H225011   6.752   0.374  13.542 -1.4499  0.4244  0.6533
 1174TIP3   OH225012   5.462   2.558  15.801 -0.1445  0.2708  0.0938
 1174TIP3    H125013   5.380   2.592  15.767 -0.6553 -0.5579  0.4755
 1174TIP3    H225014   5.503   2.633  15.844 -0.8039  0.6314  0.1009
 1175TIP3   OH225015   4.699   1.838   2.329 -0.6555  0.5430 -0.4434
 1175TIP3    H125016   4.671   1.768   2.271  0.5233  0.1285 -0.5304
 1175TIP3    H225017   4.628   1.846   2.393 -1.4560  0.2650 -1.2816
 1176TIP3   OH225018   5.068   4.708   1.025  0.4952 -0.7862  0.2998
 1176TIP3    H125019   5.038   4.667   0.944 -0.8620 -0.4537  0.6133
 1176TIP3    H225020   5.100   4.635   1.079 -0.2932 -1.2294  0.1779
 1177TIP3   OH225021   0.758   4.756   2.709 -0.1094 -0.6402  0.0779
 1177TIP3    H125022   0.692   4.825   2.698  1.5497  0.8189 -1.3229
 1177TIP3    H225023   0.741   4.694   2.638  0.3287  0.0403 -0.6448
 1178TIP3   OH225024   1.141   1.042   4.912 -0.3123  0.1428  0.2623
 1178TIP3    H125025   1.112   1.130   4.887 -0.0678  0.5529  1.3409
 1178TIP3    H225026   1.119   1.035   5.005  0.0407 -0.7892  0.2915
 1179TIP3   OH225027   3.406   2.146   0.349  0.4160 -0.5753 -0.0737
 1179TIP3    H125028   3.462   2.204   0.297  2.2927  0.2241  2.5993
 1179TIP3    H225029   3.319   2.185   0.344  1.0690  0.8859 -0.6067
 1180TIP3   OH225030   0.150   1.037  16.200  0.3602 -0.4005  0.4595
 1180TIP3    H125031   0.172   1.087  16.278  0.7954  0.8145 -0.4186
 1180TIP3    H225032   0.235   1.013  16.162  0.2048  0.7642 -0.7071
 1181TIP3   OH225033   5.180   3.738  16.711 -0.4700  0.4951 -0.1704
 1181TIP3    H125034   5.094   3.770  16.684  0.2272  0.7886 -2.1891
 1181TIP3    H225035   5.236   3.749  16.634  0.5635 -2.8054 -0.0770
 1182TIP3   OH225036   5.092   1.017  16.635 -0.4648  0.8407 -0.2049
 1182TIP3    H125037   5.039   1.096  16.645 -0.9782  0.5728 -0.6890
 1182TIP3    H225038   5.150   1.016  16.711 -0.3156  1.7812 -0.3043
 1183TIP3   OH225039   4.820   4.696   1.386 -0.0433  0.1484  0.7063
 1183TIP3    H125040   4.779   4.782   1.379 -0.1636  0.0283 -0.1638
 1183TIP3    H225041   4.913   4.712   1.370 -0.0069  0.1619  0.9173
 1184TIP3   OH225042   2.835   0.577   2.369  0.0006  0.1997  0.1827
 1184TIP3    H125043   2.836   0.661   2.322 -0.6557  1.5161  2.3745
 1184TIP3    H225044   2.746   0.543   2.355 -0.3285  0.7936  0.7993
 1185TIP3   OH225045   0.101   5.170  15.070 -0.6145 -0.4784  0.8297
 1185TIP3    H125046   0.101   5.080  15.039  1.7339  0.3843 -2.0968
 1185TIP3    H225047   0.101   5.223  14.991 -1.3155  2.1429  2.4428
 1186TIP3   OH225048   3.083   0.545  12.638  0.6731  0.4185 -0.5454
 1186TIP3    H125049   3.179   0.540  12.639  0.7514  1.5326 -0.8605
 1186TIP3    H225050   3.064   0.637  12.656 -0.4049 -0.1909  1.7998
 1187TIP3   OH225051   4.341   6.504  13.058  0.5352  0.0243 -0.0469
 1187TIP3    H125052   4.278   6.526  12.990  1.0197  0.7735 -0.2631
 1187TIP3    H225053   4.288   6.498  13.138  0.3493  2.0450  0.0463
 1188TIP3   OH225054   0.388   3.618  15.507  0.3928 -0.0489 -0.0838
 1188TIP3    H125055   0.430   3.646  15.589 -0.1532 -0.0411  0.1995
 1188TIP3    H225056   0.393   3.694  15.450  1.1110 -0.1709 -0.1965
 1189TIP3   OH225057   3.292   2.274   3.156  0.3582 -0.2302 -0.1067
 1189TIP3    H125058   3.375   2.256   3.114  1.4283  2.1135  0.7965
 1189TIP3    H225059   3.314   2.283   3.249 -0.9777 -0.0323  0.2112
 1190TIP3   OH225060   2.978   1.216  13.641  0.2226 -0.2276 -0.0774
 1190TIP3    H125061   2.960   1.234  13.733  1.5301 -1.1930  0.4043
 1190TIP3    H225062   2.923   1.277  13.593 -1.6228 -0.7222  1.3046
 1191TIP3   OH225063   4.538   5.305  12.426 -0.1450  0.1351 -0.2894
 1191TIP3    H125064   4.549   5.307  12.331 -0.9059 -1.4672 -0.4339
 1191TIP3    H225065   4.580   5.224  12.454  0.4896  0.8207  0.8175
 1192TIP3   OH225066   4.036   3.269   1.817 -0.3784 -0.1564  0.0459
 1192TIP3    H125067   4.048   3.221   1.899  0.6681 -1.2004 -0.6854
 1192TIP3    H225068   4.078   3.354   1.833  0.0944 -0.4668  0.5036
 1193TIP3   OH225069   3.457   5.142  11.165 -0.9546 -0.0113 -0.0601
 1193TIP3    H125070   3.534   5.097  11.199 -0.7271 -3.0962 -3.9229
 1193TIP3    H225071   3.383   5.087  11.193 -1.1275 -0.3598 -1.1593
 1194TIP3   OH225072   1.961   6.067   4.823  0.0300 -0.2034 -0.1168
 1194TIP3    H125073   1.941   5.977   4.850 -1.6745  0.4783  1.0066
 1194TIP3    H225074   1.930   6.072   4.732 -2.4369 -0.0270  0.6636
 1195TIP3   OH225075   0.765   0.776  14.999 -0.6025 -0.3208  0.1221
 1195TIP3    H125076   0.694   0.804  15.057 -0.3636  0.0713  0.2359
 1195TIP3    H225077   0.722   0.732  14.926 -1.1030  1.3471 -0.6493
 1196TIP3   OH225078   2.021   1.541  14.578 -0.2479  0.5169  0.0746
 1196TIP3    H125079   2.111   1.556  14.607 -0.8626  2.4030  1.1704
 1196TIP3    H225080   1.997   1.456  14.616  1.0888 -0.0889 -0.3726
 1197TIP3   OH225081   3.097   5.007  13.157 -0.0064 -0.1730  0.3489
 1197TIP3    H125082   3.165   4.991  13.223  1.5889  1.4535 -0.7898
 1197TIP3    H225083   3.138   4.978  13.075 -0.8521  0.4588 -0.3029
 1198TIP3   OH225084   6.264   0.062  11.050 -0.3803 -0.6021 -0.4878
 1198TIP3    H125085   6.353   0.095  11.067 -0.4438 -0.6719 -0.0136
 1198TIP3    H225086   6.221   0.133  11.002 -0.3064 -0.2574 -0.0467
 1199TIP3   OH225087   0.236   1.520   4.031 -0.2603  0.2817  0.0109
 1199TIP3    H125088   0.253   1.496   3.940  1.3417 -0.5977  0.4852
 1199TIP3    H225089   0.152   1.479   4.051 -0.5013  0.2561 -0.9942
 1200TIP3   OH225090   2.542   1.026  16.198 -0.0138 -0.2210 -0.2160
 1200TIP3    H125091   2.577   1.114  16.188 -0.5794  0.2602  1.6242
 1200TIP3    H225092   2.520   0.998  16.109 -1.6600  2.2695 -0.6996
 1201TIP3   OH225093   4.509   4.307   0.083 -0.6142 -0.4002  0.1571
 1201TIP3    H125094   4.419   4.325   0.057  0.0595  1.0239 -1.3048
 1201TIP3    H225095   4.535   4.232   0.030 -0.1718  0.7257 -1.2663
 1202TIP3   OH225096   3.841   2.729   2.364  0.3908 -0.5472  0.5044
 1202TIP3    H125097   3.882   2.656   2.318 -0.7112 -1.0330  0.2586
 1202TIP3    H225098   3.767   2.753   2.309  0.8018  0.8596  0.5169
 1203TIP3   OH225099   0.618   3.942  16.796  0.4630  0.3878 -0.1627
 1203TIP3    H125100   0.574   4.019  16.762 -3.2977 -1.9116 -1.0841
 1203TIP3    H225101   0.650   3.896  16.719  0.7152 -0.0822  0.2129
 1204TIP3   OH225102   5.187   2.864   5.134  0.9555  0.4811  0.1160
 1204TIP3    H125103   5.176   2.926   5.206  0.6704 -0.6955  1.1207
 1204TIP3    H225104   5.275   2.829   5.146  0.7983  0.0686  0.0747
 1205TIP3   OH225105   0.713   3.496   1.647  0.0571  0.3611  0.3823
 1205TIP3    H125106   0.801   3.467   1.668  0.3382  0.4431 -0.6284
 1205TIP3    H225107   0.676   3.525   1.731  0.5413 -0.8330  1.0268
 1206TIP3   OH225108   5.771   0.470   5.140  0.0305  0.4850 -0.1964
 1206TIP3    H125109   5.854   0.482   5.094  0.3239  2.2185  0.6921
 1206TIP3    H225110   5.792   0.483   5.232 -0.8508 -1.2837  0.3009
 1207TIP3   OH225111   2.669   5.730  16.491 -0.1424  0.2725 -0.0145
 1207TIP3    H125112   2.642   5.726  16.583 -0.5703  1.4321 -0.0748
 1207TIP3    H225113   2.748   5.785  16.492 -0.3434  0.5657 -0.3847
 1208TIP3   OH225114   1.407   0.222  14.174  0.4100  0.0433  0.3816
 1208TIP3    H125115   1.490   0.209  14.130  1.1793  2.9708  0.7232
 1208TIP3    H225116   1.371   0.301  14.133 -1.6481 -0.4914  1.0519
 1209TIP3   OH225117   2.557   2.514  11.545  0.1128 -0.8048  0.1022
 1209TIP3    H125118   2.552   2.488  11.637 -1.5016 -0.1395  0.2332
 1209TIP3    H225119   2.470   2.546  11.524  0.8886  0.5759 -1.2143
 1210TIP3   OH225120   0.826   4.432   4.278 -0.0543 -0.7255 -0.0556
 1210TIP3    H125121   0.763   4.503   4.267 -0.5312 -0.8894  1.4330
 1210TIP3    H225122   0.772   4.353   4.289  0.3915 -0.8570  1.2949
 1211TIP3   OH225123   0.028   1.941  17.141 -0.3348 -0.7741  0.1916
 1211TIP3    H125124   0.079   1.867  17.108 -0.3448 -0.4420 -0.5924
 1211TIP3    H225125  -0.042   1.901  17.193 -0.9479 -1.3615 -1.0576
 1212TIP3   OH225126   4.840   3.246   1.476 -0.3697  0.2869 -0.0546
 1212TIP3    H125127   4.914   3.193   1.447 -0.0271 -0.5435  2.1708
 1212TIP3    H225128   4.834   3.316   1.411  0.1634 -1.5462 -2.2018
 1213TIP3   OH225129   0.366   2.387   0.482 -0.7683  0.3951 -0.0206
 1213TIP3    H125130   0.350   2.331   0.406  0.7667  0.5557 -0.5044
 1213TIP3    H225131   0.355   2.476   0.449  1.5347  0.5411 -0.5427
 1214TIP3   OH225132   0.368   0.445   5.703  0.0930  0.2950 -0.0384
 1214TIP3    H125133   0.369   0.528   5.750  0.2566  0.5572 -0.4969
 1214TIP3    H225134   0.286   0.446   5.654  0.2747  0.3525 -0.3401
 1215TIP3   OH225135   4.490   2.256   2.952  0.2304 -0.0821  0.2252
 1215TIP3    H125136   4.527   2.276   3.037 -1.0652  0.1104  0.7719
 1215TIP3    H225137   4.565   2.244   2.894  1.1163 -0.1639  1.3807
 1216TIP3   OH225138   6.526   4.744  12.024 -0.4800 -0.2937  0.4096
 1216TIP3    H125139   6.545   4.679  11.956  0.8749  0.5122 -0.0264
 1216TIP3    H225140   6.612   4.767  12.060 -1.1362 -0.4684  2.2059
 1217TIP3   OH225141   1.471   1.607   3.470 -0.4071 -0.6310  0.5311
 1217TIP3    H125142   1.507   1.521   3.492  0.1378 -0.4586  0.3420
 1217TIP3    H225143   1.431   1.595   3.383 -0.1491 -0.6466  0.4126
 1218TIP3   OH225144   6.193   0.125   2.335  0.6421  0.3524 -0.4767
 1218TIP3    H125145   6.274   0.081   2.362 -0.1958 -0.2940  1.1585
 1218TIP3    H225146   6.132   0.053   2.318 -0.3966  0.8122  1.0613
 1219TIP3   OH225147   0.516   3.311   1.603 -0.1184  0.5636  0.4868
 1219TIP3    H125148   0.594   3.366   1.614  0.7800 -0.4859 -0.3460
 1219TIP3    H225149   0.500   3.312   1.509 -0.0893 -0.5789  0.4649
 1220TIP3   OH225150   4.781   3.070   3.889 -0.0413  0.2314 -0.1387
 1220TIP3    H125151   4.746   2.990   3.849  0.5322  0.0666 -0.3222
 1220TIP3    H225152   4.860   3.041   3.934  0.2487  0.7197 -0.3327
 1221TIP3   OH225153   3.430   2.902  11.869  0.2434 -0.6140 -0.6974
 1221TIP3    H125154   3.352   2.955  11.883 -0.6449 -1.5143 -2.0117
 1221TIP3    H225155   3.434   2.846  11.947  0.9277  0.9902  0.4750
 1222TIP3   OH225156   6.781   4.275  12.765  0.0584  0.1413  0.0028
 1222TIP3    H125157   6.786   4.237  12.677  0.0947  2.1440 -0.9050
 1222TIP3    H225158   6.687   4.284  12.782  0.0428  1.4561 -0.6444
 1223TIP3   OH225159   1.023   2.191   2.879 -0.4578 -0.2358  0.6401
 1223TIP3    H125160   1.069   2.166   2.799  0.3898 -0.5388  1.2103
 1223TIP3    H225161   0.960   2.259   2.850  0.7101  0.5809 -0.0742
 1224TIP3   OH225162   5.154   5.293   1.875  1.3197  0.2446  0.1891
 1224TIP3    H125163   5.227   5.258   1.824  1.2184 -0.9905  0.8426
 1224TIP3    H225164   5.113   5.358   1.818  3.0933  1.1777 -0.0629
 1225TIP3   OH225165   5.368   0.474   1.808 -0.4175  0.0856 -0.0881
 1225TIP3    H125166   5.370   0.449   1.900 -0.5081 -0.5765 -0.2664
 1225TIP3    H225167   5.394   0.566   1.808 -2.5830  0.7839  0.8420
 1226TIP3   OH225168   4.415   0.775  10.491 -0.9736 -0.3430 -0.3198
 1226TIP3    H125169   4.335   0.782  10.542 -1.4249  0.9331 -1.1772
 1226TIP3    H225170   4.392   0.718  10.417 -0.9084 -0.4525 -0.2576
 1227TIP3   OH225171   1.884   1.579   3.430 -0.5569 -0.5752 -0.1808
 1227TIP3    H125172   1.924   1.614   3.350 -2.3170 -1.8970 -1.7204
 1227TIP3    H225173   1.821   1.646   3.456 -0.4333 -0.4285 -0.2548
 1228TIP3   OH225174   2.729   3.691   2.394 -0.3166  0.6118 -0.2174
 1228TIP3    H125175   2.745   3.750   2.321 -0.3183  0.8052 -0.0635
 1228TIP3    H225176   2.808   3.637   2.399 -0.7428 -0.1047 -1.0107
 1229TIP3   OH225177   4.706   4.505   1.545  0.0069  0.8354  0.2067
 1229TIP3    H125178   4.738   4.571   1.484  0.1997 -0.4913 -1.1826
 1229TIP3    H225179   4.782   4.486   1.601 -0.1545  2.0173  0.8518
 1230TIP3   OH225180   4.096   6.164   4.890 -0.2809 -0.0279  0.4735
 1230TIP3    H125181   4.187   6.139   4.908 -0.0976  0.4340  0.2058
 1230TIP3    H225182   4.044   6.096   4.932  0.1293  0.8951  2.5881
 1231TIP3   OH225183   5.204   4.524   5.873  0.7878 -0.1108 -0.2262
 1231TIP3    H125184   5.251   4.458   5.923  2.6472  1.0698 -0.2924
 1231TIP3    H225185   5.145   4.565   5.936  1.5350 -0.0982  0.4931
 1232TIP3   OH225186   1.256   1.073   4.393 -0.3777 -0.0921  0.2654
 1232TIP3    H125187   1.311   1.149   4.413  1.3952 -1.4472  0.6894
 1232TIP3    H225188   1.202   1.062   4.471  0.5674 -0.2798  0.9058
 1233TIP3   OH225189   1.923   0.853  15.702  0.0384  0.0063 -0.1250
 1233TIP3    H125190   1.906   0.841  15.795 -2.5319 -0.2509 -0.5513
 1233TIP3    H225191   1.884   0.938  15.681  2.2011  0.9293 -0.6544
 1234TIP3   OH225192   2.372   6.188  16.455 -0.2982 -0.1755  0.2887
 1234TIP3    H125193   2.355   6.159  16.544 -1.2667 -0.2045  0.1099
 1234TIP3    H225194   2.414   6.113  16.412 -0.6592 -0.4829  0.4700
 1235TIP3   OH225195   3.178   4.968   3.734 -0.5917  0.5554 -0.4285
 1235TIP3    H125196   3.150   4.886   3.775 -2.1311  0.7631 -1.0314
 1235TIP3    H225197   3.273   4.972   3.751 -0.8789 -0.2157  1.5628
 1236TIP3   OH225198   2.864   0.808   0.089 -0.6280 -0.0482  0.3068
 1236TIP3    H125199   2.903   0.808   0.176 -0.9941  0.0857  0.4704
 1236TIP3    H225200   2.931   0.850   0.033 -1.2267  1.7837  0.9008
 1237TIP3   OH225201   3.335   4.939  12.238  0.3717  0.6946 -0.2371
 1237TIP3    H125202   3.327   4.880  12.313  0.9479  1.0406  0.0961
 1237TIP3    H225203   3.401   4.898  12.182  0.1379  0.5786 -0.4358
 1238TIP3   OH225204   1.959   2.955  13.060 -1.0197  0.3654 -0.5822
 1238TIP3    H125205   1.900   2.947  13.135  1.3082 -0.4137  1.2870
 1238TIP3    H225206   2.012   3.033  13.079  1.5012 -1.4040  0.1026
 1239TIP3   OH225207   2.339   6.161   3.830 -0.0657  0.1308 -0.4128
 1239TIP3    H125208   2.396   6.163   3.753 -0.0602 -2.5772 -0.6025
 1239TIP3    H225209   2.256   6.196   3.800 -0.2098 -1.3122 -1.8485
 1240TIP3   OH225210   5.990   4.537   5.785 -0.2489  0.2380  0.1678
 1240TIP3    H125211   5.985   4.576   5.873 -0.1202 -3.1219  1.8281
 1240TIP3    H225212   5.911   4.483   5.779  1.4488 -2.3958 -0.2024
 1241TIP3   OH225213   0.306   5.195  16.623  0.6568  0.4018 -0.5313
 1241TIP3    H125214   0.372   5.264  16.630  2.1237 -0.9613 -0.4180
 1241TIP3    H225215   0.296   5.162  16.712 -0.8228  1.1203 -0.3972
 1242TIP3   OH225216   1.942   3.443  13.181  0.1627  0.3922 -0.3023
 1242TIP3    H125217   1.852   3.422  13.202  0.0627  0.7685 -0.3438
 1242TIP3    H225218   1.969   3.506  13.248 -0.6711  2.8605 -2.1305
 1243TIP3   OH225219   0.182   3.572  12.381  0.2240  0.0164 -0.3404
 1243TIP3    H125220   0.267   3.613  12.393  0.5116 -0.9348  1.1286
 1243TIP3    H225221   0.145   3.567  12.470 -0.2363 -1.9119 -0.5889
 1244TIP3   OH225222   0.111   2.361   3.644 -0.5439  0.1691  0.1660
 1244TIP3    H125223   0.181   2.296   3.656 -1.3592 -0.7180  0.3137
 1244TIP3    H225224   0.072   2.370   3.731 -0.6699  0.5804  0.0658
 1245TIP3   OH225225   4.744   3.912  16.552  1.0531 -0.5755  0.3004
 1245TIP3    H125226   4.692   3.834  16.535 -0.6270  0.6972 -0.7706
 1245TIP3    H225227   4.834   3.880  16.563  0.4504 -2.5976 -0.3379
 1246TIP3   OH225228   0.859   0.359   2.790  0.0539  0.0236  0.3872
 1246TIP3    H125229   0.943   0.323   2.762  0.3929  0.5813  0.6708
 1246TIP3    H225230   0.813   0.380   2.709  0.6153  0.6832  0.2293
 1247TIP3   OH225231   6.262   2.465   5.707  0.2689 -0.1677 -0.1586
 1247TIP3    H125232   6.269   2.381   5.751 -0.7710 -0.1849 -0.0013
 1247TIP3    H225233   6.229   2.525   5.774 -1.0485 -0.1259 -0.8138
 1248TIP3   OH225234   1.734   6.087   3.125  0.1695 -0.2490 -0.2194
 1248TIP3    H125235   1.797   6.039   3.179  0.1266  1.5400  1.5419
 1248TIP3    H225236   1.785   6.156   3.082 -0.4239  0.8350  0.7471
 1249TIP3   OH225237   2.512   5.476  14.982 -0.2953  0.9971 -0.0686
 1249TIP3    H125238   2.580   5.413  15.003 -1.2387  0.2930  0.9331
 1249TIP3    H225239   2.490   5.518  15.065 -0.9292  1.3767 -0.4130
 1250TIP3   OH225240   4.702   1.267   0.391  0.0763 -0.2364  0.3513
 1250TIP3    H125241   4.626   1.303   0.438  0.4448  0.6189  0.3051
 1250TIP3    H225242   4.753   1.344   0.365 -0.1589 -0.6707 -1.5402
 1251TIP3   OH225243   1.693   3.901  17.091 -0.4955  0.0324  0.2961
 1251TIP3    H125244   1.631   3.834  17.121  1.1164 -2.9638 -2.3927
 1251TIP3    H225245   1.680   3.906  16.997  0.8803  2.0689  0.1445
 1252TIP3   OH225246   1.856   5.790  12.785 -0.1156 -0.2951 -0.5494
 1252TIP3    H125247   1.948   5.798  12.761 -0.3103 -0.4132 -1.3779
 1252TIP3    H225248   1.809   5.826  12.710 -0.8730 -3.6132 -1.8175
 1253TIP3   OH225249   4.120   3.151  11.386  1.0146 -0.6867 -0.1906
 1253TIP3    H125250   4.214   3.131  11.387  0.4199 -4.5940  2.9363
 1253TIP3    H225251   4.110   3.223  11.447  1.9696  0.0951 -0.9273
 1254TIP3   OH225252   5.915   2.421   5.134  0.1317 -0.1149 -0.6879
 1254TIP3    H125253   5.998   2.380   5.158  0.1020 -0.6661 -1.5100
 1254TIP3    H225254   5.852   2.349   5.136 -0.2923  0.2637 -0.2710
 1255TIP3   OH225255   0.536   4.510   1.834  0.2268  0.2968  0.0076
 1255TIP3    H125256   0.560   4.594   1.795  0.0608  0.2628 -0.1732
 1255TIP3    H225257   0.568   4.445   1.771 -2.3294  0.2885 -1.4407
 1256TIP3   OH225258   3.628   2.523   5.756 -1.0680  0.0230 -0.5575
 1256TIP3    H125259   3.722   2.539   5.769 -0.8200 -1.8810  0.3494
 1256TIP3    H225260   3.617   2.526   5.661 -0.0164 -0.0355 -0.6945
 1257TIP3   OH225261   3.364   4.948  16.516  0.3055 -0.2189 -0.2108
 1257TIP3    H125262   3.333   4.984  16.433 -0.6990 -1.0701 -0.2338
 1257TIP3    H225263   3.415   5.018  16.556 -1.9137  1.4259 -0.0468
 1258TIP3   OH225264   4.310   5.018  15.148  0.1397 -0.4529  0.0782
 1258TIP3    H125265   4.282   5.018  15.057 -0.0367  0.8178  0.1105
 1258TIP3    H225266   4.230   5.003  15.198 -0.0854  0.5996  0.0694
 1259TIP3   OH225267   4.579   4.959  11.647 -0.2504 -0.3972 -0.1935
 1259TIP3    H125268   4.595   4.973  11.553  1.3636  0.5835  0.1727
 1259TIP3    H225269   4.583   4.864  11.658  1.5919 -0.4471 -0.8476
 1260TIP3   OH225270   5.300   2.658  15.239 -0.7094  0.1425 -0.6280
 1260TIP3    H125271   5.278   2.740  15.284 -1.8241 -0.4065 -0.1330
 1260TIP3    H225272   5.291   2.678  15.146 -2.9991  0.0912 -0.4808
 1261TIP3   OH225273   0.209   3.928   2.367  0.3121 -0.2572  0.0723
 1261TIP3    H125274   0.146   3.869   2.324  0.0838  0.0724 -0.0486
 1261TIP3    H225275   0.196   3.912   2.461 -4.1792  3.8441  0.5900
 1262TIP3   OH225276   5.387   5.783   6.281 -0.2942  0.4228  0.1271
 1262TIP3    H125277   5.423   5.854   6.334  1.0963  1.0917 -1.5747
 1262TIP3    H225278   5.357   5.827   6.201  0.5372 -0.8753 -0.9364
 1263TIP3   OH225279   6.182   3.395  17.238 -0.7431  0.0233  0.1047
 1263TIP3    H125280   6.220   3.360  17.157 -0.6611  1.1155 -0.3408
 1263TIP3    H225281   6.205   3.330  17.305 -0.6092 -0.7796 -0.6925
 1264TIP3   OH225282   4.333   5.426  13.480 -0.5570  0.4048 -0.2829
 1264TIP3    H125283   4.267   5.411  13.548 -0.9413  0.5971 -0.6161
 1264TIP3    H225284   4.377   5.507  13.506 -1.0482  0.7554 -0.5365
 1265TIP3   OH225285   5.464   6.147   3.242  0.3517  0.4670 -0.5068
 1265TIP3    H125286   5.546   6.195   3.246  1.0577 -0.6204 -1.1428
 1265TIP3    H225287   5.474   6.077   3.307  0.4593 -0.4136 -1.4422
 1266TIP3   OH225288   2.705   0.809   2.603  0.0241 -0.3184  0.0530
 1266TIP3    H125289   2.654   0.889   2.589  0.5926  0.3467  1.5601
 1266TIP3    H225290   2.655   0.741   2.558 -0.9573  0.7112 -0.4842
 1267TIP3   OH225291   3.612   4.806   0.492  0.1152  0.2712  0.1898
 1267TIP3    H125292   3.554   4.877   0.517  0.0806  0.3128 -0.0069
 1267TIP3    H225293   3.555   4.741   0.451  0.0808 -0.0653  0.7632
 1268TIP3   OH225294   5.314   0.568  13.139  0.2774 -0.8389  0.1119
 1268TIP3    H125295   5.302   0.493  13.196  0.3685 -0.6731  0.3510
 1268TIP3    H225296   5.334   0.640  13.198  2.3089 -1.0623 -0.2276
 1269TIP3   OH225297   2.923   4.663  13.205  0.5039  0.2652  0.3774
 1269TIP3    H125298   3.002   4.707  13.175  0.1977  0.4618 -0.1363
 1269TIP3    H225299   2.870   4.651  13.126  1.6618 -3.3241 -0.0267
 1270TIP3   OH225300   0.313   6.424   3.640 -0.0153  0.3052 -0.0249
 1270TIP3    H125301   0.289   6.331   3.651 -0.1143  0.5976  3.3090
 1270TIP3    H225302   0.408   6.426   3.650 -0.0474  0.6083  0.2196
 1271TIP3   OH225303   4.325   6.580  14.058  0.0380  0.1918  0.4353
 1271TIP3    H125304   4.272   6.574  14.137  1.0966  1.6371  1.3000
 1271TIP3    H225305   4.264   6.608  13.989 -0.7605 -0.4534  0.8641
 1272TIP3   OH225306   4.957   0.146  11.129  0.1483 -0.1954 -0.2003
 1272TIP3    H125307   4.964   0.182  11.041 -0.4079  1.6865  0.4772
 1272TIP3    H225308   4.863   0.133  11.143  0.1324  0.5780  0.4946
 1273TIP3   OH225309   6.783   4.122  15.354  0.1071  0.3812  0.1476
 1273TIP3    H125310   6.825   4.053  15.302 -0.0134  0.0317  0.5137
 1273TIP3    H225311   6.836   4.200  15.335  0.1682  0.2225 -0.3674
 1274TIP3   OH225312   1.148   1.257  12.372  0.1489 -0.0566 -0.5683
 1274TIP3    H125313   1.202   1.293  12.302 -0.3740 -0.2850 -1.0958
 1274TIP3    H225314   1.181   1.299  12.452  0.5690  0.4094 -0.9809
 1275TIP3   OH225315   0.858   5.934   1.329 -0.5980  0.1623 -0.4168
 1275TIP3    H125316   0.833   6.021   1.361 -2.5646 -0.9941  1.4966
 1275TIP3    H225317   0.816   5.874   1.390  0.5204 -2.1613 -1.8146
 1276TIP3   OH225318   0.121   0.973  11.886 -0.0189 -0.4006 -0.1111
 1276TIP3    H125319   0.216   0.962  11.892 -0.0976 -0.8624  0.3339
 1276TIP3    H225320   0.089   0.954  11.974 -0.3986  1.1110  0.1022
 1277TIP3   OH225321   4.692   5.576  14.568  0.6756  0.1846  0.2544
 1277TIP3    H125322   4.731   5.571  14.655  2.6321 -0.0966 -0.5657
 1277TIP3    H225323   4.731   5.654  14.529 -1.4805  1.2928  0.1799
 1278TIP3   OH225324   4.246   0.813   3.977  0.0623 -0.0710  0.0953
 1278TIP3    H125325   4.217   0.805   4.068 -0.1867 -1.4630 -0.0987
 1278TIP3    H225326   4.218   0.901   3.951 -1.2706 -0.2362  0.8728
 1279TIP3   OH225327   5.422   3.862  13.072 -0.8527  0.1631  0.2434
 1279TIP3    H125328   5.431   3.775  13.033 -0.7206 -0.7862  2.2663
 1279TIP3    H225329   5.471   3.920  13.012  0.5928 -1.4414 -0.2032
 1280TIP3   OH225330   0.228   4.399  16.369 -0.1332 -0.0664  0.3272
 1280TIP3    H125331   0.220   4.306  16.348 -1.5174  0.3394 -1.1772
 1280TIP3    H225332   0.316   4.408  16.407  0.0723 -1.9436  0.3751
 1281TIP3   OH225333   3.784   3.011  11.372  0.2900 -0.2200  0.3850
 1281TIP3    H125334   3.857   3.004  11.310 -1.2962 -0.7827 -1.5283
 1281TIP3    H225335   3.733   3.085  11.341  0.3446  0.5652  2.0783
 1282TIP3   OH225336   0.658   1.331   4.888 -0.6106  0.3486 -0.5136
 1282TIP3    H125337   0.606   1.391   4.943  0.5851  1.3551 -0.4250
 1282TIP3    H225338   0.598   1.260   4.867 -1.9983  1.4235 -0.3505
 1283TIP3   OH225339   0.528   4.094   6.419  0.0651  0.3703  0.4065
 1283TIP3    H125340   0.588   4.020   6.432 -0.3826 -0.1179 -0.2863
 1283TIP3    H225341   0.445   4.053   6.397  0.0292  1.1032 -0.8703
 1284TIP3   OH225342   2.902   2.734  12.807  0.0491  0.0776 -0.6256
 1284TIP3    H125343   2.876   2.727  12.899 -0.8400  0.3865 -0.8420
 1284TIP3    H225344   2.888   2.827  12.786  1.0837  0.2008 -0.8395
 1285TIP3   OH225345   0.165   1.350   4.313 -0.0237 -0.2538  0.6413
 1285TIP3    H125346   0.178   1.402   4.392 -0.0431  0.1856  0.3574
 1285TIP3    H225347   0.077   1.372   4.283 -0.1542 -0.6909  0.6916
 1286TIP3   OH225348   4.500   0.052  17.030 -0.1643  0.0321 -0.0589
 1286TIP3    H125349   4.511  -0.023  17.089  1.2623 -0.1045 -0.4759
 1286TIP3    H225350   4.494   0.128  17.088  0.9079 -0.1360  0.2876
 1287TIP3   OH225351   0.475   0.131   5.533  0.3223  0.2148  0.1462
 1287TIP3    H125352   0.396   0.148   5.480  0.5604  1.0321  0.0297
 1287TIP3    H225353   0.502   0.043   5.508 -0.8370 -0.2837  0.5548
 1288TIP3   OH225354   0.090   2.046   6.301 -0.2826  0.2296 -0.1040
 1288TIP3    H125355   0.151   2.104   6.346  0.0838  0.6523 -1.1077
 1288TIP3    H225356   0.016   2.102   6.278  0.5333  0.6002 -2.0085
 1289TIP3   OH225357   4.491   2.620  10.873 -0.3563  0.3956  0.2430
 1289TIP3    H125358   4.486   2.697  10.930 -0.4465 -0.6328  1.6626
 1289TIP3    H225359   4.400   2.594  10.859 -0.3890  1.1226 -1.0947
 1290TIP3   OH225360   3.301   5.124  16.765  0.4197 -0.5871 -1.0524
 1290TIP3    H125361   3.358   5.157  16.834  0.7740 -1.0766 -1.1071
 1290TIP3    H225362   3.221   5.096  16.811 -0.4267  1.4945 -1.1378
 1291TIP3   OH225363   2.136   0.825  10.914  0.0335  0.2585 -0.0765
 1291TIP3    H125364   2.215   0.773  10.927 -0.0883  0.2304  0.6198
 1291TIP3    H225365   2.067   0.773  10.956 -0.8163 -0.8380 -2.6189
 1292TIP3   OH225366   5.500   6.034  14.353 -0.8910 -0.4229 -0.0967
 1292TIP3    H125367   5.418   6.018  14.401 -1.7077  0.9162 -0.9550
 1292TIP3    H225368   5.473   6.090  14.280  0.7068 -0.4907 -0.7603
 1293TIP3   OH225369   5.816   3.156   3.024 -1.4180 -0.8446  0.4334
 1293TIP3    H125370   5.823   3.243   2.984  0.2934 -0.4507  1.5130
 1293TIP3    H225371   5.850   3.167   3.113 -0.0888 -2.8230  0.2364
 1294TIP3   OH225372   6.174   3.668   0.641 -0.1017 -0.2025  0.0643
 1294TIP3    H125373   6.106   3.718   0.596  0.9576  0.5187 -0.8091
 1294TIP3    H225374   6.242   3.733   0.659  1.2186 -1.2548 -0.8971
 1295TIP3   OH225375   3.138   1.862   3.471  0.3077  0.0483 -0.0475
 1295TIP3    H125376   3.226   1.848   3.437  0.3045  0.3034 -0.1630
 1295TIP3    H225377   3.083   1.799   3.425  0.3874  0.0624 -0.1602
 1296TIP3   OH225378   2.098   0.028  16.820  0.0131 -0.6439  0.0621
 1296TIP3    H125379   2.096   0.109  16.871  1.1495 -0.8038  0.3783
 1296TIP3    H225380   2.053  -0.036  16.875 -1.8805 -0.0043 -0.6482
 1297TIP3   OH225381   4.620   3.983  13.532  0.6864  0.8824  0.2857
 1297TIP3    H125382   4.690   3.923  13.504 -0.7260 -0.1486 -1.2143
 1297TIP3    H225383   4.631   4.059  13.476 -1.1305 -0.5086 -2.1500
 1298TIP3   OH225384   3.937   3.474   5.159  0.3742  0.1248 -0.2309
 1298TIP3    H125385   3.867   3.449   5.098  0.4294  0.5587 -0.4733
 1298TIP3    H225386   3.998   3.526   5.106 -0.3924  1.9035  0.5680
 1299TIP3   OH225387   6.127   4.175   1.807 -0.2717 -0.4227 -0.3040
 1299TIP3    H125388   6.130   4.263   1.770  0.2667 -0.4511 -0.3375
 1299TIP3    H225389   6.133   4.188   1.902  1.2027 -0.4697 -0.3598
 1300TIP3   OH225390   2.507   3.185  15.438  0.0589 -0.1219  0.6026
 1300TIP3    H125391   2.535   3.095  15.419 -1.1949 -0.8855  2.1493
 1300TIP3    H225392   2.438   3.202  15.373  0.1536 -0.3492  0.4388
 1301TIP3   OH225393   0.465   0.291  16.656 -0.8151  0.2452 -0.2004
 1301TIP3    H125394   0.504   0.211  16.692 -0.8046  0.3031 -0.0822
 1301TIP3    H225395   0.446   0.269  16.565  0.2171  0.4679 -0.4816
 1302TIP3   OH225396   5.093   6.172  14.837  0.3472 -0.0897  0.4173
 1302TIP3    H125397   5.128   6.253  14.800 -0.9561  0.1585 -0.3315
 1302TIP3    H225398   5.121   6.174  14.929  1.0374  0.7897  0.2072
 1303TIP3   OH225399   0.058   2.190  11.964 -0.2487  0.6434 -0.4378
 1303TIP3    H125400   0.136   2.235  11.933 -1.1096  1.7692 -1.0501
 1303TIP3    H225401  -0.012   2.254  11.956 -1.4270 -0.6269 -0.7995
 1304TIP3   OH225402   6.516   4.659  13.398  0.1216 -0.3111  0.0235
 1304TIP3    H125403   6.451   4.608  13.447 -0.0017 -1.5235 -1.3290
 1304TIP3    H225404   6.478   4.747  13.391 -1.0186 -0.7936 -0.0607
 1305TIP3   OH225405   2.303   1.809   5.699 -0.3331  0.5478 -0.1901
 1305TIP3    H125406   2.252   1.745   5.748 -0.8086  1.1569  0.1252
 1305TIP3    H225407   2.247   1.833   5.625 -0.9624  1.9821  0.7181
 1306TIP3   OH225408   0.586   5.438  14.907 -0.6465  0.4333  0.4153
 1306TIP3    H125409   0.621   5.509  14.960  0.3463  0.1850  0.1116
 1306TIP3    H225410   0.546   5.378  14.970  0.6090  0.0898  0.8983
 1307TIP3   OH225411   0.494   5.867   4.180  0.2503  0.2074  0.7109
 1307TIP3    H125412   0.486   5.775   4.153  3.3852  0.0431 -0.1113
 1307TIP3    H225413   0.425   5.912   4.132  0.4731 -1.3406 -1.2125
 1308TIP3   OH225414   3.877   1.104  16.825 -0.0324  0.0160  0.0235
 1308TIP3    H125415   3.958   1.054  16.838 -0.2619 -0.2228  0.5594
 1308TIP3    H225416   3.833   1.101  16.910 -0.5210  0.2976 -0.2155
 1309TIP3   OH225417   2.705   4.337   1.491 -0.0567 -0.4631  0.6938
 1309TIP3    H125418   2.794   4.356   1.459 -0.7330 -0.3624 -1.2415
 1309TIP3    H225419   2.694   4.243   1.476 -0.8577 -0.1772 -0.7291
 1310TIP3   OH225420   0.221   5.084  14.356  0.1453  0.5620 -0.3793
 1310TIP3    H125421   0.155   5.076  14.288  0.0867  0.9240 -0.3690
 1310TIP3    H225422   0.214   5.003  14.406  0.1391  0.3259 -0.7591
 1311TIP3   OH225423   0.922   5.207   3.427 -0.3147  0.0101  0.1998
 1311TIP3    H125424   0.962   5.286   3.464  1.2283 -0.1720 -0.9833
 1311TIP3    H225425   0.994   5.161   3.384 -1.4645 -1.2935 -0.4252
 1312TIP3   OH225426   0.566   2.091  13.998 -0.9050  0.5646 -0.0353
 1312TIP3    H125427   0.553   2.140  14.080 -1.0811 -0.2969  0.4591
 1312TIP3    H225428   0.547   2.000  14.021 -1.4459  0.3820 -1.1580
 1313TIP3   OH225429   5.619   0.555  12.876  0.0464  0.7924  0.1150
 1313TIP3    H125430   5.679   0.532  12.805 -1.8230 -1.5829 -0.8312
 1313TIP3    H225431   5.563   0.623  12.840 -3.3655 -2.8957 -2.3610
 1314TIP3   OH225432   0.916   1.544  16.592  0.0175 -0.2336  0.6491
 1314TIP3    H125433   0.867   1.462  16.596 -0.3679  0.0371  1.9683
 1314TIP3    H225434   0.926   1.562  16.498 -1.9870 -0.5555  0.3303
 1315TIP3   OH225435   4.835   4.341   3.868 -0.4299  0.2034  0.2972
 1315TIP3    H125436   4.779   4.418   3.878 -0.8838  0.0059 -0.5927
 1315TIP3    H225437   4.817   4.287   3.945 -1.2309  0.2910  0.1726
 1316TIP3   OH225438   5.221   4.202  14.308 -0.1593 -0.2599 -0.0074
 1316TIP3    H125439   5.220   4.296  14.292  0.6886 -0.2568 -0.0834
 1316TIP3    H225440   5.311   4.175  14.290 -0.5066 -1.1720 -0.4640
 1317TIP3   OH225441   2.833   5.030   1.326 -0.2051 -0.2257  0.0384
 1317TIP3    H125442   2.843   4.984   1.410 -0.1547 -0.5687 -0.1551
 1317TIP3    H225443   2.920   5.066   1.308  0.8111 -3.1806 -1.6296
 1318TIP3   OH225444   0.101   5.243  10.981  0.5390  0.3232  0.0328
 1318TIP3    H125445   0.136   5.170  10.931 -1.0640  0.3524 -1.1999
 1318TIP3    H225446   0.016   5.261  10.942  0.6430  2.5023  0.6440
 1319TIP3   OH225447   5.910   2.441   4.327  0.7217  0.0744 -0.9167
 1319TIP3    H125448   5.908   2.348   4.308  2.4675 -0.3103  0.4699
 1319TIP3    H225449   5.863   2.482   4.255 -0.4040 -1.8874 -1.3611
 1320TIP3   OH225450   3.667   4.286  16.268  0.2038  0.2702 -0.0878
 1320TIP3    H125451   3.646   4.206  16.219  1.0441  0.2546 -0.4450
 1320TIP3    H225452   3.756   4.271  16.301  0.2563  0.9389  0.0840
 1321TIP3   OH225453   1.563   5.212  11.929 -0.4253  0.4781 -0.0209
 1321TIP3    H125454   1.476   5.199  11.968 -0.2746  1.5342  0.6999
 1321TIP3    H225455   1.557   5.170  11.843 -1.0860 -1.0386  0.7299
 1322TIP3   OH225456   6.048   4.823  11.393  0.1989  0.4650 -0.1730
 1322TIP3    H125457   6.096   4.822  11.475 -1.7531  1.8165  1.0633
 1322TIP3    H225458   6.029   4.731  11.375  2.0400  0.0203 -0.0154
 1323TIP3   OH225459   2.438   2.195   0.143 -0.0080 -0.4116 -0.4838
 1323TIP3    H125460   2.357   2.149   0.163  0.1487 -0.0371  1.1999
 1323TIP3    H225461   2.507   2.141   0.182  0.7665 -1.4854 -3.1310
 1324TIP3   OH225462   5.361   4.672  15.908 -0.1438  0.3824 -0.5313
 1324TIP3    H125463   5.303   4.623  15.967 -1.5430  0.9408 -1.3999
 1324TIP3    H225464   5.312   4.751  15.886  0.7876  0.6894 -1.5929
 1325TIP3   OH225465   1.938   3.739   5.172 -0.1543 -0.3415 -0.3576
 1325TIP3    H125466   1.925   3.737   5.267  1.8459  0.3270 -0.0391
 1325TIP3    H225467   1.849   3.744   5.137 -0.8996  1.1593  1.5355
 1326TIP3   OH225468   4.675   0.954   4.137 -0.3425  0.4501 -0.3090
 1326TIP3    H125469   4.655   0.970   4.045  0.0698  1.9183 -0.1784
 1326TIP3    H225470   4.758   0.905   4.135 -1.2384 -1.1152 -0.7258
 1327TIP3   OH225471   5.471   0.032  14.384 -0.2452  0.1067 -0.0680
 1327TIP3    H125472   5.496   0.103  14.443  0.2121 -0.9239  1.0154
 1327TIP3    H225473   5.378   0.018  14.402  0.5445 -2.2966  2.8059
 1328TIP3   OH225474   6.333   3.983   0.074 -0.2078  0.0819  0.4020
 1328TIP3    H125475   6.350   3.958  -0.017 -0.0730  4.0964 -0.8892
 1328TIP3    H225476   6.369   4.072   0.081 -4.8552  2.1159  2.7610
 1329TIP3   OH225477   4.877   3.094  11.439  0.0348 -0.4236 -0.0254
 1329TIP3    H125478   4.968   3.109  11.410  0.5128 -3.4128 -0.4405
 1329TIP3    H225479   4.880   3.104  11.534  0.6413  0.1523 -0.0953
 1330TIP3   OH225480   2.177   4.043   2.226  0.1024 -0.4237 -0.1379
 1330TIP3    H125481   2.258   4.020   2.180 -1.4195 -1.8425 -2.2950
 1330TIP3    H225482   2.153   4.129   2.191  1.1908  0.5259  1.3375
 1331TIP3   OH225483   0.865   0.938   2.940  0.2542  0.3135 -0.0719
 1331TIP3    H125484   0.926   0.893   2.997 -0.1712 -1.9830 -1.3280
 1331TIP3    H225485   0.789   0.957   2.996  0.3405 -0.7800  0.4235
 1332TIP3   OH225486   5.960   0.859  13.746  0.2834 -0.2877  0.1809
 1332TIP3    H125487   6.053   0.874  13.728  0.4901 -1.0639  0.5951
 1332TIP3    H225488   5.942   0.771  13.713 -0.9395  0.7591 -2.2817
 1333TIP3   OH225489   2.586   2.113   3.203 -0.2776  0.0159 -0.0553
 1333TIP3    H125490   2.601   2.203   3.233 -0.9769  0.6198 -1.4689
 1333TIP3    H225491   2.494   2.111   3.177  0.1945 -0.5521 -1.8285
 1334TIP3   OH225492   3.753   6.374   4.986  0.0565 -0.4132 -0.5534
 1334TIP3    H125493   3.764   6.294   5.037 -0.4795  1.4396  2.7071
 1334TIP3    H225494   3.725   6.343   4.899 -0.0193 -3.7183  0.5127
 1335TIP3   OH225495   1.820   3.285   5.029 -0.6057 -0.1101  0.5650
 1335TIP3    H125496   1.886   3.348   4.999 -1.3676  0.0956 -0.7575
 1335TIP3    H225497   1.757   3.337   5.078 -0.2110 -0.1704  1.1362
 1336TIP3   OH225498   6.267   1.208   3.782  0.0242 -0.2693  0.0651
 1336TIP3    H125499   6.324   1.158   3.723  0.1737 -0.5788  0.4649
 1336TIP3    H225500   6.178   1.191   3.750 -0.0088 -1.6098  0.7863
 1337TIP3   OH225501   5.558   6.135   4.296 -0.3927 -0.0291 -0.4378
 1337TIP3    H125502   5.504   6.176   4.363  0.3974 -1.0744  0.8856
 1337TIP3    H225503   5.497   6.114   4.225 -1.6393 -0.6470  0.7647
 1338TIP3   OH225504   5.840   1.463  11.579 -0.3242  0.1492 -0.5840
 1338TIP3    H125505   5.824   1.475  11.673 -1.5513  0.3459 -0.7952
 1338TIP3    H225506   5.867   1.550  11.548  3.1047 -0.5458  0.0826
 1339TIP3   OH225507   5.279   6.228   4.603  0.3011  0.4556  0.1814
 1339TIP3    H125508   5.282   6.324   4.608 -0.4470  0.5336 -0.7204
 1339TIP3    H225509   5.366   6.200   4.629  0.4718  1.3750  0.6417
 1340TIP3   OH225510   5.702   6.159   2.512  0.0206  0.4639 -0.8378
 1340TIP3    H125511   5.630   6.104   2.480  0.3736  0.5160 -1.7719
 1340TIP3    H225512   5.759   6.170   2.435  0.3984  1.4246 -0.4311
 1341TIP3   OH225513   6.114   4.172  11.987  0.4752 -0.5595  0.7209
 1341TIP3    H125514   6.199   4.143  12.020  1.4555  1.5116  0.2053
 1341TIP3    H225515   6.126   4.176  11.892 -0.6439 -1.4937  0.5247
 1342TIP3   OH225516   3.752   0.960  17.055  0.2636 -0.1962  0.1079
 1342TIP3    H125517   3.811   0.887  17.039 -1.0183 -0.9976 -1.3694
 1342TIP3    H225518   3.791   1.008  17.127  2.2918 -1.0991 -0.3171
 1343TIP3   OH225519   4.913   4.198  11.687 -0.1844  0.4345 -0.3517
 1343TIP3    H125520   4.874   4.187  11.600  0.9173  1.4155 -1.0032
 1343TIP3    H225521   4.839   4.218  11.744 -0.7717  1.3377 -1.3753
 1344TIP3   OH225522   5.477   1.847  13.129  0.5401  0.1147  0.3713
 1344TIP3    H125523   5.521   1.927  13.101  0.1247 -0.2728 -1.5387
 1344TIP3    H225524   5.437   1.813  13.049 -2.4119 -0.0736  1.8150
 1345TIP3   OH225525   6.270   4.971   2.397  0.6682  0.2656  0.2808
 1345TIP3    H125526   6.249   5.062   2.376  0.3865  0.3067  0.7210
 1345TIP3    H225527   6.358   4.975   2.435 -0.0942  0.6258  2.1053
 1346TIP3   OH225528   3.708   1.159  14.157 -0.0031 -0.1616 -0.2244
 1346TIP3    H125529   3.789   1.114  14.132 -0.5523 -1.3493  0.0545
 1346TIP3    H225530   3.681   1.204  14.078  1.5868  1.3214  0.0154
 1347TIP3   OH225531   5.800   4.974   1.261  0.6146 -0.2510 -0.6760
 1347TIP3    H125532   5.790   4.882   1.237 -0.4433 -0.6732  1.1764
 1347TIP3    H225533   5.716   5.014   1.240  0.0681 -0.3836  1.1334
 1348TIP3   OH225534   2.090   4.299   1.375 -0.7164  0.1701  0.1884
 1348TIP3    H125535   2.180   4.266   1.366  0.1346  2.3221  0.0983
 1348TIP3    H225536   2.077   4.355   1.298 -1.0420  2.1261  1.5707
 1349TIP3   OH225537   1.882   6.423   4.875  0.1246 -0.3796  0.3475
 1349TIP3    H125538   1.959   6.384   4.834  0.1934 -0.4458  0.5413
 1349TIP3    H225539   1.843   6.478   4.806  0.7012  0.1586  0.4404
 1350TIP3   OH225540   4.461   5.129   5.520 -0.0791 -0.1323  0.4598
 1350TIP3    H125541   4.442   5.219   5.550  0.6072  0.1612  0.0379
 1350TIP3    H225542   4.501   5.141   5.434 -0.7542 -0.8992  0.0317
 1351TIP3   OH225543   5.974   1.928  15.072  0.4943 -0.7755 -0.0152
 1351TIP3    H125544   6.001   1.837  15.058 -0.1370 -0.9883  0.1212
 1351TIP3    H225545   6.029   1.978  15.011  1.0866 -1.2062  0.1446
 1352TIP3   OH225546   5.186   1.987  12.633  0.3209 -0.3675 -0.0956
 1352TIP3    H125547   5.265   2.029  12.600  0.6883 -1.4372 -0.5949
 1352TIP3    H225548   5.186   1.900  12.594 -2.2826  0.3339 -1.9551
 1353TIP3   OH225549   0.618   0.084  12.379 -0.0700  0.4754 -0.3033
 1353TIP3    H125550   0.703   0.041  12.366  0.1755  0.6080  0.7961
 1353TIP3    H225551   0.614   0.102  12.473 -0.9738  1.1920 -0.4643
 1354TIP3   OH225552   4.113   6.303  12.434  0.0922  0.4760  0.1556
 1354TIP3    H125553   4.183   6.239  12.421 -1.2308 -0.8970 -0.4522
 1354TIP3    H225554   4.150   6.366  12.497  0.9911 -1.5745  1.8133
 1355TIP3   OH225555   5.052   2.397   3.396  0.6344  0.4215 -0.2433
 1355TIP3    H125556   5.012   2.353   3.321  1.9837  2.2415 -2.1481
 1355TIP3    H225557   4.993   2.469   3.415 -0.5821 -0.9879  1.6296
 1356TIP3   OH225558   5.269   6.508  16.226 -0.1426  0.2737 -0.0231
 1356TIP3    H125559   5.353   6.552  16.209  0.2450 -0.6297 -0.5338
 1356TIP3    H225560   5.282   6.465  16.311 -0.4829  1.0312  0.4231
 1357TIP3   OH225561   1.096   2.526   2.494 -0.6340 -0.1580 -0.5982
 1357TIP3    H125562   1.082   2.611   2.536  0.3848  0.1150 -0.7874
 1357TIP3    H225563   1.034   2.525   2.421 -0.5382  0.5048 -0.6973
 1358TIP3   OH225564   3.494   5.696   3.075  0.1049  0.0182  0.7133
 1358TIP3    H125565   3.427   5.752   3.036  0.3331  1.3208  2.1060
 1358TIP3    H225566   3.576   5.746   3.064  0.4615 -0.4701  1.1159
 1359TIP3   OH225567   0.568   3.977   4.234  0.5510  0.0583 -0.8355
 1359TIP3    H125568   0.606   4.043   4.292  1.6261 -1.5231  0.3709
 1359TIP3    H225569   0.492   3.944   4.283  0.2008  0.1794 -1.2940
 1360TIP3   OH225570   1.830   2.554  16.358  0.1030  0.3747  0.0126
 1360TIP3    H125571   1.744   2.517  16.336 -1.5456  2.4138  2.4249
 1360TIP3    H225572   1.888   2.478  16.365 -1.7312 -1.1802 -0.6044
 1361TIP3   OH225573   3.198   1.625   5.746 -0.4914  0.0544 -0.2642
 1361TIP3    H125574   3.226   1.648   5.835 -3.7543  2.7347  0.2324
 1361TIP3    H225575   3.122   1.569   5.759 -1.8214  1.5559 -1.2694
 1362TIP3   OH225576   4.910   5.465   5.219 -0.7666 -0.2438 -0.3090
 1362TIP3    H125577   4.931   5.511   5.138 -0.0654 -0.4927 -0.2823
 1362TIP3    H225578   4.865   5.529   5.274  0.1849  0.4141 -0.2735
 1363TIP3   OH225579   3.665   6.211   2.682 -0.4511  0.2735  0.1805
 1363TIP3    H125580   3.682   6.133   2.629 -4.1770 -0.0299 -0.8371
 1363TIP3    H225581   3.582   6.194   2.725 -0.8550  3.2565  0.8287
 1364TIP3   OH225582   1.024   4.939  10.887  0.8053 -0.7342  0.0678
 1364TIP3    H125583   0.932   4.962  10.901  1.0115 -1.0576  2.4325
 1364TIP3    H225584   1.044   4.970  10.799 -2.1439 -2.5557 -1.4120
 1365TIP3   OH225585   4.552   1.545   2.597 -0.4142  0.6082  0.5087
 1365TIP3    H125586   4.582   1.472   2.651  1.0361  1.4328  0.8628
 1365TIP3    H225587   4.608   1.543   2.519 -1.0278  0.7541  0.0493
 1366TIP3   OH225588   5.418   4.792   3.527  0.2557  0.8809  0.7100
 1366TIP3    H125589   5.406   4.745   3.444  0.7218  2.1225 -0.0866
 1366TIP3    H225590   5.354   4.863   3.523 -0.5786  0.2263  1.9917
 1367TIP3   OH225591   3.457   1.896   4.501  0.3523  0.1414  0.3056
 1367TIP3    H125592   3.505   1.849   4.569 -0.1507 -0.9037 -0.0356
 1367TIP3    H225593   3.365   1.883   4.523  0.1976  0.5514 -0.0832
 1368TIP3   OH225594   5.148   4.631  14.442 -0.1997  0.3503  0.5286
 1368TIP3    H125595   5.105   4.714  14.421  1.6949  1.4213  0.6682
 1368TIP3    H225596   5.141   4.579  14.362  0.5615  1.5558 -0.3621
 1369TIP3   OH225597   1.690   1.772   3.472  0.0165  0.2583  0.6413
 1369TIP3    H125598   1.607   1.725   3.466  0.5701 -0.5295 -1.9085
 1369TIP3    H225599   1.668   1.862   3.451 -0.0617 -0.1572 -1.1601
 1370TIP3   OH225600   3.573   6.052   0.626  0.9645 -0.1403 -0.1678
 1370TIP3    H125601   3.594   6.144   0.613 -1.4727  0.4109 -0.6041
 1370TIP3    H225602   3.578   6.040   0.721 -1.7703  1.3334  0.2573
 1371TIP3   OH225603   1.196   5.715   4.864 -0.1867 -0.1189  0.7165
 1371TIP3    H125604   1.215   5.700   4.772  1.1703  0.6942  0.8483
 1371TIP3    H225605   1.134   5.788   4.865 -0.9456 -0.7348  0.4364
 1372TIP3   OH225606   0.676   1.857  12.136 -0.6877  0.3272  0.1090
 1372TIP3    H125607   0.587   1.844  12.103 -0.3694 -0.0678 -0.6180
 1372TIP3    H225608   0.676   1.816  12.223 -0.7464 -1.2094 -0.5952
 1373TIP3   OH225609   4.134   6.215  17.158  0.2383 -0.0571 -0.0546
 1373TIP3    H125610   4.129   6.126  17.195 -0.1927 -0.9100 -2.0124
 1373TIP3    H225611   4.228   6.230  17.146  0.2624 -0.7588 -0.8280
 1374TIP3   OH225612   3.624   0.271  11.513 -0.2551  0.0128 -0.0809
 1374TIP3    H125613   3.624   0.181  11.479  1.4179 -0.2938  0.6299
 1374TIP3    H225614   3.597   0.324  11.439 -2.1837 -1.1368 -0.2698
 1375TIP3   OH225615   3.776   0.274  15.558  0.2129 -0.2173 -0.3617
 1375TIP3    H125616   3.775   0.370  15.552  0.3809 -0.1886  0.0741
 1375TIP3    H225617   3.867   0.250  15.542  0.1877 -0.2996 -0.3821
 1376TIP3   OH225618   6.151   4.385   3.558  0.2339 -0.0162 -0.0015
 1376TIP3    H125619   6.208   4.455   3.588 -1.5825  1.4285  0.2232
 1376TIP3    H225620   6.191   4.353   3.478 -1.4149  4.8521 -3.2104
 1377TIP3   OH225621   4.082   0.957  17.266  0.5871  0.0604 -0.2685
 1377TIP3    H125622   4.020   1.027  17.246 -0.5748 -1.1495 -1.1046
 1377TIP3    H225623   4.055   0.925  17.352  1.7070  1.2161  0.5421
 1378TIP3   OH225624   6.045   0.606   3.015  0.0234  1.0556  0.5794
 1378TIP3    H125625   6.024   0.529   3.067  0.5912  1.4382  1.4020
 1378TIP3    H225626   6.063   0.572   2.927  0.1198  0.2797  0.8917
 1379TIP3   OH225627   0.695   3.631  10.797 -0.2078 -0.7036 -0.2870
 1379TIP3    H125628   0.643   3.600  10.724 -1.0250  0.7824 -0.3903
 1379TIP3    H225629   0.757   3.561  10.815 -0.5537 -1.4437 -1.8416
 1380TIP3   OH225630   0.623   3.840  12.946  0.0049 -0.0979  0.4045
 1380TIP3    H125631   0.667   3.907  12.893 -0.2817  0.4272  0.8262
 1380TIP3    H225632   0.673   3.838  13.028 -0.1802 -0.1689  0.5164
 1381TIP3   OH225633   6.309   5.422   3.001  0.0826  0.1966  0.0175
 1381TIP3    H125634   6.343   5.484   3.065 -0.4108 -0.2321  0.7082
 1381TIP3    H225635   6.216   5.414   3.022 -0.1414  0.2440 -0.9179
 1382TIP3   OH225636   0.857   2.373   5.673 -0.5087  0.2669 -0.4645
 1382TIP3    H125637   0.788   2.340   5.615  1.3424 -1.7709 -1.6447
 1382TIP3    H225638   0.840   2.332   5.757  0.6437 -2.3468 -1.4138
 1383TIP3   OH225639   1.528   4.481   1.055 -0.2576 -0.4588  0.5108
 1383TIP3    H125640   1.496   4.475   1.145  0.0275 -1.5723  0.5514
 1383TIP3    H225641   1.597   4.416   1.049 -0.2379 -0.3679 -0.5083
 1384TIP3   OH225642   2.691   2.270  16.167 -0.4246 -0.3887  0.3433
 1384TIP3    H125643   2.764   2.313  16.121 -1.4773 -1.6643 -2.7764
 1384TIP3    H225644   2.621   2.335  16.165 -0.8538 -0.8458 -1.1002
 1385TIP3   OH225645   6.069   6.586  13.329  0.2430 -0.2264  0.0840
 1385TIP3    H125646   5.991   6.589  13.383 -0.3698 -0.2748 -0.7841
 1385TIP3    H225647   6.141   6.607  13.389 -0.5211  0.6813  0.7075
 1386TIP3   OH225648   0.507   2.001  11.922 -0.1635 -0.0920  0.8582
 1386TIP3    H125649   0.423   1.961  11.898 -0.1235  0.4609 -0.2284
 1386TIP3    H225650   0.482   2.083  11.966 -0.1946  0.4227 -0.0981
 1387TIP3   OH225651   4.995   1.348   0.469 -0.8513 -0.0338  0.0786
 1387TIP3    H125652   4.951   1.344   0.554 -1.2077 -0.1826 -0.1097
 1387TIP3    H225653   5.086   1.366   0.490 -1.1065  0.9137  0.4460
 1388TIP3   OH225654   6.616   3.753   5.071 -0.1207 -0.3604 -0.4263
 1388TIP3    H125655   6.586   3.663   5.078 -0.7240 -0.1265  0.0363
 1388TIP3    H225656   6.547   3.799   5.024 -1.2510  0.5078  1.9461
 1389TIP3   OH225657   6.033   0.376  12.161  0.2062 -0.2717 -0.1121
 1389TIP3    H125658   6.047   0.397  12.253  1.3811  0.2690 -0.3884
 1389TIP3    H225659   6.090   0.300  12.145  0.0201 -0.3528 -0.3940
 1390TIP3   OH225660   0.354   4.409  13.173  0.3639 -0.0732  0.4103
 1390TIP3    H125661   0.313   4.325  13.193 -0.7967  0.8501  2.0756
 1390TIP3    H225662   0.305   4.473  13.224 -0.0723  1.9350 -2.2773
 1391TIP3   OH225663   2.181   0.232  15.184 -0.3422  0.2016 -0.2656
 1391TIP3    H125664   2.160   0.322  15.159  0.1494  0.3827 -0.0460
 1391TIP3    H225665   2.213   0.192  15.103  0.2645  0.4815 -0.1657
 1392TIP3   OH225666   6.482   6.777  13.337  0.1003 -0.0721  0.4134
 1392TIP3    H125667   6.547   6.750  13.402 -0.2845 -0.7200  0.5418
 1392TIP3    H225668   6.398   6.760  13.379 -0.1969 -2.2600 -0.8874
 1393TIP3   OH225669   1.721   0.844  15.082 -0.2949 -0.3003 -0.0211
 1393TIP3    H125670   1.792   0.779  15.085 -0.1818 -0.1733  0.0995
 1393TIP3    H225671   1.664   0.820  15.156  0.8258  0.9480  1.3129
 1394TIP3   OH225672   1.158   3.919   4.411  0.6239 -0.2502  1.2100
 1394TIP3    H125673   1.156   3.860   4.335  0.2056 -0.1963  1.1749
 1394TIP3    H225674   1.082   3.892   4.464 -0.5038  1.2439  0.4239
 1395TIP3   OH225675   0.596   0.144   3.511 -0.2558  0.6339  0.0185
 1395TIP3    H125676   0.598   0.161   3.417 -0.9546 -1.4741 -0.4262
 1395TIP3    H225677   0.515   0.185   3.541 -0.9199 -0.1483 -0.6459
 1396TIP3   OH225678   5.529   0.667   6.677 -0.2445 -0.3094 -0.0044
 1396TIP3    H125679   5.458   0.610   6.708  0.4806 -1.4451 -0.3533
 1396TIP3    H225680   5.597   0.606   6.648  0.6664  0.7553 -0.1596
 1397TIP3   OH225681   5.258   6.291  12.887 -0.0761  0.4872 -0.4776
 1397TIP3    H125682   5.253   6.196  12.886 -0.2503  0.4430  1.4086
 1397TIP3    H225683   5.225   6.316  12.973 -0.8780  2.3233 -1.2607
 1398TIP3   OH225684   1.277   1.015   0.532  0.3978  0.2252  0.2789
 1398TIP3    H125685   1.305   0.931   0.495 -0.4306 -0.3633  0.9312
 1398TIP3    H225686   1.230   0.991   0.612  1.7002  1.4187  1.4650
 1399TIP3   OH225687   3.931   1.091   3.906 -0.6130 -0.2092 -0.0861
 1399TIP3    H125688   3.860   1.030   3.923 -1.9204  0.7190 -1.8562
 1399TIP3    H225689   3.973   1.058   3.826 -0.0430  0.1241  0.0640
 1400TIP3   OH225690   5.933   5.110  14.952  1.1443  0.4765 -0.4931
 1400TIP3    H125691   5.905   5.195  14.917  0.4959  0.7121  0.5654
 1400TIP3    H225692   5.863   5.084  15.011  0.0383 -2.0372 -2.7017
 1401TIP3   OH225693   3.660   2.083   3.567 -0.0687 -0.3406  0.4468
 1401TIP3    H125694   3.697   2.131   3.493 -0.3972 -0.1709  0.3910
 1401TIP3    H225695   3.705   2.119   3.644 -1.1448  0.9000  0.5256
 1402TIP3   OH225696   1.124   0.786  10.931  0.6169  0.0076 -0.6141
 1402TIP3    H125697   1.064   0.724  10.971  0.2130  1.1684  0.6592
 1402TIP3    H225698   1.134   0.755  10.841 -1.5850 -0.4389 -0.7580
 1403TIP3   OH225699   6.156   5.582   1.152 -0.1822  0.1918  0.1381
 1403TIP3    H125700   6.224   5.641   1.120 -0.5820  0.4765 -0.1737
 1403TIP3    H225701   6.137   5.614   1.240 -0.3635  0.4920 -0.0120
 1404TIP3   OH225702   5.565   1.144   1.283 -0.6541  0.4773  0.2420
 1404TIP3    H125703   5.633   1.137   1.350 -0.5429 -1.1247 -0.0076
 1404TIP3    H225704   5.594   1.216   1.227 -1.1618  2.4326  2.3340
 1405TIP3   OH225705   0.331   3.217   0.511  0.3899  0.1015 -0.2824
 1405TIP3    H125706   0.307   3.126   0.492  3.3799 -1.0953  0.9340
 1405TIP3    H225707   0.248   3.264   0.513 -1.5875 -3.0619  1.3505
 1406TIP3   OH225708   2.023   1.226  14.484  0.2562  0.5993  0.4011
 1406TIP3    H125709   2.023   1.166  14.559 -0.2279 -1.0042 -0.8282
 1406TIP3    H225710   1.930   1.235  14.462  0.4816 -0.4289 -1.1100
 1407TIP3   OH225711   1.940   3.673   0.973 -0.1743 -0.2445 -0.0516
 1407TIP3    H125712   1.855   3.661   0.932 -0.4278  1.3445 -0.0474
 1407TIP3    H225713   1.924   3.735   1.045  0.7652 -0.8500  0.7166
 1408TIP3   OH225714   0.812   1.523  12.451  0.2350  0.0839 -0.3025
 1408TIP3    H125715   0.854   1.560  12.528 -0.1728  2.3067 -1.0582
 1408TIP3    H225716   0.878   1.528  12.382  0.3670 -1.2142 -0.2888
 1409TIP3   OH225717   2.902   6.605  12.982  0.2829 -0.9579  0.4386
 1409TIP3    H125718   2.828   6.564  12.937  1.0393 -0.2779 -1.5035
 1409TIP3    H225719   2.863   6.645  13.060 -1.4890 -0.2902 -0.7304
 1410TIP3   OH225720   5.607   0.738   4.674 -0.0906  0.4493 -0.5577
 1410TIP3    H125721   5.616   0.735   4.769  0.3964 -1.9880 -0.6279
 1410TIP3    H225722   5.522   0.696   4.657  0.1732  0.1758 -1.2335
 1411TIP3   OH225723   1.797   3.372  13.688 -0.2384 -0.0695  0.0181
 1411TIP3    H125724   1.867   3.307  13.700 -1.5117 -1.3280  0.9159
 1411TIP3    H225725   1.718   3.328  13.719 -1.5360  1.1440 -1.4250
 1412TIP3   OH225726   3.682   6.510  15.494  1.0637 -0.1473 -0.4989
 1412TIP3    H125727   3.624   6.437  15.512  1.8995 -1.0220 -1.2462
 1412TIP3    H225728   3.695   6.552  15.579 -1.2653  0.5715 -0.4333
 1413TIP3   OH225729   3.045   0.325   0.874  0.0593  0.5294 -0.0383
 1413TIP3    H125730   3.038   0.387   0.946  0.1308 -0.1334  0.5495
 1413TIP3    H225731   3.080   0.245   0.914 -0.6941 -0.1211 -0.6413
 1414TIP3   OH225732   4.936   2.668  10.573 -0.1515  0.2420 -0.2189
 1414TIP3    H125733   4.934   2.575  10.595  0.7458  0.3669  0.4213
 1414TIP3    H225734   4.988   2.674  10.493  0.4618  0.2711  0.1777
 1415TIP3   OH225735   2.480   3.566  10.429  0.1116  0.4343 -0.1442
 1415TIP3    H125736   2.391   3.599  10.424  0.2671  1.4706  2.4826
 1415TIP3    H225737   2.472   3.480  10.470  0.3025  0.3297 -0.3191
 1416TIP3   OH225738   6.759   4.188   1.118 -0.0537  0.1707 -0.2225
 1416TIP3    H125739   6.732   4.142   1.038 -1.4934  0.1036  0.2761
 1416TIP3    H225740   6.676   4.211   1.161  0.7057  0.2366  1.2323
 1417TIP3   OH225741   5.187   6.637  15.540  0.1689 -0.2244 -0.6099
 1417TIP3    H125742   5.249   6.564  15.534 -0.2362 -0.6131 -0.1717
 1417TIP3    H225743   5.108   6.598  15.579  0.5492  0.8161  1.3286
 1418TIP3   OH225744   5.027   3.048   1.467  0.2721 -0.2468 -0.0747
 1418TIP3    H125745   5.110   3.042   1.515  0.4271 -2.1257 -0.4899
 1418TIP3    H225746   5.045   3.004   1.384 -0.4300  1.5991 -1.2466
 1419TIP3   OH225747   5.575   0.308  16.991  0.4396  0.7329  0.4461
 1419TIP3    H125748   5.614   0.395  17.001  0.1068  1.0833 -1.0539
 1419TIP3    H225749   5.481   0.325  16.987  0.4810  0.7436 -3.1506
 1420TIP3   OH225750   1.590   0.173   5.124  0.1273 -0.1741  0.1373
 1420TIP3    H125751   1.565   0.254   5.080 -3.0923 -0.3941  1.2916
 1420TIP3    H225752   1.517   0.154   5.183  1.7658 -2.7735  1.5359
 1421TIP3   OH225753   3.869   2.020  15.975 -0.1579  0.6466 -0.1676
 1421TIP3    H125754   3.866   2.068  15.892 -2.6089 -2.8422 -2.3540
 1421TIP3    H225755   3.777   2.012  16.001  0.3706 -0.6557  1.4482
 1422TIP3   OH225756   1.636   3.184  15.291 -0.2098  0.3530  0.5750
 1422TIP3    H125757   1.604   3.272  15.275 -0.3943  0.2940  0.6147
 1422TIP3    H225758   1.700   3.169  15.221 -3.6642 -1.2767 -2.6112
 1423TIP3   OH225759   3.120   6.673   4.842  0.1932  0.5021 -0.0899
 1423TIP3    H125760   3.078   6.722   4.772  0.3840  2.2561  0.9738
 1423TIP3    H225761   3.073   6.589   4.844 -0.2296  0.6723 -1.8524
 1424TIP3   OH225762   5.609   4.803   5.116 -0.5996 -0.3157 -0.1844
 1424TIP3    H125763   5.577   4.765   5.034 -1.9958  2.8130 -1.2542
 1424TIP3    H225764   5.529   4.828   5.163  0.2071  1.4987  0.2753
 1425TIP3   OH225765   5.079   3.263   1.942  0.2901 -0.2577 -0.2552
 1425TIP3    H125766   4.988   3.260   1.912 -0.1783  1.3913  0.8574
 1425TIP3    H225767   5.130   3.286   1.864 -0.0353 -2.4968 -1.1953
 1426TIP3   OH225768   4.096   6.104  15.915  0.2843  0.0925  0.2386
 1426TIP3    H125769   4.008   6.142  15.916  0.4893  0.7682 -1.6580
 1426TIP3    H225770   4.145   6.154  15.980 -0.5022  0.3534  0.6327
 1427TIP3   OH225771   1.015   0.014  14.623  0.1193  0.3089 -0.1784
 1427TIP3    H125772   0.981   0.035  14.710 -0.2037 -0.1710 -0.1846
 1427TIP3    H225773   1.087   0.075  14.610  0.2603  0.2930  0.4859
 1428TIP3   OH225774   1.836   1.381  15.700 -0.6507  0.6442  0.4287
 1428TIP3    H125775   1.847   1.340  15.614 -0.6700 -0.8566  1.1201
 1428TIP3    H225776   1.907   1.446  15.705  1.1397 -1.1981  0.3743
 1429TIP3   OH225777   0.378   3.356  13.762  0.2133  0.0438  0.0263
 1429TIP3    H125778   0.355   3.380  13.852 -0.4845 -0.9474  0.1294
 1429TIP3    H225779   0.443   3.422  13.735  0.0791  0.6261  1.0837
 1430TIP3   OH225780   1.945   1.132   4.824  0.4952  0.1772  0.5476
 1430TIP3    H125781   1.917   1.057   4.876 -1.7942  0.3631 -0.2958
 1430TIP3    H225782   1.980   1.094   4.743  4.3751 -0.1286  2.1808
 1431TIP3   OH225783   6.297   3.435  10.999  0.3879  0.3716 -0.3076
 1431TIP3    H125784   6.268   3.486  10.923  0.9718  0.4498 -0.4820
 1431TIP3    H225785   6.340   3.358  10.960  0.9766  0.5715 -0.0636
 1432TIP3   OH225786   1.019   3.616  16.215 -0.9332 -0.7963  0.0829
 1432TIP3    H125787   1.101   3.664  16.200  0.4803 -1.5652  4.0210
 1432TIP3    H225788   1.042   3.525  16.198 -1.1064 -0.9607  0.7184
 1433TIP3   OH225789   0.657   1.129  10.720  0.2124  0.2421  0.1291
 1433TIP3    H125790   0.564   1.109  10.726  0.1760  0.3506 -0.0526
 1433TIP3    H225791   0.661   1.207  10.664  0.4969 -0.5934 -1.0462
 1434TIP3   OH225792   1.065   5.273   1.736  0.0505  0.3213 -0.3463
 1434TIP3    H125793   1.124   5.347   1.720  1.1928 -0.7996 -1.5493
 1434TIP3    H225794   0.981   5.314   1.756  0.1798  1.9484 -2.7432
 1435TIP3   OH225795   4.832   1.452  16.795 -0.4804  0.4856  0.2481
 1435TIP3    H125796   4.794   1.422  16.878 -0.4257  1.6638  0.7225
 1435TIP3    H225797   4.854   1.544  16.811 -0.3882  0.7041 -1.0549
 1436TIP3   OH225798   3.209   3.399   6.736  0.1177 -0.6250 -0.3198
 1436TIP3    H125799   3.148   3.369   6.804  1.6925  0.0014  1.4927
 1436TIP3    H225800   3.293   3.361   6.762  0.5357 -1.5194 -2.7636
 1437TIP3   OH225801   2.430   1.707  16.037 -0.0686 -0.4847  0.7231
 1437TIP3    H125802   2.456   1.735  16.125 -1.1211  0.3639  0.7833
 1437TIP3    H225803   2.335   1.715  16.036 -0.1162 -1.0072 -0.3240
 1438TIP3   OH225804   5.231   3.626   2.121  0.0048  0.1895  0.3107
 1438TIP3    H125805   5.277   3.709   2.110  1.1977 -0.6382 -1.5193
 1438TIP3    H225806   5.238   3.607   2.215 -0.5910  2.2784  0.8186
 1439TIP3   OH225807   0.005   6.414  14.474 -0.8453  0.3420  0.5475
 1439TIP3    H125808  -0.088   6.391  14.481 -1.0942  0.3247 -1.8742
 1439TIP3    H225809   0.040   6.352  14.411  0.9534  0.0764  1.7471
 1440TIP3   OH225810   0.436   4.953   4.372  0.0020  0.4807 -0.6151
 1440TIP3    H125811   0.520   4.969   4.329  0.4694  4.5905  1.3048
 1440TIP3    H225812   0.383   5.030   4.349 -0.7630  1.3737  3.4030
 1441TIP3   OH225813   2.194   3.266  12.297  0.0744 -0.1012  0.0951
 1441TIP3    H125814   2.201   3.249  12.391 -1.8704 -1.1029  0.0985
 1441TIP3    H225815   2.145   3.191  12.262 -1.6130  1.5350 -1.2691
 1442TIP3   OH225816   0.934   0.647   2.981 -0.2484 -0.3001  0.2133
 1442TIP3    H125817   0.994   0.693   3.040  1.2396 -2.1965  0.3109
 1442TIP3    H225818   0.972   0.559   2.973 -0.7528 -0.3452 -3.0363
 1443TIP3   OH225819   3.110   0.347  14.220  0.0901 -0.1347  0.4740
 1443TIP3    H125820   3.032   0.366  14.274  0.2448 -1.0609  1.0410
 1443TIP3    H225821   3.105   0.411  14.149 -1.8455 -0.9184 -0.1705
 1444TIP3   OH225822   1.516   4.072  16.843  0.4118 -0.5474  0.5559
 1444TIP3    H125823   1.611   4.084  16.833  0.4735 -0.5676  1.0985
 1444TIP3    H225824   1.483   4.161  16.857  0.2990 -0.4940 -0.0451
 1445TIP3   OH225825   4.381   1.489  14.085 -0.2687  0.2839 -0.5732
 1445TIP3    H125826   4.475   1.507  14.095 -0.2896 -0.0104  0.1616
 1445TIP3    H225827   4.376   1.395  14.070 -0.4143  0.3786 -1.1661
 1446TIP3   OH225828   0.140   2.867   3.573  0.0475 -0.2646 -0.1300
 1446TIP3    H125829   0.206   2.914   3.625 -0.3532 -0.4319  0.5411
 1446TIP3    H225830   0.162   2.775   3.586  0.7179 -0.2835 -1.2905
 1447TIP3   OH225831   1.223   4.385   6.475  0.2108  1.0465  0.0607
 1447TIP3    H125832   1.309   4.344   6.482 -1.0014 -1.5646  1.2022
 1447TIP3    H225833   1.209   4.397   6.381  0.8908 -0.7451 -0.3164
 1448TIP3   OH225834   5.615   2.500   3.253 -1.2826 -0.8022 -0.1208
 1448TIP3    H125835   5.684   2.545   3.205 -1.2387 -1.0627 -0.3021
 1448TIP3    H225836   5.610   2.413   3.214 -3.2083 -0.1130 -1.5977
 1449TIP3   OH225837   6.584   4.881  11.655  0.0183  0.3435 -0.1538
 1449TIP3    H125838   6.648   4.942  11.618 -0.9101  0.5458 -1.4948
 1449TIP3    H225839   6.541   4.842  11.579 -1.5906  0.3570  0.7093
 1450TIP3   OH225840   4.064   2.713   3.545 -0.2233  0.3274  0.2957
 1450TIP3    H125841   4.127   2.780   3.520 -0.2383  0.4777  0.6579
 1450TIP3    H225842   3.985   2.762   3.568 -1.1025  0.0717 -1.9137
 1451TIP3   OH225843   5.431   1.097   2.939  0.0981  0.8969 -0.3410
 1451TIP3    H125844   5.359   1.073   2.881 -0.2682  1.1469  0.0103
 1451TIP3    H225845   5.509   1.063   2.895 -0.1455  1.3133 -1.1079
 1452TIP3   OH225846   0.488   2.793  16.732 -0.2132  0.0458 -0.3514
 1452TIP3    H125847   0.561   2.834  16.685 -0.7554 -0.1088 -1.3370
 1452TIP3    H225848   0.436   2.866  16.764 -0.5371  0.1382 -1.0902
 1453TIP3   OH225849   1.323   2.516   0.244  0.5038  0.0605  0.2338
 1453TIP3    H125850   1.301   2.599   0.285 -1.8520 -1.6861  2.8966
 1453TIP3    H225851   1.332   2.455   0.317 -0.2744 -2.5220 -1.6807
 1454TIP3   OH225852   5.865   1.811   4.205  0.1214  0.3255 -0.3559
 1454TIP3    H125853   5.803   1.772   4.142  0.5312  2.1962 -1.9970
 1454TIP3    H225854   5.951   1.794   4.168  0.4004  0.9578 -0.0137
 1455TIP3   OH225855   3.596   1.612   4.306 -0.0483  0.6832  0.0720
 1455TIP3    H125856   3.681   1.638   4.342  0.2682 -0.8140  0.4914
 1455TIP3    H225857   3.564   1.546   4.368 -0.9933  0.4079 -0.6956
 1456TIP3   OH225858   2.526   5.660   6.274 -0.1583  0.1876  0.6709
 1456TIP3    H125859   2.581   5.583   6.282 -0.0063  0.1471 -0.5678
 1456TIP3    H225860   2.478   5.665   6.357 -0.2704 -1.3092  0.7109
 1457TIP3   OH225861   6.707   3.750  16.210  0.1298  0.7026  0.0796
 1457TIP3    H125862   6.766   3.796  16.149 -0.0776 -1.0076 -1.5227
 1457TIP3    H225863   6.625   3.742  16.162  0.1100 -1.1470  0.3448
 1458TIP3   OH225864   5.231   3.286   5.045  0.3565  0.1568  0.4478
 1458TIP3    H125865   5.296   3.260   5.110 -0.6325 -0.3085  1.2962
 1458TIP3    H225866   5.235   3.381   5.042  0.3564  0.1878  1.2777
 1459TIP3   OH225867   3.296   5.435   1.551  0.2194 -0.0421  0.0261
 1459TIP3    H125868   3.284   5.451   1.457 -0.1255 -3.1803 -0.5696
 1459TIP3    H225869   3.362   5.499   1.577 -0.6988  1.9034 -1.9638
 1460TIP3   OH225870   4.504   2.562  10.574 -0.8744 -0.5281  0.2391
 1460TIP3    H125871   4.432   2.499  10.573 -0.6290 -0.8264 -1.2087
 1460TIP3    H225872   4.502   2.600  10.662 -2.4323 -0.9374  0.4049
 1461TIP3   OH225873   1.744   5.548   3.828  0.5273  0.3890 -0.0708
 1461TIP3    H125874   1.816   5.485   3.821  1.5851  1.3659  1.3963
 1461TIP3    H225875   1.783   5.632   3.806  0.2541  1.1696  2.1463
 1462TIP3   OH225876   5.491   3.555   3.992 -0.4931 -0.1394  0.1434
 1462TIP3    H125877   5.428   3.498   3.948 -1.5948  1.4005 -0.3669
 1462TIP3    H225878   5.543   3.593   3.922 -0.4092  0.2207  0.3995
 1463TIP3   OH225879   5.527   2.788  12.508  0.1806  0.0800 -0.2009
 1463TIP3    H125880   5.505   2.699  12.536  2.7627 -0.7834 -0.6353
 1463TIP3    H225881   5.444   2.834  12.508 -1.5369 -2.7334 -1.4294
 1464TIP3   OH225882   1.761   2.261   5.768 -0.2960 -0.2140  0.4402
 1464TIP3    H125883   1.836   2.208   5.742  0.3267  0.6681  0.3868
 1464TIP3    H225884   1.767   2.266   5.864 -1.4321 -1.7736  0.6331
 1465TIP3   OH225885   6.036   1.010   4.217  0.1725 -0.3728 -0.1665
 1465TIP3    H125886   6.055   0.941   4.153 -1.6919 -0.2800 -0.8839
 1465TIP3    H225887   6.099   1.079   4.197  1.5442 -1.5150  0.0433
 1466TIP3   OH225888   4.505   6.454   2.056  0.5666 -0.1933 -0.2006
 1466TIP3    H125889   4.590   6.435   2.098  0.9983 -2.4056 -1.8950
 1466TIP3    H225890   4.457   6.372   2.062 -0.7179  0.4780 -0.9677
 1467TIP3   OH225891   5.175   0.682  12.159  0.3658 -0.3404 -0.1216
 1467TIP3    H125892   5.131   0.742  12.099  0.8877  0.1635 -0.0098
 1467TIP3    H225893   5.220   0.619  12.102  0.2015 -0.3447 -0.2470
 1468TIP3   OH225894   2.756   0.235   1.184 -0.1975  0.1392  0.5395
 1468TIP3    H125895   2.835   0.246   1.237 -0.1337 -1.2916  0.7900
 1468TIP3    H225896   2.685   0.237   1.247 -0.3930  1.4170  0.3146
 1469TIP3   OH225897   2.488   4.759   0.727 -0.0680  0.3523  0.2344
 1469TIP3    H125898   2.530   4.843   0.746 -1.3574  0.8474  1.0202
 1469TIP3    H225899   2.431   4.743   0.802 -2.2024  0.3165 -1.2971
 1470TIP3   OH225900   5.566   0.864  13.421  0.1511  0.4044  0.2707
 1470TIP3    H125901   5.526   0.858  13.507  2.1648 -0.7827  1.2086
 1470TIP3    H225902   5.659   0.877  13.439  0.3915  1.9825 -1.7578
 1471TIP3   OH225903   2.760   5.617   0.751 -0.3607 -0.3094 -0.3601
 1471TIP3    H125904   2.726   5.703   0.728  0.4068  0.2093  0.3840
 1471TIP3    H225905   2.845   5.611   0.706  0.2534 -0.0706  0.7182
 1472TIP3   OH225906   3.068   5.288  15.473  0.1154 -0.2843 -0.1959
 1472TIP3    H125907   3.074   5.341  15.553 -0.5255  0.5759 -0.6989
 1472TIP3    H225908   3.121   5.210  15.492  1.0226  0.4977  0.5922
 1473TIP3   OH225909   6.140   1.412   4.702  0.5287 -0.0307 -0.5041
 1473TIP3    H125910   6.232   1.425   4.724  0.5599  1.4272 -1.3919
 1473TIP3    H225911   6.106   1.500   4.685 -0.7684 -0.6331 -1.1978
 1474TIP3   OH225912   0.947   6.406   4.162 -0.0471  0.3185 -0.1970
 1474TIP3    H125913   0.919   6.468   4.094 -3.0847  1.1413  1.6077
 1474TIP3    H225914   0.896   6.327   4.145  0.3313 -0.0211  0.2275
 1475TIP3   OH225915   5.852   1.004   1.050 -0.2486 -0.0104 -0.4870
 1475TIP3    H125916   5.890   1.002   1.137  1.0307  1.1535 -0.9909
 1475TIP3    H225917   5.894   0.933   1.003  1.1096  1.0567 -0.9387
 1476TIP3   OH225918   6.653   4.138   2.559  0.3052 -0.3021  0.3345
 1476TIP3    H125919   6.612   4.086   2.627  0.7371 -2.2741 -0.8467
 1476TIP3    H225920   6.746   4.142   2.584  0.5130 -1.2572 -0.2532
 1477TIP3   OH225921   5.626   4.838   2.194 -0.5451 -0.3854 -0.0668
 1477TIP3    H125922   5.662   4.857   2.281 -2.1800  3.4393 -0.0069
 1477TIP3    H225923   5.689   4.877   2.134 -0.1646 -1.7124 -0.5551
 1478TIP3   OH225924   2.323   1.612  13.414  0.0188  0.1235  0.5953
 1478TIP3    H125925   2.235   1.599  13.449 -0.0122  1.1776  0.9659
 1478TIP3    H225926   2.360   1.681  13.469  0.3464  1.0883 -0.7839
 1479TIP3   OH225927   0.294   0.112   5.115  0.3074  0.3418 -0.2223
 1479TIP3    H125928   0.308   0.025   5.078  0.7423 -0.2646  1.2921
 1479TIP3    H225929   0.247   0.160   5.047 -0.3391 -1.2185 -0.9156
 1480TIP3   OH225930   2.964   2.870  12.484  0.1600  0.5751 -0.1480
 1480TIP3    H125931   2.880   2.825  12.480  0.4306  0.0288  0.0928
 1480TIP3    H225932   2.948   2.948  12.537 -0.2869  0.6947 -0.4583
 1481TIP3   OH225933   2.677   4.005   1.973 -0.3163  0.0516 -0.1416
 1481TIP3    H125934   2.673   4.067   1.900  0.1766  2.0959  1.4856
 1481TIP3    H225935   2.717   4.054   2.045 -0.5566 -1.9530  1.4592
 1482TIP3   OH225936   1.426   0.609   2.955 -0.1966 -0.2056 -0.2620
 1482TIP3    H125937   1.350   0.637   3.005  0.0667 -2.5711  1.6483
 1482TIP3    H225938   1.446   0.521   2.988  2.9816  0.0557 -1.0997
 1483TIP3   OH225939   2.118   4.884   0.570 -0.0783 -0.0688 -0.4749
 1483TIP3    H125940   2.025   4.907   0.569  0.5535  2.9155 -0.6501
 1483TIP3    H225941   2.156   4.936   0.498  1.9663  0.1233  0.6816
 1484TIP3   OH225942   4.835   1.988   2.777  0.4578  0.0572  0.1420
 1484TIP3    H125943   4.792   2.067   2.745 -0.5895 -0.1583  0.9598
 1484TIP3    H225944   4.876   1.950   2.700  1.0664  1.4395 -0.2497
 1485TIP3   OH225945   5.234   5.155   6.366 -0.4454 -0.4869  0.0754
 1485TIP3    H125946   5.222   5.164   6.461  1.2151 -0.3813  0.3052
 1485TIP3    H225947   5.226   5.062   6.350 -0.4447 -0.5406  0.3713
 1486TIP3   OH225948   1.035   1.624   1.758  0.5903 -0.2229  0.1945
 1486TIP3    H125949   0.940   1.616   1.755  0.4097  1.7692 -0.5956
 1486TIP3    H225950   1.055   1.635   1.851  0.2250 -1.9467  0.5197
 1487TIP3   OH225951   2.332   0.506  16.947  0.0418 -0.2453 -0.1228
 1487TIP3    H125952   2.283   0.532  16.869  1.4843  0.4029 -0.8558
 1487TIP3    H225953   2.361   0.589  16.986  0.7061 -0.6113  0.1821
 1488TIP3   OH225954   1.033   1.028  15.317  0.1186 -0.1113 -0.8013
 1488TIP3    H125955   1.001   0.956  15.371  1.5919 -0.8299 -0.8288
 1488TIP3    H225956   1.020   1.106  15.371 -1.7037 -0.3415 -0.8644
 1489TIP3   OH225957   2.590   6.620   1.799  0.0751  0.1581 -0.1689
 1489TIP3    H125958   2.569   6.681   1.870 -0.1828 -0.9667  0.7475
 1489TIP3    H225959   2.549   6.659   1.721 -1.2075  0.4896  0.6508
 1490TIP3   OH225960   5.794   2.227   1.204  1.0580  0.0135 -0.0590
 1490TIP3    H125961   5.793   2.294   1.135 -2.2855  0.0908 -0.0762
 1490TIP3    H225962   5.788   2.277   1.285 -0.1432 -0.1688 -0.0128
 1491TIP3   OH225963   1.141   5.271   5.685 -0.2801  0.4169  0.0629
 1491TIP3    H125964   1.124   5.223   5.766  1.7636  0.4857  0.5968
 1491TIP3    H225965   1.127   5.363   5.708  1.7522  0.5860  0.8389
 1492TIP3   OH225966   5.502   1.270  15.633 -0.0955  0.1496  0.2063
 1492TIP3    H125967   5.494   1.174  15.638  0.6466  0.0946  0.4384
 1492TIP3    H225968   5.575   1.285  15.573 -0.6621  0.5921 -0.3878
 1493TIP3   OH225969   4.523   0.485   6.230 -0.2191 -0.5266 -0.2412
 1493TIP3    H125970   4.432   0.461   6.246 -0.1824  0.2095  1.2211
 1493TIP3    H225971   4.566   0.475   6.315  0.1486  3.0227  0.1551
 1494TIP3   OH225972   2.812   4.145   2.160 -0.1630 -0.3792 -0.3206
 1494TIP3    H125973   2.882   4.125   2.223 -0.8658  0.2834  0.6942
 1494TIP3    H225974   2.840   4.227   2.120  0.1058 -0.6149 -0.6259
 1495TIP3   OH225975   6.583   0.838  17.328 -0.0466  0.7608  0.2263
 1495TIP3    H125976   6.579   0.885  17.244 -3.2033  1.9656  0.8825
 1495TIP3    H225977   6.619   0.752  17.306 -1.2511  0.8526 -2.5163
 1496TIP3   OH225978   6.307   5.143  14.788  0.0362  0.3243  0.0231
 1496TIP3    H125979   6.365   5.202  14.836 -0.5776  1.8393 -1.0068
 1496TIP3    H225980   6.352   5.058  14.790  0.4116  0.5032  2.5240
 1497TIP3   OH225981   6.517   6.453   3.996  0.2048  0.2900 -0.0535
 1497TIP3    H125982   6.603   6.493   4.011  0.9839 -1.8269  1.7254
 1497TIP3    H225983   6.454   6.520   4.024  1.2937  1.4747 -0.3328
 1498TIP3   OH225984   2.693   0.091  15.759  0.4686 -0.0515 -0.5010
 1498TIP3    H125985   2.645   0.092  15.676 -0.8008  1.3033  0.2092
 1498TIP3    H225986   2.659   0.165  15.808  1.6719 -0.4227  0.9869
 1499TIP3   OH225987   6.400   2.335   0.975  0.3988  0.9773  0.1207
 1499TIP3    H125988   6.332   2.273   1.000  1.4977  0.0386  0.8688
 1499TIP3    H225989   6.397   2.403   1.043  1.6299 -0.1994  1.3999
 1500TIP3   OH225990   6.083   3.900   4.761 -0.4893 -0.3000  0.2038
 1500TIP3    H125991   6.155   3.856   4.715  0.2324  1.0159  0.0212
 1500TIP3    H225992   6.009   3.893   4.701  0.2300  0.7153 -0.8597
 1501TIP3   OH225993   6.107   3.141  12.827 -0.2419 -0.2131 -0.2951
 1501TIP3    H125994   6.151   3.067  12.869 -0.6616 -0.4127 -0.2002
 1501TIP3    H225995   6.020   3.108  12.806  0.2801 -0.4695 -2.3048
 1502TIP3   OH225996   5.679   6.497  11.042 -0.2090  0.0673  0.5310
 1502TIP3    H125997   5.642   6.411  11.061 -0.7772  0.2390  0.2403
 1502TIP3    H225998   5.763   6.479  11.000 -0.5994 -0.3556 -0.0894
 1503TIP3   OH225999   2.753   1.660  15.965  0.1838  0.4873  0.2081
 1503TIP3    H126000   2.755   1.734  16.025  0.7173  0.2923  0.4435
 1503TIP3    H226001   2.738   1.584  16.021 -0.2662  0.4099 -0.0180
 1504TIP3   OH226002   1.653   1.134   0.180  0.1109  0.4624  0.6035
 1504TIP3    H126003   1.663   1.107   0.271  2.3146  0.5244  0.4421
 1504TIP3    H226004   1.616   1.222   0.185 -0.5166  0.1693  1.3871
 1505TIP3   OH226005   2.040   2.331   6.310  0.3876  0.4120  0.3531
 1505TIP3    H126006   2.089   2.394   6.256 -1.1294 -0.4941 -2.2379
 1505TIP3    H226007   1.948   2.351   6.294 -0.1405 -0.7527  1.6482
 1506TIP3   OH226008   6.598   6.792  14.768  0.3728 -0.1503 -0.0560
 1506TIP3    H126009   6.614   6.700  14.747  0.3350 -0.0795 -0.4074
 1506TIP3    H226010   6.679   6.837  14.745 -0.3240  0.2288 -1.9639
 1507TIP3   OH226011   2.571   5.414   6.082 -0.1060 -0.9191 -0.5296
 1507TIP3    H126012   2.497   5.475   6.092  0.6646  0.2870 -1.8182
 1507TIP3    H226013   2.585   5.379   6.170 -2.0618 -1.0212 -0.2014
 1508TIP3   OH226014   1.788   2.889  17.258  0.4797  0.0864 -0.2569
 1508TIP3    H126015   1.876   2.854  17.270  0.5375  0.2500 -0.2022
 1508TIP3    H226016   1.764   2.863  17.169 -0.1417 -1.5539  0.3555
 1509TIP3   OH226017   2.775   4.179   0.540  0.7767  0.1121 -0.3531
 1509TIP3    H126018   2.685   4.199   0.513  0.5133  2.1483  1.7754
 1509TIP3    H226019   2.829   4.233   0.483  0.5825 -0.0065 -0.6566
 1510TIP3   OH226020   1.038   1.282  17.109 -0.2813  0.0924  0.1595
 1510TIP3    H126021   0.997   1.260  17.193 -0.7232 -0.8533 -0.2902
 1510TIP3    H226022   0.995   1.225  17.046 -2.0113  2.7286 -1.2432
 1511TIP3   OH226023   3.919   1.699  13.830  0.2269  0.1570 -0.6410
 1511TIP3    H126024   3.968   1.779  13.814  0.0353  0.4781  0.2976
 1511TIP3    H226025   3.984   1.637  13.865  0.2126  0.1748 -0.5828
 1512TIP3   OH226026   0.872   2.756   3.555  0.2769  0.2484 -0.0607
 1512TIP3    H126027   0.957   2.778   3.593 -0.7653  0.2555  2.4666
 1512TIP3    H226028   0.867   2.661   3.562 -0.4093  0.3437  1.0454
 1513TIP3   OH226029   3.680   3.097  16.356  0.2379  0.0028 -0.1317
 1513TIP3    H126030   3.696   3.041  16.432  0.4821  0.2759  0.0186
 1513TIP3    H226031   3.749   3.073  16.294  1.3666  1.2980  0.5776
 1514TIP3   OH226032   4.014   0.314  12.195 -0.2209  0.4014  0.0114
 1514TIP3    H126033   3.971   0.261  12.128 -1.7056  3.3560 -1.6286
 1514TIP3    H226034   4.104   0.322  12.164 -0.1653 -0.5368 -0.0973
 1515TIP3   OH226035   3.288   4.194   4.870  0.0959  0.1861 -0.0685
 1515TIP3    H126036   3.206   4.203   4.822  0.0522 -2.1587 -0.5356
 1515TIP3    H226037   3.355   4.187   4.802  0.4359  0.0185  0.2773
 1516TIP3   OH226038   5.126   6.651   3.264  0.3107 -0.2832 -0.3988
 1516TIP3    H126039   5.157   6.705   3.337 -0.6045 -0.4760  0.1641
 1516TIP3    H226040   5.145   6.561   3.292  0.4059 -0.3316 -0.6219
 1517TIP3   OH226041   1.988   0.813  16.632 -0.8133  0.3518  0.2738
 1517TIP3    H126042   2.017   0.795  16.542  0.7274 -2.9165  1.2766
 1517TIP3    H226043   2.028   0.897  16.653 -0.0552  0.5268 -1.6139
 1518TIP3   OH226044   1.352   4.846  15.016  0.9487 -0.4489  0.1935
 1518TIP3    H126045   1.305   4.772  14.979  1.8780 -0.4284 -1.0637
 1518TIP3    H226046   1.317   4.854  15.105 -1.3265 -0.5125 -0.6263
 1519TIP3   OH226047   1.402   6.751   2.754  0.1275  0.1027 -0.2329
 1519TIP3    H126048   1.310   6.772   2.764  0.4113  1.7392 -0.8086
 1519TIP3    H226049   1.405   6.687   2.682 -0.4879  0.7743 -0.8711
 1520TIP3   OH226050   3.817   6.745   0.683 -0.6471 -0.8668 -0.3418
 1520TIP3    H126051   3.750   6.677   0.679 -1.7081  0.0874  0.4044
 1520TIP3    H226052   3.896   6.700   0.713 -1.8809 -1.4365  2.3430
 1521TIP3   OH226053   5.331   5.337   4.530  0.1931 -0.6841  0.1802
 1521TIP3    H126054   5.386   5.383   4.466  1.2212 -1.6924  0.3045
 1521TIP3    H226055   5.241   5.351   4.500  0.5936 -0.0828 -0.7662
 1522TIP3   OH226056   1.925   0.492  17.180  0.4811  0.0208  0.5543
 1522TIP3    H126057   2.012   0.486  17.219 -0.2619 -0.9078  2.1850
 1522TIP3    H226058   1.874   0.426  17.226 -1.2633  1.0072  0.1298
 1523TIP3   OH226059   0.631   4.006   0.117 -0.4091  0.4541  0.4673
 1523TIP3    H126060   0.580   4.018   0.037 -1.9555 -4.3170  0.3772
 1523TIP3    H226061   0.722   4.012   0.088 -0.8907  2.3034 -0.8367
 1524TIP3   OH226062   1.179   4.616  11.078  0.2272 -0.2906  0.5346
 1524TIP3    H126063   1.146   4.583  10.994 -2.8677  0.7871  1.2011
 1524TIP3    H226064   1.245   4.681  11.055 -0.3419 -0.2470 -1.0493
 1525TIP3   OH226065   6.020   4.591  16.018 -0.6486  0.2436 -0.3926
 1525TIP3    H126066   5.996   4.635  16.099  2.7171 -1.5552  1.8727
 1525TIP3    H226067   5.995   4.499  16.032  3.0797 -0.8556  0.3999
 1526TIP3   OH226068   4.313   1.700   2.705 -0.1098  0.5196  0.4297
 1526TIP3    H126069   4.389   1.657   2.667 -0.1583  1.8765 -1.2885
 1526TIP3    H226070   4.277   1.635   2.766  1.5708 -0.6707  0.2172
 1527TIP3   OH226071   1.193   0.028  13.610 -0.1512  0.0919  0.3785
 1527TIP3    H126072   1.228   0.042  13.523 -2.1175  3.4234 -0.0603
 1527TIP3    H226073   1.259  -0.024  13.655  0.1463 -3.4240 -3.5278
 1528TIP3   OH226074   2.932   4.790  11.917 -0.1343  0.8119 -0.6850
 1528TIP3    H126075   2.951   4.879  11.947  2.3122  0.2923 -0.4745
 1528TIP3    H226076   2.943   4.736  11.995  1.0669  0.0529 -1.3521
 1529TIP3   OH226077   3.768   3.335   1.185  0.3353  0.3576  0.0519
 1529TIP3    H126078   3.848   3.322   1.237 -0.5259 -0.5949  1.2126
 1529TIP3    H226079   3.705   3.371   1.247 -0.2473  0.7499 -0.7564
 1530TIP3   OH226080   1.086   1.431   5.575  0.4503 -0.2210  0.0177
 1530TIP3    H126081   1.157   1.435   5.640 -1.0986 -0.6718  1.8085
 1530TIP3    H226082   1.111   1.496   5.509  1.3148  1.4221  1.8498
 1531TIP3   OH226083   2.591   0.215   5.699  0.4737  0.5188  0.0446
 1531TIP3    H126084   2.598   0.253   5.611  2.9488 -1.0539 -0.5451
 1531TIP3    H226085   2.660   0.149   5.702 -1.3805 -1.5270  2.1770
 1532TIP3   OH226086   3.672   6.334  12.829  0.0366 -0.1420 -0.0430
 1532TIP3    H126087   3.608   6.382  12.883 -1.2607  1.9304 -3.1270
 1532TIP3    H226088   3.737   6.400  12.807  0.0026 -0.6466 -1.7393
 1533TIP3   OH226089   1.485   5.517   3.714  0.1654 -0.5033 -0.0801
 1533TIP3    H126090   1.579   5.507   3.728  0.2736 -1.2220 -1.1214
 1533TIP3    H226091   1.466   5.458   3.640 -1.3620 -1.4726  1.0330
 1534TIP3   OH226092   4.091   2.141   4.647  0.1419  0.3653 -0.1105
 1534TIP3    H126093   4.127   2.139   4.736  0.1701 -0.5732 -0.1288
 1534TIP3    H226094   4.001   2.169   4.658 -0.6549 -2.1979  0.5456
 1535TIP3   OH226095   5.527   0.350  11.432  0.1533 -0.1873 -0.0000
 1535TIP3    H126096   5.479   0.270  11.453 -0.1505 -0.4081 -1.4370
 1535TIP3    H226097   5.468   0.421  11.456  0.1467 -0.3946  0.6217
 1536TIP3   OH226098   3.911   4.226   5.715  0.3552  0.0905  0.5505
 1536TIP3    H126099   3.882   4.135   5.712 -0.7281  0.4083  0.9132
 1536TIP3    H226100   3.969   4.235   5.640  1.2607 -1.1557  1.0757
 1537TIP3   OH226101   0.041   3.500   4.929 -0.6181 -0.1687 -0.4989
 1537TIP3    H126102  -0.013   3.482   4.852 -2.1336  3.3922 -0.4686
 1537TIP3    H226103  -0.020   3.503   5.002 -0.5777  3.5174 -0.3936
 1538TIP3   OH226104   1.170   6.178   5.936 -0.0661  0.3305 -0.0593
 1538TIP3    H126105   1.248   6.137   5.973 -0.9994  0.6295  2.4312
 1538TIP3    H226106   1.165   6.264   5.978 -1.4537  0.5194 -0.5440
 1539TIP3   OH226107   1.844   1.567   2.445  1.0397  0.3408 -0.2014
 1539TIP3    H126108   1.818   1.516   2.369 -1.5194  0.7564  0.3216
 1539TIP3    H226109   1.883   1.647   2.408 -1.1094  1.0282 -1.1871
 1540TIP3   OH226110   6.045   4.229   3.811 -0.6184  0.5434 -0.3671
 1540TIP3    H126111   6.084   4.314   3.791  0.1425  0.5495  1.0313
 1540TIP3    H226112   6.075   4.172   3.740  1.1451  0.7986  0.1229
 1541TIP3   OH226113   0.702   0.399  12.958 -0.4351 -0.5661  0.0216
 1541TIP3    H126114   0.635   0.442  12.905  0.2072 -0.2501 -0.5504
 1541TIP3    H226115   0.713   0.313  12.917 -1.0425 -0.9191  0.5898
 1542TIP3   OH226116   5.544   5.740   5.548  0.0450  0.2245  0.4067
 1542TIP3    H126117   5.616   5.679   5.566  1.7427  1.6530 -1.0893
 1542TIP3    H226118   5.568   5.820   5.594 -1.8205  0.0391  1.8025
 1543TIP3   OH226119   4.087   0.065  15.287  0.1985 -0.1838 -0.3698
 1543TIP3    H126120   4.074   0.150  15.330  1.8871 -0.3845  0.6369
 1543TIP3    H226121   4.128   0.011  15.354 -0.0488 -1.5458 -1.2746
 1544TIP3   OH226122   6.257   4.972  16.867  0.5762  0.2239 -0.4420
 1544TIP3    H126123   6.348   4.947  16.857  0.6101 -0.4370  1.1276
 1544TIP3    H226124   6.247   4.988  16.961 -0.9967 -0.0577 -0.5306
 1545TIP3   OH226125   3.625   3.523   0.909 -0.0772 -0.6047 -0.2183
 1545TIP3    H126126   3.545   3.572   0.891 -0.6334 -1.1411  0.7249
 1545TIP3    H226127   3.634   3.463   0.834  0.1761  0.3632 -0.9804
 1546TIP3   OH226128   1.324   1.321  14.417  0.1868 -0.4881 -0.2693
 1546TIP3    H126129   1.327   1.291  14.326 -1.0536 -0.4911 -0.3274
 1546TIP3    H226130   1.245   1.375  14.421  0.7737  0.3304  0.5708
 1547TIP3   OH226131   4.843   6.136   6.216  0.0216  0.0966  0.3010
 1547TIP3    H126132   4.894   6.174   6.288 -0.9014  1.0347  0.4685
 1547TIP3    H226133   4.864   6.191   6.141  1.4954 -1.2659 -0.3593
 1548TIP3   OH226134   6.778   1.162  13.468  0.0787  0.3396 -0.2171
 1548TIP3    H126135   6.720   1.183  13.541 -1.1474 -1.2514 -0.6666
 1548TIP3    H226136   6.834   1.091  13.501 -0.5141 -0.4221 -0.7826
 1549TIP3   OH226137   0.958   1.021   0.695  0.0348  0.1822 -0.6545
 1549TIP3    H126138   0.938   0.985   0.609 -2.5257 -1.8866  0.6374
 1549TIP3    H226139   1.038   0.974   0.722 -2.1116 -3.4211  0.1524
 1550TIP3   OH226140   4.698   6.339   2.918  0.1597 -0.2084 -0.4847
 1550TIP3    H126141   4.752   6.325   2.996  1.0887  1.7016 -0.7128
 1550TIP3    H226142   4.752   6.396   2.863 -1.5240  0.5698 -1.3753
 1551TIP3   OH226143   6.168   3.013  15.467  0.1757 -0.2528 -0.2527
 1551TIP3    H126144   6.195   3.090  15.517  0.0948 -0.4162  0.0426
 1551TIP3    H226145   6.084   3.038  15.428 -0.2777 -0.4980  0.5491
 1552TIP3   OH226146   3.151   4.679   1.639  0.4874  0.1068  0.6927
 1552TIP3    H126147   3.141   4.737   1.564 -1.5511  1.2829  1.7743
 1552TIP3    H226148   3.222   4.718   1.690  0.9126  0.1124  0.1089
 1553TIP3   OH226149   1.581   3.844   1.866 -0.8536  0.2714 -0.4144
 1553TIP3    H126150   1.615   3.860   1.778  0.4107  2.3987  0.3742
 1553TIP3    H226151   1.501   3.896   1.871  0.5961  2.5902  0.5283
 1554TIP3   OH226152   0.786   0.725  10.923  0.3404  0.5875  0.1729
 1554TIP3    H126153   0.821   0.783  10.855  1.0686 -1.5316 -1.3670
 1554TIP3    H226154   0.861   0.671  10.948 -0.1837  0.6263  1.9687
 1555TIP3   OH226155   0.676   3.790  14.781  0.0672  0.1701 -0.1826
 1555TIP3    H126156   0.605   3.762  14.839  0.6484  0.1696  0.5379
 1555TIP3    H226157   0.756   3.775  14.831  0.6532 -0.7142 -1.3376
 1556TIP3   OH226158   2.563   4.441   6.296 -0.1127  0.5007  0.2656
 1556TIP3    H126159   2.635   4.487   6.341  2.1395 -2.3230 -0.1763
 1556TIP3    H226160   2.601   4.358   6.269 -3.0186 -0.2659 -1.9235
 1557TIP3   OH226161   2.341   3.260   2.368  0.2672 -0.0824 -0.1706
 1557TIP3    H126162   2.341   3.177   2.320 -0.0007  0.6739 -1.5156
 1557TIP3    H226163   2.407   3.313   2.323 -0.3095  0.8096  0.0266
 1558TIP3   OH226164   6.245   1.929   2.732 -0.4615  0.2513  0.1254
 1558TIP3    H126165   6.223   1.898   2.820  0.4742  0.8968  0.6161
 1558TIP3    H226166   6.337   1.955   2.739 -0.0057 -0.8325 -1.3826
 1559TIP3   OH226167   4.769   5.076  11.985 -0.2508 -0.5752  0.9986
 1559TIP3    H126168   4.841   5.047  11.929  0.5426  2.4105  0.3194
 1559TIP3    H226169   4.695   5.020  11.959  1.2167 -2.2002  0.1316
 1560TIP3   OH226170   0.851   2.972  12.651  0.6750  0.0128 -0.3743
 1560TIP3    H126171   0.855   2.991  12.745 -0.0176  1.3067 -0.5739
 1560TIP3    H226172   0.941   2.950  12.627  0.6268 -1.6844  0.8272
 1561TIP3   OH226173   4.797   2.331  16.063  0.3317 -0.0512 -0.0901
 1561TIP3    H126174   4.833   2.344  15.975  2.2316  3.6805  1.0297
 1561TIP3    H226175   4.722   2.390  16.067 -0.4163 -1.0040  0.5326
 1562TIP3   OH226176   2.325   5.936  13.077  0.3763 -0.2166 -0.2629
 1562TIP3    H126177   2.229   5.941  13.081  0.3627 -0.0911 -0.6930
 1562TIP3    H226178   2.354   6.026  13.090  0.5119 -0.4935  1.5839
 1563TIP3   OH226179   3.379   3.333  11.853  0.2018 -0.3015 -0.4267
 1563TIP3    H126180   3.398   3.414  11.900 -0.0906  1.2096 -2.7692
 1563TIP3    H226181   3.288   3.314  11.874 -0.4848  1.3616 -1.7355
 1564TIP3   OH226182   6.155   3.746  15.227  0.0429 -0.0318  0.3225
 1564TIP3    H126183   6.156   3.657  15.264 -1.3333  0.4190  1.5320
 1564TIP3    H226184   6.217   3.795  15.281 -1.2911  0.4006  1.5285
 1565TIP3   OH226185   4.296   3.930  14.117  0.0659 -0.0266  0.2312
 1565TIP3    H126186   4.326   3.963  14.201  0.5378 -0.2449  0.1510
 1565TIP3    H226187   4.359   3.963  14.053  0.2043 -0.5813  0.0749
 1566TIP3   OH226188   1.254   2.396   5.266 -0.5029  0.0304  0.0897
 1566TIP3    H126189   1.311   2.425   5.337 -2.0393  0.4965  1.1903
 1566TIP3    H226190   1.171   2.443   5.281 -1.3429 -0.9848 -1.1450
 1567TIP3   OH226191   1.315   4.048  12.897 -0.5640  0.8176  0.1100
 1567TIP3    H126192   1.405   4.023  12.876 -1.0114  0.4697 -1.5261
 1567TIP3    H226193   1.297   4.006  12.981  0.6660  0.5717  0.2655
 1568TIP3   OH226194   4.178   1.422   1.203 -0.6978 -0.0054 -0.3478
 1568TIP3    H126195   4.105   1.385   1.254 -0.7832 -0.1037 -0.5392
 1568TIP3    H226196   4.241   1.450   1.269 -1.0668  0.4080 -0.1642
 1569TIP3   OH226197   1.105   5.714  13.107 -0.3181  0.1966 -0.3329
 1569TIP3    H126198   1.044   5.681  13.041  0.1316  1.0345 -1.1959
 1569TIP3    H226199   1.052   5.775  13.159 -0.5635 -0.1436 -0.1762
 1570TIP3   OH226200   1.426   2.848   6.019 -0.1750  0.2382  0.4448
 1570TIP3    H126201   1.357   2.809   6.073  0.5112 -1.9140 -0.1242
 1570TIP3    H226202   1.477   2.901   6.080 -0.8853 -0.1192  1.3802
 1571TIP3   OH226203   2.666   3.739   1.351 -0.1453 -0.1296 -0.0658
 1571TIP3    H126204   2.757   3.714   1.336  0.8221  2.4544  0.9455
 1571TIP3    H226205   2.633   3.767   1.266  0.6527  0.7478 -0.0991
 1572TIP3   OH226206   1.148   5.885  12.858 -0.2094  0.1369 -0.2524
 1572TIP3    H126207   1.127   5.814  12.797 -0.9358 -0.2713  0.4576
 1572TIP3    H226208   1.063   5.922  12.881  0.0836  0.4840  0.2911
 1573TIP3   OH226209   0.974   3.086   3.100  0.7259 -0.5073  0.3535
 1573TIP3    H126210   0.995   3.090   3.007 -0.4887 -2.3402 -0.0625
 1573TIP3    H226211   1.057   3.067   3.143  1.1629 -0.4409 -0.4395
 1574TIP3   OH226212   3.566   4.351  11.391  0.3773 -0.3062  0.0883
 1574TIP3    H126213   3.656   4.339  11.421  0.6281 -1.0023 -0.8878
 1574TIP3    H226214   3.554   4.446  11.389  0.6099 -0.2266  1.5625
 1575TIP3   OH226215   4.368   4.808  14.189  0.2793  0.0702  0.0985
 1575TIP3    H126216   4.370   4.849  14.276  0.0077  1.3214 -0.4647
 1575TIP3    H226217   4.276   4.785  14.176  0.3354 -0.2008  0.1729
 1576TIP3   OH226218   5.405   5.565  16.696  0.4679 -0.3185 -0.0325
 1576TIP3    H126219   5.425   5.575  16.789  3.1578  0.8121 -0.6606
 1576TIP3    H226220   5.310   5.580  16.690  0.5926  1.9591  2.2263
 1577TIP3   OH226221   6.384   2.936  10.656 -0.0113 -0.1111 -0.3596
 1577TIP3    H126222   6.474   2.960  10.631  0.2110  0.8203  1.1898
 1577TIP3    H226223   6.331   3.011  10.628 -0.6622 -1.4383 -2.9554
 1578TIP3   OH226224   1.331   5.000  16.090 -0.2862  0.0864  1.0317
 1578TIP3    H126225   1.378   4.945  16.028 -1.1693 -1.1295  1.4075
 1578TIP3    H226226   1.396   5.021  16.157  1.1761  2.8159 -1.0434
 1579TIP3   OH226227   5.746   1.006  16.405 -0.4458  0.3743  1.0224
 1579TIP3    H126228   5.793   1.062  16.344  0.8575  0.7702  2.3275
 1579TIP3    H226229   5.670   0.975  16.356  2.0729 -1.8310 -1.8707
 1580TIP3   OH226230   0.117   0.198   4.730  0.8366 -0.2061 -0.2354
 1580TIP3    H126231   0.061   0.181   4.654  1.7737  0.3782 -1.0766
 1580TIP3    H226232   0.164   0.279   4.708  0.8464  0.1842  1.1336
 1581TIP3   OH226233   6.296   1.068  10.576  0.0648  0.0652 -0.3883
 1581TIP3    H126234   6.248   1.013  10.514 -0.0030  0.8037 -1.0013
 1581TIP3    H226235   6.352   1.007  10.624 -1.6128 -0.8661  0.4855
 1582TIP3   OH226236   3.231   2.959  13.304 -0.3609  0.3833 -0.2823
 1582TIP3    H126237   3.232   3.022  13.376 -0.4737  0.7647 -0.6069
 1582TIP3    H226238   3.139   2.933  13.297 -0.4696  0.8605 -0.7195
 1583TIP3   OH226239   5.723   3.637   1.917  0.1997  0.0233 -0.1736
 1583TIP3    H126240   5.653   3.634   1.851  1.8935 -0.1757 -2.0802
 1583TIP3    H226241   5.803   3.622   1.867  1.6071 -0.0027  1.9577
 1584TIP3   OH226242   6.228   3.671  17.031  0.3236 -0.0016 -0.3882
 1584TIP3    H126243   6.287   3.597  17.017  0.8186  0.5088 -1.0282
 1584TIP3    H226244   6.253   3.706  17.116  0.7876  0.0716 -0.5556
 1585TIP3   OH226245   5.585   6.526  12.858 -0.3412  0.3852 -0.1594
 1585TIP3    H126246   5.638   6.599  12.826 -0.2637 -0.4797 -2.1395
 1585TIP3    H226247   5.535   6.563  12.931  1.9441  1.5880  0.9101
 1586TIP3   OH226248   1.825   5.134  14.474  0.0415  0.1277  0.7432
 1586TIP3    H126249   1.886   5.207  14.484  0.6507 -0.1865 -0.5614
 1586TIP3    H226250   1.856   5.068  14.536 -0.6128  1.0131  2.0548
 1587TIP3   OH226251   0.019   4.961   2.553  0.3228 -0.3325  0.0543
 1587TIP3    H126252  -0.042   4.920   2.615 -0.1464  0.7702  0.3489
 1587TIP3    H226253  -0.027   5.040   2.523  1.1535 -0.0735 -0.5746
 1588TIP3   OH226254   1.723   0.366   4.921 -0.0137 -0.0419 -0.1944
 1588TIP3    H126255   1.751   0.445   4.875 -0.6790  0.1141 -0.3542
 1588TIP3    H226256   1.793   0.303   4.908 -0.3756 -0.1568 -1.8135
 1589TIP3   OH226257   2.286   4.285   5.547 -0.2636 -0.2891 -0.5895
 1589TIP3    H126258   2.220   4.232   5.503 -0.5056 -1.0527  0.6313
 1589TIP3    H226259   2.335   4.222   5.601 -0.3370  0.6525  0.6282
 1590TIP3   OH226260   3.518   1.041   0.370 -0.1625 -0.0423 -0.3160
 1590TIP3    H126261   3.555   0.953   0.382  0.2020  0.1510 -0.0184
 1590TIP3    H226262   3.498   1.045   0.276 -2.6190 -1.4039  0.0562
 1591TIP3   OH226263   4.748   1.336  12.501 -0.2031  0.1548 -0.4950
 1591TIP3    H126264   4.664   1.301  12.471  0.5250 -0.4131 -1.9883
 1591TIP3    H226265   4.763   1.291  12.584 -0.5775 -1.0795 -1.0585
 1592TIP3   OH226266   6.149   3.162   4.853  0.0890  0.0778 -0.0492
 1592TIP3    H126267   6.213   3.159   4.924 -1.4174 -1.9067  1.3507
 1592TIP3    H226268   6.183   3.101   4.788  0.5348  0.4672 -0.1885
 1593TIP3   OH226269   2.056   2.498   3.686 -0.4637 -0.1322  0.4367
 1593TIP3    H126270   2.092   2.572   3.735 -0.4087  0.5174 -0.5516
 1593TIP3    H226271   1.962   2.513   3.687 -0.4438  0.0150  0.1405
 1594TIP3   OH226272   5.983   4.660  15.730 -0.3549  0.0084 -0.6371
 1594TIP3    H126273   5.958   4.664  15.823  0.9669  0.4792 -0.2808
 1594TIP3    H226274   6.006   4.569  15.715 -1.5576 -0.2825 -0.7833
 1595TIP3   OH226275   0.860   1.726   3.272 -0.1896 -0.1962 -0.1748
 1595TIP3    H126276   0.879   1.807   3.224 -0.0153  0.0472  0.2939
 1595TIP3    H226277   0.946   1.691   3.296 -0.1740  1.6741  3.2298
 1596TIP3   OH226278   4.061   0.683  14.057  0.1390  0.3832 -0.4704
 1596TIP3    H126279   4.045   0.674  13.963 -0.7139 -2.7338 -0.1113
 1596TIP3    H226280   4.012   0.762  14.082 -0.3403  0.7584 -2.4508
 1597TIP3   OH226281   3.663   6.392  14.397  0.1507 -0.5379  0.4269
 1597TIP3    H126282   3.706   6.308  14.412  0.0637 -0.8765 -1.0229
 1597TIP3    H226283   3.684   6.414  14.306 -1.3047  0.1111  0.2097
 1598TIP3   OH226284   3.463   2.856   4.294 -0.4458 -0.1911 -0.1302
 1598TIP3    H126285   3.445   2.789   4.360  0.1677  1.2720  1.6093
 1598TIP3    H226286   3.376   2.885   4.265 -0.7278 -0.8027  0.0885
 1599TIP3   OH226287   4.936   1.153  15.905 -0.4043 -0.0563 -0.4305
 1599TIP3    H126288   4.987   1.090  15.855  1.1691  0.0881  0.9138
 1599TIP3    H226289   4.934   1.232  15.850 -0.7072 -0.6227 -1.2498
 1600TIP3   OH226290   3.698   3.862   2.281 -0.3526  0.2001  0.1096
 1600TIP3    H126291   3.721   3.946   2.242 -3.3195  1.4746  0.7777
 1600TIP3    H226292   3.754   3.856   2.359  0.1745  1.3758 -0.1492
 1601TIP3   OH226293   4.921   5.438  12.585  0.0266  0.3306 -0.3514
 1601TIP3    H126294   4.932   5.345  12.563 -1.0837 -0.0723  0.7093
 1601TIP3    H226295   4.831   5.445  12.616  0.2054  1.7080 -0.0805
 1602TIP3   OH226296   3.723   3.038   6.767  0.5182 -0.1244  0.2829
 1602TIP3    H126297   3.782   2.984   6.715 -0.6945 -0.9815 -0.2390
 1602TIP3    H226298   3.644   3.046   6.713 -0.0573  0.5239  1.2020
 1603TIP3   OH226299   1.965   6.538   5.265 -0.0915 -0.3924 -0.4979
 1603TIP3    H126300   2.015   6.600   5.319  1.8868 -1.3189 -1.1544
 1603TIP3    H226301   1.928   6.591   5.194 -2.8072  0.8692  1.6617
 1604TIP3   OH226302   6.543   1.160   1.963 -0.1947 -0.0236  0.0606
 1604TIP3    H126303   6.454   1.179   1.933  0.2292  0.8179 -0.7054
 1604TIP3    H226304   6.543   1.182   2.056 -1.1420 -1.3070  0.4026
 1605TIP3   OH226305   0.086   5.603  10.737  0.1246  0.6065  0.1628
 1605TIP3    H126306  -0.000   5.642  10.750 -0.7460 -0.1352 -2.6518
 1605TIP3    H226307   0.130   5.661  10.675  0.3237 -0.7224 -0.9931
 1606TIP3   OH226308   5.112   2.059  16.668  0.1510  0.1258  0.2400
 1606TIP3    H126309   5.063   2.035  16.589 -0.5375  0.0959  0.6701
 1606TIP3    H226310   5.066   2.135  16.703  0.5211  0.2083  0.5577
 1607TIP3   OH226311   5.585   0.440  16.364 -0.3886 -0.4013  0.0558
 1607TIP3    H126312   5.511   0.383  16.342  0.5585 -3.0026  2.9174
 1607TIP3    H226313   5.566   0.472  16.452  1.8351 -1.1750  0.8965
 1608TIP3   OH226314   2.231   0.851  16.086 -0.3348  0.1917  0.1730
 1608TIP3    H126315   2.191   0.794  16.021  0.1955  0.2945 -0.2542
 1608TIP3    H226316   2.314   0.879  16.046 -0.9832  1.9735 -0.0003
 1609TIP3   OH226317   2.644   6.791  16.015  0.5197 -0.4334 -0.0890
 1609TIP3    H126318   2.630   6.886  16.017 -0.1741 -0.5359  0.2728
 1609TIP3    H226319   2.617   6.765  15.927 -1.2686 -0.5697  0.4724
 1610TIP3   OH226320   2.146   3.767   5.788 -0.6630 -0.4413  0.7005
 1610TIP3    H126321   2.081   3.778   5.718  0.6719  1.0733 -0.3808
 1610TIP3    H226322   2.197   3.690   5.762 -0.5421 -0.2321  0.3200
 1611TIP3   OH226323   0.063   0.146   3.896  0.1802  0.4938 -0.4444
 1611TIP3    H126324   0.042   0.154   3.803  2.9931  0.3054 -1.1807
 1611TIP3    H226325   0.078   0.236   3.925  1.4723  0.4069 -0.7822
 1612TIP3   OH226326   2.568   6.213  11.440 -0.3905 -0.1692 -0.4027
 1612TIP3    H126327   2.615   6.157  11.378  0.7929  0.3725 -0.0350
 1612TIP3    H226328   2.476   6.191  11.428  0.0152 -1.9057 -0.5208
 1613TIP3   OH226329   1.112   3.747   6.264  0.5696  0.4506 -0.6306
 1613TIP3    H126330   1.050   3.724   6.333  0.6543 -0.3255 -0.8061
 1613TIP3    H226331   1.198   3.736   6.305  0.6573 -1.0891 -1.1572
 1614TIP3   OH226332   5.783   0.695  10.354 -0.1239 -0.8004  0.3038
 1614TIP3    H126333   5.821   0.777  10.385 -2.4543 -0.1472  1.7006
 1614TIP3    H226334   5.693   0.718  10.328 -1.1113 -2.9960  1.4747
 1615TIP3   OH226335   5.285   3.376  12.246  0.6584  0.0550  0.6725
 1615TIP3    H126336   5.231   3.347  12.320  0.7105 -0.4840  0.5050
 1615TIP3    H226337   5.373   3.346  12.268  0.7142  0.0955  0.5024
 1616TIP3   OH226338   6.750   4.697   1.412  0.0347  0.2334 -0.0349
 1616TIP3    H126339   6.670   4.705   1.464  1.0915 -0.5386  1.8020
 1616TIP3    H226340   6.733   4.750   1.334 -1.9300  0.7778  0.6993
 1617TIP3   OH226341   1.472   2.789   1.748 -0.0314  0.5438 -0.2419
 1617TIP3    H126342   1.404   2.831   1.800  0.3146  0.4307  0.3166
 1617TIP3    H226343   1.425   2.730   1.689 -0.3327 -1.6837  2.0680
 1618TIP3   OH226344   2.261   5.084   1.466 -0.2883  0.1379  0.3440
 1618TIP3    H126345   2.232   5.173   1.487  0.1492 -0.1499  2.4735
 1618TIP3    H226346   2.204   5.028   1.519  1.2486 -0.6653  1.2059
 1619TIP3   OH226347   4.643   2.013  16.940  0.1600  0.4792 -0.1574
 1619TIP3    H126348   4.647   2.092  16.886 -1.1201  0.3538 -0.4670
 1619TIP3    H226349   4.558   1.974  16.920  0.5876 -0.7527  0.3180
 1620TIP3   OH226350   2.558   2.537   1.658 -0.3685 -0.3803 -0.0290
 1620TIP3    H126351   2.627   2.604   1.659 -0.9509  0.2372  0.6245
 1620TIP3    H226352   2.590   2.470   1.598 -0.4040  1.1664 -1.8800
 1621TIP3   OH226353   4.867   0.548   3.683  0.3594 -0.0084 -0.1939
 1621TIP3    H126354   4.816   0.538   3.763  0.6222 -1.1543 -0.1561
 1621TIP3    H226355   4.904   0.461   3.667  0.6979  0.3259 -1.2991
 1622TIP3   OH226356   2.940   4.069  12.843  0.2837 -0.7706 -0.1100
 1622TIP3    H126357   3.008   4.126  12.878  0.5316 -1.2320  0.1602
 1622TIP3    H226358   2.962   4.058  12.751  0.6170 -0.9822 -0.0049
 1623TIP3   OH226359   2.763   0.940  15.504 -0.0777 -0.2872  0.2720
 1623TIP3    H126360   2.711   0.944  15.584  1.0882 -1.8306  1.1733
 1623TIP3    H226361   2.831   0.876  15.523  0.1109 -0.8843 -2.0433
 1624TIP3   OH226362   0.574   2.998   2.448  0.0845 -0.1061  0.0988
 1624TIP3    H126363   0.533   2.913   2.463  0.5919 -0.3200  0.2995
 1624TIP3    H226364   0.502   3.060   2.451 -0.5794 -0.7006 -1.8326
 1625TIP3   OH226365   4.652   0.572   1.105  0.5274 -0.1184  0.1880
 1625TIP3    H126366   4.666   0.666   1.114 -0.4625  0.0676 -0.0770
 1625TIP3    H226367   4.565   0.565   1.067  0.5927 -1.1485  0.2128
 1626TIP3   OH226368   0.175   5.805   5.747 -0.3889 -0.6152  0.2695
 1626TIP3    H126369   0.260   5.844   5.727 -1.1844  1.6883  1.0062
 1626TIP3    H226370   0.184   5.774   5.837 -0.1404 -1.0076  0.1144
 1627TIP3   OH226371   4.671   4.141   0.577  0.0519  0.4239 -0.4225
 1627TIP3    H126372   4.635   4.187   0.500 -1.2203  0.0947 -0.0444
 1627TIP3    H226373   4.678   4.209   0.644  0.3771  0.5365 -0.5663
 1628TIP3   OH226374   0.524   1.293   1.803 -0.2866 -0.5922 -0.0380
 1628TIP3    H126375   0.465   1.233   1.758 -0.0493 -0.1325 -0.9851
 1628TIP3    H226376   0.482   1.378   1.796  0.4829 -0.2641 -0.7142
 1629TIP3   OH226377   1.614   1.206   2.423 -0.6272  0.5236  0.3030
 1629TIP3    H126378   1.672   1.279   2.402  0.9974 -0.6366  0.5296
 1629TIP3    H226379   1.613   1.152   2.344  1.0204 -0.9631  1.2162
 1630TIP3   OH226380   1.171   1.343   4.287 -0.4124  0.1208 -0.2236
 1630TIP3    H126381   1.177   1.274   4.221  2.1181  0.5084 -0.4976
 1630TIP3    H226382   1.152   1.423   4.236 -0.7415  0.0544 -0.2068
 1631TIP3   OH226383   5.602   1.684   2.061 -0.8826 -0.0029 -0.2241
 1631TIP3    H126384   5.641   1.674   2.148 -0.4497 -2.7320 -0.6411
 1631TIP3    H226385   5.508   1.691   2.079 -0.7821 -0.3166  0.4998
 1632TIP3   OH226386   5.500   5.838   5.903 -0.6427 -0.1197  0.2293
 1632TIP3    H126387   5.404   5.846   5.905 -0.9074 -0.9604 -3.1510
 1632TIP3    H226388   5.527   5.897   5.833  1.4184  0.3982  1.3798
 1633TIP3   OH226389   4.082   5.289  12.103  0.1281 -0.4305 -0.1642
 1633TIP3    H126390   4.024   5.365  12.101  1.6011  0.7792  1.2305
 1633TIP3    H226391   4.078   5.254  12.013 -0.6820  1.1793 -0.7984
 1634TIP3   OH226392   3.667   1.182  14.864  0.1737 -0.0587 -0.4054
 1634TIP3    H126393   3.760   1.195  14.879  0.6647 -1.9567 -1.4849
 1634TIP3    H226394   3.626   1.200  14.948  1.7136 -0.8456  0.5468
 1635TIP3   OH226395   4.033   2.416   4.138  0.4863 -0.4522  0.5496
 1635TIP3    H126396   4.021   2.441   4.230  1.9555 -0.7040  0.8418
 1635TIP3    H226397   4.085   2.336   4.142  0.8874 -0.2516 -0.5119
 1636TIP3   OH226398   2.322   4.270  15.690  0.4862 -0.2033 -0.0956
 1636TIP3    H126399   2.306   4.362  15.713  1.0176 -0.5823  1.9580
 1636TIP3    H226400   2.392   4.242  15.750  0.8139 -1.7719 -1.1487
 1637TIP3   OH226401   5.991   1.988  14.210  0.1439  0.4727  0.6095
 1637TIP3    H126402   6.047   2.026  14.277  0.8620  0.1782  0.1905
 1637TIP3    H226403   5.915   1.955  14.257  0.9475 -0.3341  1.3662
 1638TIP3   OH226404   1.645   6.268  11.989  0.0218 -0.0205 -0.1163
 1638TIP3    H126405   1.718   6.207  11.993  0.1201  0.0954 -0.1644
 1638TIP3    H226406   1.583   6.227  11.929 -0.9391 -1.2060  1.5806
 1639TIP3   OH226407   4.111   6.397   3.467 -0.3037 -0.2527 -0.4201
 1639TIP3    H126408   4.091   6.445   3.387 -0.0952 -4.6078 -3.4478
 1639TIP3    H226409   4.206   6.384   3.465 -0.4818 -1.7220 -0.3506
 1640TIP3   OH226410   4.521   3.400  16.560  0.2673 -0.1449 -0.1460
 1640TIP3    H126411   4.532   3.476  16.618 -1.2856  0.3470 -0.4478
 1640TIP3    H226412   4.543   3.325  16.614  1.6022  0.4769  0.2358
 1641TIP3   OH226413   1.297   6.553   0.458 -0.0404 -0.3231  0.6367
 1641TIP3    H126414   1.271   6.507   0.378  0.2446  0.6850 -0.0529
 1641TIP3    H226415   1.368   6.499   0.494  0.2972 -0.4324 -0.1582
 1642TIP3   OH226416   0.240   0.167  11.640  0.3188  0.6566 -0.2852
 1642TIP3    H126417   0.287   0.135  11.717 -1.5413 -0.0980  0.5865
 1642TIP3    H226418   0.291   0.134  11.566  1.7982  0.8661  0.5989
 1643TIP3   OH226419   5.712   0.860  14.074  0.2724 -0.2357 -1.0945
 1643TIP3    H126420   5.631   0.866  14.125  1.7558  0.5825  1.2854
 1643TIP3    H226421   5.697   0.918  13.999 -1.2676  0.0245 -0.6246
 1644TIP3   OH226422   4.062   4.615   5.717  0.2287 -0.4802 -0.3749
 1644TIP3    H126423   4.007   4.556   5.769 -1.2272  0.1865 -1.0852
 1644TIP3    H226424   4.072   4.570   5.633  0.3627 -0.3821 -0.4120
 1645TIP3   OH226425   3.459   6.426   3.553 -0.6175  0.5411  0.0177
 1645TIP3    H126426   3.377   6.477   3.549 -1.0923  0.0403  1.9841
 1645TIP3    H226427   3.524   6.481   3.509 -2.2322  0.3686 -2.8354
 1646TIP3   OH226428   1.091   6.326   0.699  0.0964 -0.4114 -0.1192
 1646TIP3    H126429   1.144   6.405   0.712  0.2130 -0.6371  0.8803
 1646TIP3    H226430   1.000   6.357   0.702  0.1328 -0.3645  0.7171
 1647TIP3   OH226431   1.915   5.080  16.398  0.2875  0.1176 -1.1498
 1647TIP3    H126432   1.954   5.118  16.476  1.8002 -0.7558 -1.4489
 1647TIP3    H226433   1.883   4.994  16.426  0.4718 -0.0343 -1.4124
 1648TIP3   OH226434   3.099   2.307   1.041 -0.3180 -0.6005  0.4704
 1648TIP3    H126435   3.095   2.245   0.968 -1.3787 -1.6841  1.4117
 1648TIP3    H226436   3.185   2.348   1.033  0.1636 -1.7510 -0.5247
 1649TIP3   OH226437   2.499   0.376  16.363 -0.1362  0.4235 -0.3245
 1649TIP3    H126438   2.465   0.451  16.315  1.1912  0.4516 -1.2677
 1649TIP3    H226439   2.487   0.302  16.304 -0.6008  0.0424  0.2356
 1650TIP3   OH226440   0.082   1.632  11.352  0.4556 -0.0564  0.6611
 1650TIP3    H126441   0.111   1.660  11.266 -0.2487 -0.4037  0.3027
 1650TIP3    H226442   0.012   1.694  11.375  1.7193  1.0774  1.7240
 1651TIP3   OH226443   3.756   0.041   4.159  0.2290 -0.0097  0.1667
 1651TIP3    H126444   3.717  -0.031   4.110 -0.1023 -0.4802  1.0835
 1651TIP3    H226445   3.848   0.018   4.167  0.4194  0.3817 -0.7534
 1652TIP3   OH226446   0.586   2.252   1.936 -0.5842 -0.2445  0.0271
 1652TIP3    H126447   0.503   2.278   1.976 -2.3152 -2.0276 -2.1848
 1652TIP3    H226448   0.614   2.175   1.986 -0.1689  0.3985  0.8182
 1653TIP3   OH226449   0.875   3.861   4.909  0.4290 -0.6481 -0.3312
 1653TIP3    H126450   0.939   3.799   4.875 -0.4785 -1.2439 -1.0111
 1653TIP3    H226451   0.792   3.812   4.909 -0.3654  0.6381 -1.1597
 1654TIP3   OH226452   3.923   6.709   5.181 -0.3822  0.1785 -0.3103
 1654TIP3    H126453   4.009   6.708   5.137  0.4187 -0.5260  1.2091
 1654TIP3    H226454   3.943   6.728   5.272 -1.6773 -1.6589  0.4032
 1655TIP3   OH226455   0.639   1.901  11.573 -0.3474 -0.1297 -0.0952
 1655TIP3    H126456   0.566   1.874  11.517 -1.7347 -0.9137  1.9735
 1655TIP3    H226457   0.623   1.993  11.591  1.1897  0.7015 -2.4422
 1656TIP3   OH226458   0.653   1.421   3.039  0.2918 -0.4510  0.3307
 1656TIP3    H126459   0.688   1.373   3.114  2.7972 -0.1384 -0.5235
 1656TIP3    H226460   0.719   1.409   2.970 -0.4590  1.7102 -0.8625
 1657TIP3   OH226461   5.796   2.349   1.463  0.4522  0.4275  0.2231
 1657TIP3    H126462   5.886   2.381   1.455  0.2715  0.8360 -0.2469
 1657TIP3    H226463   5.794   2.302   1.547  1.3100 -0.2866 -0.1453
 1658TIP3   OH226464   1.228   5.640   0.373  0.3703 -0.6988  0.2832
 1658TIP3    H126465   1.180   5.559   0.355  0.6294 -1.1949  1.7038
 1658TIP3    H226466   1.172   5.709   0.336 -0.6748 -1.3909  0.5077
 1659TIP3   OH226467   6.094   4.936   3.027 -0.0949 -0.0961  0.4266
 1659TIP3    H126468   6.151   4.869   3.065  0.1494  0.8060  1.7295
 1659TIP3    H226469   6.152   4.985   2.967  0.4458  0.6187  1.5061
 1660TIP3   OH226470   4.862   0.624  11.478  0.0186  0.2389  0.6424
 1660TIP3    H126471   4.929   0.689  11.500 -0.0885 -0.4026  3.2364
 1660TIP3    H226472   4.910   0.540  11.476  0.0298  0.2332 -1.9652
 1661TIP3   OH226473   1.731   6.053  13.672 -0.7609 -0.0013  0.2966
 1661TIP3    H126474   1.639   6.076  13.681 -0.8438 -0.6936  1.4204
 1661TIP3    H226475   1.731   5.958  13.657 -0.1693 -0.5328  3.1158
 1662TIP3   OH226476   0.353   6.232   1.844  0.4972 -0.0359  0.5854
 1662TIP3    H126477   0.429   6.178   1.823  0.3619 -0.3149  0.8105
 1662TIP3    H226478   0.277   6.178   1.819  0.3640  1.4107 -2.6039
 1663TIP3   OH226479   6.378   5.220  11.718  0.0824  0.1641 -0.0338
 1663TIP3    H126480   6.382   5.314  11.734 -1.6382  0.5759 -1.7533
 1663TIP3    H226481   6.448   5.203  11.655 -1.3656  0.8386 -1.8955
 1664TIP3   OH226482   1.104   2.091  16.718 -0.3223 -0.5930  0.6084
 1664TIP3    H126483   1.073   2.001  16.730 -1.4817 -0.1002  1.4838
 1664TIP3    H226484   1.162   2.086  16.642  0.9053 -2.3709  1.5806
 1665TIP3   OH226485   4.261   6.440   0.278 -0.0117  0.0420 -0.0559
 1665TIP3    H126486   4.328   6.507   0.290 -0.1849 -0.0381  1.6135
 1665TIP3    H226487   4.245   6.438   0.183  0.9587  1.3851 -0.2729
 1666TIP3   OH226488   4.190   2.248  12.993 -0.1124  0.3127 -0.0356
 1666TIP3    H126489   4.219   2.258  13.084 -1.1549  0.5776  0.2835
 1666TIP3    H226490   4.264   2.207  12.949  0.4889  0.3647  0.8888
 1667TIP3   OH226491   4.499   2.370   5.034 -0.2335 -0.2177 -0.0807
 1667TIP3    H126492   4.526   2.385   5.125  1.9094 -3.4256  0.0054
 1667TIP3    H226493   4.550   2.433   4.983 -1.8522  1.9794  0.8582
 1668TIP3   OH226494   1.654   0.361   0.186 -0.3361 -0.1892  0.3558
 1668TIP3    H126495   1.575   0.311   0.209  1.0736 -2.3567  0.7776
 1668TIP3    H226496   1.654   0.435   0.248 -0.9974 -1.2840  1.7126
 1669TIP3   OH226497   4.093   3.830   1.978 -0.1876 -0.0528  0.0523
 1669TIP3    H126498   4.180   3.871   1.976 -0.6427  0.9633  0.4213
 1669TIP3    H226499   4.034   3.900   2.007 -0.5691 -1.6899  3.7443
 1670TIP3   OH226500   5.522   6.087  14.702 -0.0603  0.2583  0.2437
 1670TIP3    H126501   5.540   6.100  14.795  0.9737 -0.1150  0.1009
 1670TIP3    H226502   5.521   5.992  14.690  1.4679  0.2899 -0.4167
 1671TIP3   OH226503   5.310   1.041  16.452  0.8167 -0.0867  0.4566
 1671TIP3    H126504   5.271   1.070  16.534  1.6186 -0.0375  0.8374
 1671TIP3    H226505   5.307   1.118  16.395 -4.5047 -1.3590 -1.5362
 1672TIP3   OH226506   5.156   2.972   3.323  0.1952  0.0411 -0.6791
 1672TIP3    H126507   5.080   2.991   3.378  0.2021 -1.4352 -0.0911
 1672TIP3    H226508   5.120   2.926   3.247  0.4532 -0.3583 -0.5654
 1673TIP3   OH226509   5.454   4.951   0.294 -0.0960  0.0250  0.0889
 1673TIP3    H126510   5.505   4.870   0.302 -0.5816 -0.3502 -0.5019
 1673TIP3    H226511   5.519   5.021   0.296  0.5350 -0.4848 -1.4582
 1674TIP3   OH226512   2.694   0.064  12.603  0.4349 -0.4153 -0.3960
 1674TIP3    H126513   2.658   0.045  12.516 -0.4837 -1.8262  0.2513
 1674TIP3    H226514   2.618   0.086  12.656  1.0923  1.4227 -0.1591
 1675TIP3   OH226515   2.017   1.889  13.264 -1.0243  0.2827  0.3604
 1675TIP3    H126516   1.967   1.961  13.225  1.2023  2.6262  1.5600
 1675TIP3    H226517   2.084   1.868  13.199 -0.7313  0.3405  0.6446
 1676TIP3   OH226518   3.493   3.880  12.415  0.2562 -0.0909  0.3948
 1676TIP3    H126519   3.524   3.872  12.325  0.7299  1.9993  0.3190
 1676TIP3    H226520   3.571   3.906  12.465 -0.1586 -0.4923  1.2741
 1677TIP3   OH226521   2.754   5.972   6.079  0.0114 -0.1169 -0.3231
 1677TIP3    H126522   2.810   5.916   6.133  0.4277 -0.2687 -0.9182
 1677TIP3    H226523   2.784   5.959   5.990  0.9180  1.9630 -0.3827
 1678TIP3   OH226524   2.384   5.264  12.418  0.4970 -0.4595 -0.3392
 1678TIP3    H126525   2.471   5.246  12.454  0.7608  0.2522 -0.6009
 1678TIP3    H226526   2.352   5.179  12.388  0.7495 -0.8724  0.5306
 1679TIP3   OH226527   3.482   5.013   1.629 -0.0811  0.4110 -0.0495
 1679TIP3    H126528   3.396   5.039   1.596 -1.1745 -0.8625  1.6578
 1679TIP3    H226529   3.483   5.042   1.720  1.1311  0.0101  0.0876
 1680TIP3   OH226530   3.909   4.533   6.268 -0.1255  0.5178  0.1426
 1680TIP3    H126531   3.931   4.449   6.229 -3.5472 -0.1314 -0.7294
 1680TIP3    H226532   3.957   4.534   6.351  0.2402 -2.1697  0.0533
 1681TIP3   OH226533   0.305   2.460  12.724  0.3322 -0.4996 -0.0922
 1681TIP3    H126534   0.299   2.510  12.643 -2.0625 -0.5209  0.0181
 1681TIP3    H226535   0.337   2.523  12.789  0.5992 -0.0332 -0.6674
 1682TIP3   OH226536   4.683   3.505   3.720 -0.2435  0.4020  0.3033
 1682TIP3    H126537   4.687   3.530   3.628  0.3946  0.2319  0.2803
 1682TIP3    H226538   4.602   3.544   3.752 -0.9167 -0.2671 -0.5449
 1683TIP3   OH226539   0.961   4.354   2.473 -0.1985  0.8757 -0.4111
 1683TIP3    H126540   0.943   4.301   2.551 -0.9833  2.8492  0.8254
 1683TIP3    H226541   0.907   4.316   2.405 -0.6936  0.0598  0.4137
 1684TIP3   OH226542   0.637   2.280  11.340 -0.1997  0.4405 -0.1200
 1684TIP3    H126543   0.686   2.340  11.284  0.2750 -1.2013 -1.5185
 1684TIP3    H226544   0.551   2.275  11.300 -0.7415  1.3162  0.8726
 1685TIP3   OH226545   3.487   1.819   0.708  0.2910 -0.2716 -0.3135
 1685TIP3    H126546   3.458   1.762   0.779  0.9809  2.3614  2.2892
 1685TIP3    H226547   3.582   1.806   0.704  0.2426 -0.4783 -0.8311
 1686TIP3   OH226548   2.815   0.098  13.941 -0.8455 -0.3274 -0.2817
 1686TIP3    H126549   2.776   0.010  13.943 -0.1810 -0.6445 -0.8038
 1686TIP3    H226550   2.863   0.101  13.859 -0.8777  0.5450 -0.2813
 1687TIP3   OH226551   0.594   4.949  12.672  0.0831 -0.2026 -0.2675
 1687TIP3    H126552   0.525   4.912  12.618 -0.1634 -0.8604  0.4790
 1687TIP3    H226553   0.623   5.027  12.625 -0.7407 -0.2684 -0.8902
 1688TIP3   OH226554   0.291   6.148   2.722 -0.6542 -0.3217  0.3849
 1688TIP3    H126555   0.201   6.119   2.734 -1.2480  0.9597 -0.6659
 1688TIP3    H226556   0.344   6.075   2.752 -2.0504 -2.4524 -1.9261
 1689TIP3   OH226557   2.440   4.154  15.468 -0.0125 -0.1474  0.2828
 1689TIP3    H126558   2.405   4.222  15.525 -0.7419  1.2831 -1.7525
 1689TIP3    H226559   2.378   4.082  15.476  0.9320 -0.7700  2.6964
 1690TIP3   OH226560   3.191   4.423  11.931 -0.4933 -0.4139 -0.7596
 1690TIP3    H126561   3.126   4.453  11.995  0.0735 -0.7957  0.0054
 1690TIP3    H226562   3.139   4.392  11.857 -1.1238  2.5480 -1.6849
 1691TIP3   OH226563   6.219   2.338   0.427  0.3219  0.3331 -0.4278
 1691TIP3    H126564   6.164   2.409   0.395 -0.5738 -1.1225 -2.3051
 1691TIP3    H226565   6.218   2.348   0.522 -2.4718  0.9076 -0.4247
 1692TIP3   OH226566   1.326   6.184   1.289  0.2529  0.5031 -0.3521
 1692TIP3    H126567   1.271   6.123   1.239  0.2828 -0.5135  0.8080
 1692TIP3    H226568   1.272   6.210   1.363  0.6171  1.0966 -0.2910
 1693TIP3   OH226569   1.457   6.107  13.638 -0.0964  0.3290 -0.2520
 1693TIP3    H126570   1.491   6.152  13.560 -0.3633 -0.2217 -0.6931
 1693TIP3    H226571   1.364   6.094  13.619 -0.0821 -0.1473 -0.0013
 1694TIP3   OH226572   2.132   1.417   2.974 -0.4462 -0.5220  0.2932
 1694TIP3    H126573   2.147   1.358   2.900 -1.6694  0.8882 -1.1695
 1694TIP3    H226574   2.213   1.411   3.026  1.1021 -0.4754 -1.9542
 1695TIP3   OH226575   4.761   0.619   2.543 -0.2179  0.1755  0.1183
 1695TIP3    H126576   4.830   0.659   2.489 -1.2335  0.0343 -1.3553
 1695TIP3    H226577   4.772   0.658   2.629  1.4384  0.4628 -0.1896
 1696TIP3   OH226578   2.555   3.467   6.783  0.2095 -0.0991 -0.1311
 1696TIP3    H126579   2.592   3.496   6.866 -0.2786 -1.5693  0.6240
 1696TIP3    H226580   2.571   3.373   6.781  1.1727  0.0581 -2.2025
 1697TIP3   OH226581   2.711   0.888   4.285  0.0795 -0.3665  0.3474
 1697TIP3    H126582   2.710   0.793   4.268 -0.8003 -0.5204  1.1406
 1697TIP3    H226583   2.619   0.913   4.281  0.4207  0.7499 -1.2818
 1698TIP3   OH226584   0.852   3.268   1.058 -0.4956 -0.0667 -0.3416
 1698TIP3    H126585   0.884   3.349   1.098  0.2156 -1.0621  1.1960
 1698TIP3    H226586   0.897   3.264   0.973 -1.8535  1.9678 -1.2247
 1699TIP3   OH226587   5.853   1.542   6.256  0.1429  0.4734  0.5728
 1699TIP3    H126588   5.866   1.583   6.171 -0.1028 -0.1482  0.2312
 1699TIP3    H226589   5.907   1.463   6.254 -0.8607 -0.2378  0.4904
 1700TIP3   OH226590   1.429   5.826  12.854  0.6500 -0.1439  0.5756
 1700TIP3    H126591   1.334   5.827  12.861  0.5346  0.7678 -0.8527
 1700TIP3    H226592   1.447   5.757  12.791  0.9268 -0.0904  0.5953
 1701TIP3   OH226593   6.650   0.322  16.617 -0.0074 -0.0013  0.4799
 1701TIP3    H126594   6.736   0.360  16.632  0.2846 -1.3952  2.8519
 1701TIP3    H226595   6.599   0.347  16.694 -0.7449 -1.6901  0.5908
 1702TIP3   OH226596   1.778   5.119   2.954 -0.2742 -0.1011  0.0793
 1702TIP3    H126597   1.779   5.082   2.866  1.4136 -0.6154  0.2720
 1702TIP3    H226598   1.687   5.115   2.981 -0.7170 -0.5427 -1.3907
 1703TIP3   OH226599   6.014   1.197  15.239  0.4283 -0.1218  0.5746
 1703TIP3    H126600   5.959   1.118  15.234  0.1192  0.1536 -1.1766
 1703TIP3    H226601   5.966   1.262  15.188  1.7304  0.5298  0.1346
 1704TIP3   OH226602   0.270   0.087   3.424  0.0860  0.1562  0.1122
 1704TIP3    H126603   0.183   0.048   3.427  0.4242 -0.7303 -0.8226
 1704TIP3    H226604   0.329   0.016   3.448  0.6186  0.4913 -0.1804
 1705TIP3   OH226605   4.420   1.534  13.470  0.0477 -0.2363 -0.1059
 1705TIP3    H126606   4.453   1.583  13.545  0.6979  0.5596 -0.8895
 1705TIP3    H226607   4.486   1.466  13.455 -0.3777 -0.7772  0.3853
 1706TIP3   OH226608   4.043   3.601   5.603  0.1178  0.0352 -0.1745
 1706TIP3    H126609   4.029   3.507   5.592 -1.6326  0.2836 -0.3915
 1706TIP3    H226610   4.021   3.639   5.518  0.6544  0.6593 -0.0408
 1707TIP3   OH226611   5.621   6.767   3.494 -0.1479 -0.1628 -0.7001
 1707TIP3    H126612   5.715   6.750   3.487 -0.4312 -2.0603 -0.5019
 1707TIP3    H226613   5.585   6.740   3.410 -0.7083 -1.0830 -0.1870
 1708TIP3   OH226614   3.819   5.892  11.428 -0.1719 -0.2532  0.0228
 1708TIP3    H126615   3.725   5.881  11.443 -0.6087  0.2520 -1.9607
 1708TIP3    H226616   3.829   5.984  11.405  0.7630 -0.3707 -0.0769
 1709TIP3   OH226617   5.164   6.016  13.830  0.1166  0.2411  0.4404
 1709TIP3    H126618   5.181   5.983  13.919 -0.5169 -0.5079  0.2988
 1709TIP3    H226619   5.243   6.063  13.806  0.9818 -0.9934  0.7597
 1710TIP3   OH226620   5.357   1.463   1.870  0.2164  0.3857  0.1365
 1710TIP3    H126621   5.388   1.524   1.803  0.3801  0.1027 -0.0516
 1710TIP3    H226622   5.437   1.431   1.912  0.2535 -0.7907 -0.7448
 1711TIP3   OH226623   6.419   1.746  11.300  0.1301 -0.1517  0.0471
 1711TIP3    H126624   6.357   1.761  11.371  0.9893 -0.1553  0.8265
 1711TIP3    H226625   6.398   1.813  11.235  0.0936  0.6208  0.8407
 1712TIP3   OH226626   4.863   5.799   2.450 -0.0481 -0.2817  0.7477
 1712TIP3    H126627   4.858   5.852   2.370  2.3728 -1.4664 -0.2689
 1712TIP3    H226628   4.821   5.853   2.517 -1.2468  1.1791 -1.0737
 1713TIP3   OH226629   5.968   0.980  10.871  0.7506 -0.1923  0.2617
 1713TIP3    H126630   5.940   1.069  10.891  0.6381 -0.1392 -0.1200
 1713TIP3    H226631   6.054   0.989  10.830 -0.5106  0.0116 -2.5682
 1714TIP3   OH226632   0.249   3.126   3.763 -0.3431  0.1994 -0.7908
 1714TIP3    H126633   0.225   3.106   3.853  1.0732  0.8685 -0.2238
 1714TIP3    H226634   0.214   3.214   3.747 -4.1478 -1.3884 -2.3448
 1715TIP3   OH226635   6.780   6.508  16.961 -0.1989  0.0068 -0.1387
 1715TIP3    H126636   6.796   6.501  17.055 -1.0100  0.7288  0.0583
 1715TIP3    H226637   6.727   6.432  16.940  2.0513 -1.5801 -0.5190
 1716TIP3   OH226638   0.964   6.434  12.057  0.0853  0.0433 -0.4360
 1716TIP3    H126639   0.926   6.356  12.016 -0.2483  0.3451 -0.7111
 1716TIP3    H226640   1.000   6.485  11.985 -1.1178  0.9137 -0.4684
 1717TIP3   OH226641   4.501   3.805  11.816  0.6241 -0.2221  0.1531
 1717TIP3    H126642   4.422   3.753  11.821  0.2459  0.4001  0.9665
 1717TIP3    H226643   4.570   3.743  11.792 -0.4814 -0.3533 -3.1170
 1718TIP3   OH226644   6.769   1.500   2.721 -0.4794 -0.5567  0.0035
 1718TIP3    H126645   6.788   1.573   2.662 -1.1037  0.7103  1.2938
 1718TIP3    H226646   6.760   1.541   2.807  2.8295 -2.5963  1.5256
 1719TIP3   OH226647   0.516   2.728   0.439 -0.1970 -0.5605 -0.4344
 1719TIP3    H126648   0.502   2.732   0.533  0.1191  1.5964 -0.4420
 1719TIP3    H226649   0.609   2.745   0.428 -0.4984  0.6630 -1.2027
 1720TIP3   OH226650   4.982   1.672   2.457 -0.0588  0.0634  0.0590
 1720TIP3    H126651   4.950   1.613   2.526  1.0993  0.5695  1.0703
 1720TIP3    H226652   5.041   1.617   2.405 -0.8568 -0.2939 -0.4840
 1721TIP3   OH226653   2.485   4.692   2.520 -0.1962 -0.5041  0.1565
 1721TIP3    H126654   2.433   4.711   2.598  1.7751 -1.1256  1.6752
 1721TIP3    H226655   2.560   4.751   2.525 -0.0174 -0.5659 -1.2826
 1722TIP3   OH226656   4.261   5.294   6.761 -0.2507  0.0316  0.5484
 1722TIP3    H126657   4.344   5.335   6.788 -0.1975  0.6485 -0.5039
 1722TIP3    H226658   4.248   5.323   6.671 -1.7386  0.1429  0.7675
 1723TIP3   OH226659   5.918   0.874  11.198  0.6515  0.0318 -0.1409
 1723TIP3    H126660   5.897   0.790  11.238  0.4688  0.2682  0.2812
 1723TIP3    H226661   5.917   0.858  11.104 -0.5313 -0.1811 -0.1089
 1724TIP3   OH226662   2.534   3.303   2.586  0.8895  0.0053 -0.1700
 1724TIP3    H126663   2.577   3.377   2.543  2.7910 -0.4524  0.8327
 1724TIP3    H226664   2.471   3.271   2.521  0.0269  2.4090 -0.6612
 1725TIP3   OH226665   2.844   6.265   6.055  0.2177 -0.4539  0.6358
 1725TIP3    H126666   2.844   6.254   6.150 -3.9782 -0.5650  0.8475
 1725TIP3    H226667   2.855   6.177   6.020 -0.5926 -0.7737  1.1551
 1726TIP3   OH226668   6.519   1.390   2.646  0.3690  0.0786 -0.1756
 1726TIP3    H126669   6.605   1.403   2.686  0.0283  0.6889  0.3772
 1726TIP3    H226670   6.466   1.464   2.678 -0.6856 -0.8927  0.3792
 1727TIP3   OH226671   1.847   1.699   4.967 -0.1857 -0.0142 -0.0321
 1727TIP3    H126672   1.825   1.720   5.058 -0.5496 -1.0613  0.1368
 1727TIP3    H226673   1.920   1.638   4.974  1.0516  1.3457 -0.5171
 1728TIP3   OH226674   6.657   0.041   0.774  0.4006  0.2209 -0.1807
 1728TIP3    H126675   6.579  -0.003   0.807  1.8136 -1.1027  1.5942
 1728TIP3    H226676   6.653   0.029   0.679 -0.7468 -1.1690  0.0091
 1729TIP3   OH226677   2.707   0.122   4.115 -0.1999 -0.0916 -0.6677
 1729TIP3    H126678   2.660   0.044   4.085 -0.8255  0.9057 -2.4073
 1729TIP3    H226679   2.794   0.114   4.075 -1.0274  1.2280 -2.8751
 1730TIP3   OH226680   6.256   0.346   2.198 -0.4743  0.4484  0.0816
 1730TIP3    H126681   6.246   0.336   2.104  1.8170 -1.1654 -0.0606
 1730TIP3    H226682   6.245   0.258   2.233  0.3122  0.7594  1.1544
 1731TIP3   OH226683   6.622   5.954   1.690  0.4956 -0.3722 -0.0171
 1731TIP3    H126684   6.624   6.025   1.755 -0.3769 -0.7669  0.4605
 1731TIP3    H226685   6.628   5.874   1.742  0.0322 -0.6889 -0.4436
 1732TIP3   OH226686   4.477   4.888   5.645 -0.7287 -0.1913 -0.8096
 1732TIP3    H126687   4.480   4.970   5.595  1.2524 -0.7208 -1.6602
 1732TIP3    H226688   4.428   4.828   5.590  1.5272 -0.8015 -2.2960
 1733TIP3   OH226689   3.490   2.924  12.412  0.2813 -0.1340  0.0373
 1733TIP3    H126690   3.497   2.846  12.357  0.5464  1.0128 -1.6020
 1733TIP3    H226691   3.580   2.956  12.421  0.3578 -0.7325  1.8402
 1734TIP3   OH226692   3.052   4.271   5.601 -0.4224  0.2947 -0.4284
 1734TIP3    H126693   3.020   4.190   5.560  1.5466  0.0118 -1.4989
 1734TIP3    H226694   3.019   4.341   5.545 -1.4732  0.2017  0.0552
 1735TIP3   OH226695   0.978   3.591  11.521  0.4597 -0.2209  0.0221
 1735TIP3    H126696   1.008   3.629  11.603 -1.0135 -1.3736  1.1501
 1735TIP3    H226697   0.951   3.502  11.544  1.4127 -1.1067 -2.0270
 1736TIP3   OH226698   4.899   0.279   4.485 -0.1576 -0.4285 -0.0350
 1736TIP3    H126699   4.967   0.315   4.542  0.2532 -2.0182  0.5208
 1736TIP3    H226700   4.895   0.186   4.508 -0.5554 -0.9466 -2.0248
 1737TIP3   OH226701   0.754   1.436  14.010 -0.1798  0.4530 -0.1959
 1737TIP3    H126702   0.769   1.462  13.919  0.1724 -0.8005 -0.5147
 1737TIP3    H226703   0.731   1.343  14.005 -0.7087  0.5075  0.9530
 1738TIP3   OH226704   4.932   5.863   3.782  0.1181 -1.1943  0.1568
 1738TIP3    H126705   5.006   5.829   3.732  0.4962  0.8341 -0.7540
 1738TIP3    H226706   4.971   5.900   3.861  0.0459 -0.4952 -0.1278
 1739TIP3   OH226707   6.532   6.358  15.009 -0.5331  0.0456 -0.2493
 1739TIP3    H126708   6.580   6.341  15.090 -0.2373  0.2871 -0.3731
 1739TIP3    H226709   6.477   6.434  15.029  0.3685  0.8003 -0.6165
 1740TIP3   OH226710   3.549   0.919  13.839  0.1993  0.2638 -0.4800
 1740TIP3    H126711   3.620   0.946  13.898  0.3552 -0.6112 -0.2531
 1740TIP3    H226712   3.583   0.841  13.794 -0.4797  0.0540 -0.6467
 1741TIP3   OH226713   3.892   0.572   4.432 -0.6427  0.3327  0.2352
 1741TIP3    H126714   3.818   0.590   4.375  0.5540  0.5040 -1.3247
 1741TIP3    H226715   3.952   0.646   4.418  0.3161 -0.3566  0.6136
 1742TIP3   OH226716   2.626   0.381   4.033 -0.2887 -0.1316 -0.3574
 1742TIP3    H126717   2.691   0.375   3.963 -1.1773  0.6248 -1.2782
 1742TIP3    H226718   2.643   0.304   4.088  0.4657 -0.7213 -1.3752
 1743TIP3   OH226719   6.632   5.339   1.243  0.3319 -0.1412  0.0517
 1743TIP3    H126720   6.724   5.345   1.217  0.3583  0.4042  0.2494
 1743TIP3    H226721   6.627   5.259   1.295  0.7643 -0.0017  0.3119
 1744TIP3   OH226722   6.118   0.252  11.799  0.6087 -0.2453  0.3042
 1744TIP3    H126723   6.210   0.227  11.808  1.0220  1.3243  0.8188
 1744TIP3    H226724   6.093   0.222  11.712  1.2902 -1.6205  0.5581
 1745TIP3   OH226725   1.261   6.092   0.634  0.4911 -0.5233 -0.1052
 1745TIP3    H126726   1.238   6.100   0.541 -1.5652  1.5735  0.4918
 1745TIP3    H226727   1.199   6.149   0.679  1.7519 -1.0966  2.5449
 1746TIP3   OH226728   6.145   3.904   1.563  0.3439 -0.6586  0.1840
 1746TIP3    H126729   6.101   3.910   1.478  0.6354 -0.9692  0.0042
 1746TIP3    H226730   6.078   3.926   1.627 -0.2227 -1.6301 -0.0439
 1747TIP3   OH226731   3.863   0.426  14.329 -0.1450 -0.0560  0.0672
 1747TIP3    H126732   3.805   0.483  14.279  0.1977  0.2286 -0.0169
 1747TIP3    H226733   3.951   0.447  14.296  0.0527 -0.1126  0.5443
 1748TIP3   OH226734   0.237   3.960   3.714 -0.1179 -0.4586  0.6429
 1748TIP3    H126735   0.161   3.911   3.745 -1.2900  1.0499  0.2998
 1748TIP3    H226736   0.235   3.950   3.619  0.1863 -0.5196  0.6424
 1749TIP3   OH226737   5.878   4.688  17.028  0.3195 -0.3012  0.3824
 1749TIP3    H126738   5.807   4.748  17.051 -0.7327 -1.6773  0.9175
 1749TIP3    H226739   5.835   4.620  16.976  1.6623 -0.0833 -1.1005
 1750TIP3   OH226740   5.672   5.332  15.686  0.0181 -0.1395  0.5349
 1750TIP3    H126741   5.686   5.239  15.671  1.7409  0.2928 -0.9215
 1750TIP3    H226742   5.586   5.350  15.648 -0.0240 -0.9933  0.1998
 1751TIP3   OH226743   6.331   4.470   2.617  0.6679 -0.4479  0.5391
 1751TIP3    H126744   6.273   4.546   2.624  1.4107  0.2349 -0.4546
 1751TIP3    H226745   6.272   4.397   2.597 -0.1662 -0.3539  2.4136
 1752TIP3   OH226746   2.929   5.713  13.664  0.3012 -0.3262  0.0216
 1752TIP3    H126747   2.840   5.695  13.692  0.5859  0.2307  1.3748
 1752TIP3    H226748   2.920   5.776  13.593 -0.3876 -0.2570  0.1649
 1753TIP3   OH226749   1.803   5.893  16.260  0.4695 -0.3348  0.2244
 1753TIP3    H126750   1.723   5.848  16.234  0.4568 -0.9648  1.2950
 1753TIP3    H226751   1.866   5.823  16.278  0.5505  0.0555  1.5821
 1754TIP3   OH226752   0.464   6.204   4.208  0.0765  0.2558  0.0170
 1754TIP3    H126753   0.553   6.203   4.243  0.4754 -2.0695 -0.8814
 1754TIP3    H226754   0.468   6.263   4.133  1.1240 -0.5106 -0.5625
 1755TIP3   OH226755   0.102   5.838  11.329  0.0674  0.0367  0.0359
 1755TIP3    H126756   0.083   5.804  11.241 -1.0401  3.3643 -1.1476
 1755TIP3    H226757   0.021   5.881  11.356  1.5496  2.3498  1.0540
 1756TIP3   OH226758   4.481   2.965  15.475 -0.0937  0.2406  0.2917
 1756TIP3    H126759   4.422   2.968  15.550  0.7935 -2.1977  1.1957
 1756TIP3    H226760   4.568   2.979  15.512  0.5172 -2.3181  0.0463
 1757TIP3   OH226761   5.021   4.451  14.984  0.4412 -0.4883  0.4243
 1757TIP3    H126762   4.927   4.434  14.977  0.8137 -2.1643 -1.4064
 1757TIP3    H226763   5.056   4.372  15.027  1.0731 -0.0373  0.7508
 1758TIP3   OH226764   4.779   3.269  16.602  0.4034 -0.2795  0.4452
 1758TIP3    H126765   4.721   3.268  16.678 -0.0871  0.7886  0.1022
 1758TIP3    H226766   4.856   3.318  16.631  0.0001  0.5586  0.1027
 1759TIP3   OH226767   6.404   2.931   5.343 -0.1020  0.1564  0.5430
 1759TIP3    H126768   6.340   2.947   5.274  1.0340  0.2211 -0.5370
 1759TIP3    H226769   6.374   2.851   5.387  1.1074 -2.2113 -2.5378
 1760TIP3   OH226770   4.715   5.757  15.074 -1.0693 -0.4696 -0.4859
 1760TIP3    H126771   4.714   5.743  14.979 -1.8389  1.1835 -0.7504
 1760TIP3    H226772   4.768   5.836  15.086  1.5667 -2.2631  0.7667
 1761TIP3   OH226773   2.349   1.798   0.324 -0.1519  0.1491  0.3913
 1761TIP3    H126774   2.369   1.713   0.364  0.7538 -0.4186 -1.1617
 1761TIP3    H226775   2.268   1.783   0.275  0.9958 -0.4337 -1.4490
 1762TIP3   OH226776   4.847   1.031  13.433 -0.3390 -0.7687  0.5440
 1762TIP3    H126777   4.844   1.077  13.349 -1.9063  1.3638  1.6635
 1762TIP3    H226778   4.801   0.949  13.417  0.0366 -0.7328 -0.8497
 1763TIP3   OH226779   0.403   1.146   1.174 -0.5183  0.1803  0.0155
 1763TIP3    H126780   0.382   1.144   1.081  0.0153  2.2676 -0.1997
 1763TIP3    H226781   0.334   1.200   1.213  1.6236  3.0928  0.0510
 1764TIP3   OH226782   3.681   4.079  14.947  0.2890 -0.0340  0.4504
 1764TIP3    H126783   3.643   4.100  15.032 -1.3193  0.7557 -0.4246
 1764TIP3    H226784   3.652   3.989  14.930  1.2628 -0.4845  1.0415
 1765TIP3   OH226785   5.660   0.457   2.415  0.1451 -0.0853 -0.0899
 1765TIP3    H126786   5.579   0.435   2.460 -0.0623  1.6907  0.4925
 1765TIP3    H226787   5.657   0.407   2.333 -1.7907  0.3317 -0.3129
 1766TIP3   OH226788   6.214   0.591  14.298  0.2640 -0.0182  0.3152
 1766TIP3    H126789   6.150   0.531  14.336 -0.0313 -0.0238 -0.1736
 1766TIP3    H226790   6.162   0.648  14.242  0.3208  1.6163  1.8316
 1767TIP3   OH226791   5.748   6.512   0.291  0.3211  0.0816 -0.4368
 1767TIP3    H126792   5.808   6.580   0.323 -0.5243  0.9619 -0.6720
 1767TIP3    H226793   5.734   6.456   0.368  0.0615  0.8904  0.1216
 1768TIP3   OH226794   0.756   3.178   0.372 -0.3532 -0.2727 -0.2326
 1768TIP3    H126795   0.684   3.201   0.315  0.0376 -0.3956 -0.7812
 1768TIP3    H226796   0.835   3.207   0.325 -0.1012  0.9234  0.8584
 1769TIP3   OH226797   1.434   0.815   5.859  0.1648 -0.2266 -0.2205
 1769TIP3    H126798   1.420   0.721   5.870 -1.1312 -0.1136 -0.7506
 1769TIP3    H226799   1.388   0.854   5.933 -1.0554  0.0787 -1.1166
 1770TIP3   OH226800   5.357   6.503   4.892 -0.2811  0.0138  0.0329
 1770TIP3    H126801   5.276   6.480   4.846 -1.5544  1.5544  1.3689
 1770TIP3    H226802   5.416   6.533   4.822 -1.6741  1.0007 -0.7902
 1771TIP3   OH226803   2.838   1.900  12.565  0.9733  0.3618  0.2093
 1771TIP3    H126804   2.851   1.949  12.647  3.0711 -1.1094  0.8462
 1771TIP3    H226805   2.913   1.922  12.511  0.3544  0.1966 -0.7393
 1772TIP3   OH226806   1.804   6.168  15.289 -0.5587 -0.5045 -0.3293
 1772TIP3    H126807   1.844   6.198  15.208  1.6436 -0.4770  0.6871
 1772TIP3    H226808   1.723   6.219  15.297 -0.2095  0.3439 -1.8812
 1773TIP3   OH226809   1.764   5.537  11.107  0.3941 -0.1489  0.1203
 1773TIP3    H126810   1.680   5.492  11.096  0.5905 -0.7541  0.9447
 1773TIP3    H226811   1.796   5.552  11.018 -0.8530  0.6197 -0.2140
 1774TIP3   OH226812   3.737   5.670  13.166 -0.5692 -0.1136  0.7197
 1774TIP3    H126813   3.783   5.721  13.098 -0.3120 -0.3964  0.6790
 1774TIP3    H226814   3.647   5.701  13.162 -0.3569  0.5354  0.8781
 1775TIP3   OH226815   2.861   4.223  15.717 -0.4187  0.3156 -0.1363
 1775TIP3    H126816   2.909   4.186  15.791 -0.6681  0.2500 -0.0056
 1775TIP3    H226817   2.818   4.148  15.675  0.6948  0.1789 -1.0841
 1776TIP3   OH226818   2.022   6.018   4.314  0.1060 -0.6356 -0.5529
 1776TIP3    H126819   1.974   6.086   4.267 -0.0227 -0.8032 -0.6659
 1776TIP3    H226820   2.112   6.025   4.283  0.3944  0.3775  0.4333
 1777TIP3   OH226821   2.456   0.773   5.114  0.3392 -0.1392 -0.1343
 1777TIP3    H126822   2.534   0.797   5.165  0.6470  0.4757 -0.8795
 1777TIP3    H226823   2.485   0.775   5.023 -0.4758 -0.1908 -0.4040
 1778TIP3   OH226824   4.089   0.415  13.218  0.0385 -0.6765  0.2323
 1778TIP3    H126825   4.054   0.363  13.145 -1.8941 -0.9500  1.2733
 1778TIP3    H226826   4.142   0.482  13.176 -2.2874  0.1588 -1.6070
 1779TIP3   OH226827   6.375   2.442   6.057 -0.0398 -0.1126 -0.1782
 1779TIP3    H126828   6.330   2.387   6.120 -0.7353  0.7335  0.0766
 1779TIP3    H226829   6.306   2.492   6.014  0.6399  1.3728  0.3780
 1780TIP3   OH226830   3.237   2.929   0.832 -0.6709  0.4764 -0.2704
 1780TIP3    H126831   3.300   2.889   0.893 -0.9821  0.2052 -0.1237
 1780TIP3    H226832   3.215   3.013   0.872 -0.8195  0.3309 -0.0428
 1781TIP3   OH226833   2.518   2.008  16.804 -0.3986 -0.3323 -0.2976
 1781TIP3    H126834   2.524   1.962  16.720  1.3015  0.8750 -0.8977
 1781TIP3    H226835   2.580   1.963  16.861 -1.3564 -0.9836  0.2544
 1782TIP3   OH226836   2.909   3.705   1.228 -0.1169  0.0275  0.5710
 1782TIP3    H126837   2.986   3.654   1.201 -0.5932 -0.6897  0.5596
 1782TIP3    H226838   2.885   3.755   1.150 -1.2382 -1.7268 -0.2556
 1783TIP3   OH226839   4.544   5.122  14.651 -0.6666  0.2340  0.5227
 1783TIP3    H126840   4.581   5.196  14.602  0.1096 -1.1824 -1.1518
 1783TIP3    H226841   4.458   5.109  14.612  0.5435 -1.8763 -1.7424
 1784TIP3   OH226842   3.688   1.214   0.468 -0.1492  0.4273  0.0621
 1784TIP3    H126843   3.694   1.181   0.557  1.3811  0.3648 -0.0412
 1784TIP3    H226844   3.619   1.161   0.427 -0.2257 -0.1646  0.9341
 1785TIP3   OH226845   0.014   1.688  14.362 -0.4519  0.8095 -0.1691
 1785TIP3    H126846   0.053   1.607  14.329 -1.5081  0.2909 -0.2121
 1785TIP3    H226847   0.084   1.752  14.360  0.2470  0.0416 -0.7086
 1786TIP3   OH226848   5.427   3.571  14.006  0.4292  0.3442 -0.0014
 1786TIP3    H126849   5.439   3.499  14.069 -0.5765 -0.7900 -1.0398
 1786TIP3    H226850   5.515   3.608  13.996  1.2804 -1.6313 -0.4236
 1787TIP3   OH226851   3.923   2.160  15.416 -0.3139  0.2445  0.0780
 1787TIP3    H126852   3.857   2.197  15.357 -0.9044 -0.1343  0.4878
 1787TIP3    H226853   3.872   2.118  15.485  0.3796  1.7031  1.5148
 1788TIP3   OH226854   4.383   2.981   0.015  0.3502 -0.3136 -0.6471
 1788TIP3    H126855   4.395   2.898   0.060  0.5073  0.6145  1.0990
 1788TIP3    H226856   4.443   3.041   0.059  0.0368  0.7987 -1.6884
 1789TIP3   OH226857   1.580   0.328  12.005 -0.2112  0.1195 -0.3748
 1789TIP3    H126858   1.515   0.292  12.065 -0.2207  0.9277  0.1196
 1789TIP3    H226859   1.642   0.257  11.991 -0.0964 -0.0229  0.7669
 1790TIP3   OH226860   1.039   2.355  12.153 -0.0666 -0.4156 -0.9219
 1790TIP3    H126861   1.035   2.413  12.229 -0.9502 -0.8076 -0.6516
 1790TIP3    H226862   1.005   2.271  12.185  0.5387 -0.8950 -1.4837
 1791TIP3   OH226863   3.030   0.696  10.936 -0.6358 -0.2156  0.3938
 1791TIP3    H126864   3.006   0.604  10.925 -1.1649 -0.0167 -0.2363
 1791TIP3    H226865   3.006   0.736  10.852  2.2948 -0.0667 -0.4751
 1792TIP3   OH226866   5.876   3.703   0.732  0.4416  0.4460  0.6256
 1792TIP3    H126867   5.790   3.692   0.773  0.0614  1.8469  0.2453
 1792TIP3    H226868   5.860   3.690   0.639  0.7597  0.1685  0.6074
 1793TIP3   OH226869   1.215   1.873   2.318  0.5792 -0.2623  0.0965
 1793TIP3    H126870   1.231   1.779   2.317  0.4600 -0.3265  1.6198
 1793TIP3    H226871   1.127   1.882   2.355  0.1368  0.4160 -1.0730
 1794TIP3   OH226872   3.643   6.765  13.399 -0.0075  0.3912  0.3409
 1794TIP3    H126873   3.635   6.750  13.305  0.4421  2.4233 -0.0685
 1794TIP3    H226874   3.556   6.791  13.427 -0.2249 -0.5507  0.5835
 1795TIP3   OH226875   2.831   4.466  10.999  0.4144  0.2146  0.0169
 1795TIP3    H126876   2.917   4.466  11.041  1.6226  2.7867 -2.1707
 1795TIP3    H226877   2.786   4.542  11.035  0.3195  0.7065 -1.0846
 1796TIP3   OH226878   0.308   5.992   5.329 -0.4177  0.2642 -0.4355
 1796TIP3    H126879   0.293   6.040   5.410 -0.7011  2.0512 -1.5000
 1796TIP3    H226880   0.249   5.916   5.334 -0.1904  0.1610  1.1373
 1797TIP3   OH226881   2.756   4.951   4.664 -0.2268 -0.8147  0.4559
 1797TIP3    H126882   2.670   4.974   4.699 -0.0525 -0.1266  0.4438
 1797TIP3    H226883   2.803   4.912   4.738 -0.6687 -1.5325  0.3683
 1798TIP3   OH226884   5.358   5.642  17.153 -0.4571  0.0998 -0.0579
 1798TIP3    H126885   5.447   5.652  17.117 -0.8962 -0.1513 -1.2487
 1798TIP3    H226886   5.301   5.642  17.076 -1.5826  1.1191  0.7390
 1799TIP3   OH226887   4.615   5.399   0.016 -0.0775 -0.2186  0.0814
 1799TIP3    H126888   4.651   5.328  -0.038  1.0132  0.5125 -0.1840
 1799TIP3    H226889   4.546   5.437  -0.038 -0.8963 -1.2663  0.3544
 1800TIP3   OH226890   1.743   3.170  11.052  0.6046 -0.0651 -0.0882
 1800TIP3    H126891   1.741   3.233  10.980 -0.1282  1.0497  0.8679
 1800TIP3    H226892   1.676   3.106  11.030 -0.0695  0.6305 -0.1022
 1801TIP3   OH226893   6.679   3.852  15.768  0.0629  0.3572  0.0178
 1801TIP3    H126894   6.673   3.942  15.737 -0.5994  0.2266 -0.2405
 1801TIP3    H226895   6.759   3.851  15.821  0.2378  1.0193 -0.2174
 1802TIP3   OH226896   0.368   2.998  13.241 -0.0003 -0.4475 -0.1662
 1802TIP3    H126897   0.291   3.054  13.240  0.4942  0.3264  1.3709
 1802TIP3    H226898   0.442   3.059  13.241  0.5818 -1.1386 -0.1867
 1803TIP3   OH226899   1.183   3.490  14.615 -0.0170  0.1367  0.4191
 1803TIP3    H126900   1.143   3.504  14.529  0.4396  0.3679  0.2412
 1803TIP3    H226901   1.184   3.395  14.626 -0.7302  0.1296  0.4835
 1804TIP3   OH226902   1.675   2.659   3.382 -0.2661 -0.0197 -0.0416
 1804TIP3    H126903   1.723   2.596   3.328 -0.8278  0.3024 -0.9379
 1804TIP3    H226904   1.646   2.726   3.321  1.1643  1.6675  1.0447
 1805TIP3   OH226905   6.229   5.343   3.464 -0.4454  0.4065  0.3601
 1805TIP3    H126906   6.320   5.356   3.438 -0.3723  1.8739  1.2512
 1805TIP3    H226907   6.178   5.387   3.396 -0.5141 -0.5406 -0.2174
 1806TIP3   OH226908   1.446   6.741  17.165 -0.0583  0.5366  0.0948
 1806TIP3    H126909   1.397   6.689  17.101 -0.6835  2.5781 -1.1747
 1806TIP3    H226910   1.413   6.711  17.249 -0.2850 -1.2030 -0.5641
 1807TIP3   OH226911   4.932   0.487   4.115  0.1920 -0.0647 -0.2571
 1807TIP3    H126912   4.942   0.559   4.177  0.4174 -0.1095 -0.2390
 1807TIP3    H226913   4.939   0.529   4.029 -1.9027  0.2673 -0.3049
 1808TIP3   OH226914   0.830   0.598  10.629  0.0705 -0.7377 -0.2364
 1808TIP3    H126915   0.832   0.685  10.668  1.2515 -0.4687 -0.8614
 1808TIP3    H226916   0.919   0.566  10.637  0.4013 -0.6224 -2.7737
 1809TIP3   OH226917   1.364   2.115   3.911 -0.7109 -0.2157  0.5827
 1809TIP3    H126918   1.424   2.063   3.858 -1.0538 -0.2691  0.2434
 1809TIP3    H226919   1.410   2.126   3.994  0.0206  0.2605  0.1218
 1810TIP3   OH226920   0.872   4.739   0.034  0.0627 -0.3564  0.6313
 1810TIP3    H126921   0.791   4.739  -0.018  0.8453  1.4942 -0.7133
 1810TIP3    H226922   0.924   4.668  -0.003 -0.5679 -0.9730  0.9029
 1811TIP3   OH226923   2.245   4.047   3.346  0.3525  0.2036 -0.0667
 1811TIP3    H126924   2.278   3.990   3.415  0.5662  0.4416  0.0265
 1811TIP3    H226925   2.205   3.987   3.283 -0.7424  0.0481  0.7351
 1812TIP3   OH226926   1.563   5.651   6.551 -0.3588 -0.1898  0.2861
 1812TIP3    H126927   1.637   5.691   6.596 -0.5825 -0.2559  0.7177
 1812TIP3    H226928   1.497   5.721   6.546 -1.3069 -0.8696  2.3150
 1813TIP3   OH226929   3.765   4.458   3.665  0.0631  0.4579 -0.4073
 1813TIP3    H126930   3.818   4.522   3.712  0.2374  0.7890 -1.0379
 1813TIP3    H226931   3.786   4.374   3.707 -0.4728  0.8526  0.6854
 1814TIP3   OH226932   3.319   5.496  14.576 -0.3790 -0.0888  0.0321
 1814TIP3    H126933   3.345   5.585  14.598  0.0844 -0.0194 -0.7679
 1814TIP3    H226934   3.252   5.506  14.508  0.3243 -0.3673 -0.7099
 1815TIP3   OH226935   2.199   1.227   5.157 -0.2347  0.4251 -0.0841
 1815TIP3    H126936   2.284   1.270   5.164 -1.0890  2.1478  0.5674
 1815TIP3    H226937   2.205   1.152   5.216  1.5551 -0.8502 -1.8016
 1816TIP3   OH226938   6.506   2.175   4.814  0.3303 -0.5612  0.1321
 1816TIP3    H126939   6.595   2.164   4.781  0.3510  0.4149 -0.1673
 1816TIP3    H226940   6.504   2.121   4.893  1.5341  0.2305  0.7488
 1817TIP3   OH226941   6.369   3.564   3.815  0.2447  0.3929  0.3557
 1817TIP3    H126942   6.413   3.604   3.740  0.4755  0.0306  0.2954
 1817TIP3    H226943   6.381   3.469   3.803  0.0432  0.3194  0.7010
 1818TIP3   OH226944   5.731   5.834  14.142 -0.6473  0.0074 -0.0587
 1818TIP3    H126945   5.650   5.798  14.106  1.0713 -2.1998 -1.9946
 1818TIP3    H226946   5.785   5.851  14.065  1.4985 -0.5141  1.2765
 1819TIP3   OH226947   3.410   6.309   4.838 -0.8793 -0.1067  0.5272
 1819TIP3    H126948   3.476   6.244   4.815 -2.1255 -0.7769 -1.4280
 1819TIP3    H226949   3.331   6.280   4.793 -1.2459  3.2661 -1.3725
 1820TIP3   OH226950   2.631   0.718  10.823 -0.3711 -0.8253 -0.1623
 1820TIP3    H126951   2.633   0.792  10.763  0.9240  0.3039  1.1877
 1820TIP3    H226952   2.543   0.719  10.861 -0.0085  0.8018  0.7212
 1821TIP3   OH226953   0.931   4.512  14.071  0.0798  0.2576  0.3966
 1821TIP3    H126954   0.900   4.500  14.161  0.4676 -0.5108  0.4409
 1821TIP3    H226955   0.995   4.441  14.058  1.1859  1.2865  0.0312
 1822TIP3   OH226956   5.094   3.228  14.682 -0.3722  0.3646 -0.0987
 1822TIP3    H126957   5.118   3.295  14.747 -0.5964  3.3060 -2.7832
 1822TIP3    H226958   5.002   3.209  14.700 -0.8748  2.2791 -0.3699
 1823TIP3   OH226959   3.581   0.236   5.457 -0.0817  0.0549 -0.0137
 1823TIP3    H126960   3.647   0.298   5.487  0.4102 -1.1938  1.6759
 1823TIP3    H226961   3.516   0.236   5.527 -1.6420  0.8668 -1.4054
 1824TIP3   OH226962   5.039   6.569  16.642 -0.2014 -0.6698  0.4917
 1824TIP3    H126963   5.024   6.498  16.580  0.1948 -0.1390 -0.2218
 1824TIP3    H226964   4.978   6.551  16.714 -1.4930 -0.6532 -0.5770
 1825TIP3   OH226965   0.741   0.270  16.255  0.2113 -0.0594 -0.0654
 1825TIP3    H126966   0.731   0.177  16.272 -1.5434  0.0939 -0.0762
 1825TIP3    H226967   0.693   0.313  16.326  0.7572  0.8279 -0.2167
 1826TIP3   OH226968   4.699   6.208   1.895 -0.2962 -0.0049  0.3311
 1826TIP3    H126969   4.778   6.175   1.935  0.8089  1.3356 -0.6371
 1826TIP3    H226970   4.725   6.290   1.853 -1.3865 -1.0697 -2.7759
 1827TIP3   OH226971   3.668   4.509   3.050 -0.2402 -0.3226  0.6689
 1827TIP3    H126972   3.595   4.451   3.072  0.0631 -0.8509  0.2927
 1827TIP3    H226973   3.743   4.450   3.039 -0.3877 -0.1133 -1.8987
 1828TIP3   OH226974   6.314   6.196  13.233 -0.0171 -0.4888 -0.3004
 1828TIP3    H126975   6.264   6.273  13.205  0.6445  0.3271  0.6918
 1828TIP3    H226976   6.279   6.175  13.320  1.4607  0.2079  0.4864
 1829TIP3   OH226977   0.454   6.727   4.465  0.0482 -0.3111  0.4613
 1829TIP3    H126978   0.492   6.671   4.532 -0.4145 -0.5343  0.5395
 1829TIP3    H226979   0.362   6.733   4.488  0.1813  0.9337  0.7798
 1830TIP3   OH226980   1.754   2.131  15.597  0.3336 -0.5006 -0.8917
 1830TIP3    H126981   1.723   2.157  15.684  3.0646 -1.9909  0.6371
 1830TIP3    H226982   1.849   2.138  15.602  0.6187 -1.6390 -3.4385
 1831TIP3   OH226983   1.431   6.402   4.458  0.3762  0.3655  0.2105
 1831TIP3    H126984   1.509   6.348   4.473  0.3610  0.1868 -0.3282
 1831TIP3    H226985   1.358   6.341   4.457  0.5792  0.0199 -2.6605
 1832TIP3   OH226986   0.422   5.214  12.259  0.4868  0.0238 -0.0985
 1832TIP3    H126987   0.504   5.167  12.274 -0.4978 -1.3701  1.2075
 1832TIP3    H226988   0.358   5.168  12.312 -0.8838  1.9179 -0.0141
 1833TIP3   OH226989   6.374   3.337   3.080 -0.3456 -0.0984  0.1666
 1833TIP3    H126990   6.338   3.373   2.998  1.5637  0.8915 -0.2980
 1833TIP3    H226991   6.441   3.400   3.106 -1.1977 -0.1611  2.7814
 1834TIP3   OH226992   5.350   4.853  11.779  0.1756  0.1459 -0.4972
 1834TIP3    H126993   5.357   4.919  11.848  0.4146  0.1661 -0.5396
 1834TIP3    H226994   5.352   4.770  11.826  1.6910  0.1178 -0.5669
 1835TIP3   OH226995   2.950   1.477  14.979 -0.2582  0.4430  0.5167
 1835TIP3    H126996   2.882   1.544  14.982 -0.2602  0.4857 -0.3723
 1835TIP3    H226997   2.942   1.438  14.892  0.0460 -0.3972  0.8608
 1836TIP3   OH226998   4.070   3.923   4.715  0.1669  0.5743  0.3197
 1836TIP3    H126999   4.145   3.892   4.766  0.3898  1.0103  0.2614
 1836TIP3    H227000   4.003   3.943   4.780  0.9558  2.5420  0.5912
 1837TIP3   OH227001   6.488   2.865  15.180 -0.1554 -0.1971 -0.1112
 1837TIP3    H127002   6.450   2.952  15.170  1.7381  0.6930  0.0718
 1837TIP3    H227003   6.568   2.879  15.232 -0.3451 -2.1869  0.8115
 1838TIP3   OH227004   0.953   2.513   0.049  0.0249  0.0578 -0.2426
 1838TIP3    H127005   0.986   2.526  -0.040  0.5251 -1.0269 -0.2331
 1838TIP3    H227006   0.859   2.527   0.043  0.1468  0.6745 -0.7993
 1839TIP3   OH227007   3.005   0.820  14.154 -0.3528  0.0444  0.5732
 1839TIP3    H127008   2.913   0.845  14.163 -0.2051  0.2340  1.6318
 1839TIP3    H227009   3.013   0.792  14.062 -1.5245 -0.2497  0.5439
 1840TIP3   OH227010   4.382   5.768  15.450 -0.5986  0.3424  0.8322
 1840TIP3    H127011   4.454   5.788  15.390 -0.4639 -0.0376  0.8665
 1840TIP3    H227012   4.315   5.834  15.430 -0.9704 -0.3936 -0.4422
 1841TIP3   OH227013   0.213   2.854   5.698 -0.0099  0.1251 -0.6654
 1841TIP3    H127014   0.296   2.810   5.712 -0.4227 -0.4367  0.1387
 1841TIP3    H227015   0.225   2.906   5.619  0.9840 -0.2281 -0.7497
 1842TIP3   OH227016   5.719   1.586   2.581 -0.5029 -0.1374  0.8175
 1842TIP3    H127017   5.727   1.510   2.639 -0.9338 -0.9373 -0.1437
 1842TIP3    H227018   5.668   1.649   2.632  1.9716  0.5723  2.6306
 1843TIP3   OH227019   2.417   6.206   3.559 -0.7966 -0.5918  0.5508
 1843TIP3    H127020   2.425   6.127   3.505 -1.8823  0.1098 -0.7079
 1843TIP3    H227021   2.507   6.233   3.576 -0.4054 -0.9055 -0.8662
 1844TIP3   OH227022   0.284   5.721  12.156  0.2820  0.2641  0.1217
 1844TIP3    H127023   0.220   5.653  12.179 -0.2541  1.3350  2.0009
 1844TIP3    H227024   0.267   5.739  12.064 -0.2794 -1.3756 -0.1344
 1845TIP3   OH227025   2.100   1.994  16.343  0.0563 -0.6973  0.1782
 1845TIP3    H127026   2.150   2.069  16.311  0.3740 -1.2119 -0.5624
 1845TIP3    H227027   2.051   2.028  16.418 -0.5597  0.4891 -0.7355
 1846TIP3   OH227028   0.639   1.426  17.081 -0.0222  0.0078  0.1165
 1846TIP3    H127029   0.612   1.341  17.047 -2.2156 -0.1337  1.9778
 1846TIP3    H227030   0.558   1.476  17.089  0.8724  1.3487  1.4562
 1847TIP3   OH227031   6.743   0.135  15.864  0.2786 -1.0084 -0.4086
 1847TIP3    H127032   6.651   0.158  15.875  0.6157 -0.4457  1.7673
 1847TIP3    H227033   6.742   0.043  15.837 -0.9232 -0.9983 -0.4216
 1848TIP3   OH227034   3.294   0.925  16.595  0.4281  0.7400 -0.0238
 1848TIP3    H127035   3.281   1.006  16.544 -0.8159  0.0780 -0.8167
 1848TIP3    H227036   3.236   0.862  16.553 -0.0962 -0.0369  1.8159
 1849TIP3   OH227037   0.676   3.850   0.712  0.4630  0.4403 -0.6466
 1849TIP3    H127038   0.751   3.793   0.695  0.8729  1.1284 -1.2052
 1849TIP3    H227039   0.707   3.910   0.780 -0.4299 -0.8666  0.9830
 1850TIP3   OH227040   6.076   5.052   4.103 -0.2270  0.0000  0.0544
 1850TIP3    H127041   6.027   5.087   4.029 -0.1244 -2.9348 -1.5567
 1850TIP3    H227042   6.014   4.996   4.149  1.2022 -3.5248 -1.8368
 1851TIP3   OH227043   4.829   1.497  17.139  0.2404  0.1171 -0.2407
 1851TIP3    H127044   4.876   1.506  17.221 -0.2887  0.8976 -0.0054
 1851TIP3    H227045   4.741   1.532  17.157 -0.5031 -1.4795 -0.6157
 1852TIP3   OH227046   5.041   6.133  14.177  0.1709  0.4942  0.0032
 1852TIP3    H127047   4.998   6.051  14.202  2.4199 -0.8210 -0.0872
 1852TIP3    H227048   5.060   6.176  14.260 -0.9345  0.9103  0.0558
 1853TIP3   OH227049   5.815   2.086  12.833  0.6903 -0.4099 -0.1007
 1853TIP3    H127050   5.853   2.157  12.781  0.1695 -0.6277 -0.7946
 1853TIP3    H227051   5.786   2.021  12.768  0.4644 -0.9093  0.4838
 1854TIP3   OH227052   2.444   6.530  14.761  0.1548  0.6749  0.1261
 1854TIP3    H127053   2.444   6.625  14.749 -1.1647  0.5622 -1.0348
 1854TIP3    H227054   2.473   6.495  14.677 -1.9660  0.0267 -0.4177
 1855TIP3   OH227055   1.057   2.234   5.495 -0.3196  0.5411 -0.3758
 1855TIP3    H127056   1.048   2.328   5.511  0.4610  0.4472  0.7308
 1855TIP3    H227057   1.119   2.204   5.561 -2.2593 -1.1564  0.8373
 1856TIP3   OH227058   3.789   1.683   6.294  0.0520  0.4689 -0.1868
 1856TIP3    H127059   3.842   1.672   6.373  3.2744 -0.4832 -2.2959
 1856TIP3    H227060   3.833   1.752   6.245 -2.1299  1.3471 -1.0376
 1857TIP3   OH227061   3.613   2.208  13.115 -0.0479  0.8925  0.6348
 1857TIP3    H127062   3.572   2.259  13.045 -0.9479 -1.9889 -1.0993
 1857TIP3    H227063   3.682   2.265  13.149  0.1776  2.5822 -2.3405
 1858TIP3   OH227064   5.816   1.311  14.553 -0.4606 -0.5080  0.4326
 1858TIP3    H127065   5.830   1.361  14.473 -0.3641  0.1325  0.8446
 1858TIP3    H227066   5.738   1.259  14.535 -1.9121  1.4467  0.7679
 1859TIP3   OH227067   4.331   0.208   3.930  0.1772  0.0107 -0.2617
 1859TIP3    H127068   4.240   0.194   3.955  0.2169 -1.7333 -0.9980
 1859TIP3    H227069   4.340   0.168   3.844  1.9849 -1.2152  0.4248
 1860TIP3   OH227070   3.066   1.084  16.885  0.5995 -0.0424 -0.8783
 1860TIP3    H127071   3.113   1.161  16.852  3.1216 -1.2901 -0.4471
 1860TIP3    H227072   3.031   1.042  16.806 -3.2000  2.7776 -0.9998
 1861TIP3   OH227073   2.981   6.292   2.178 -0.2764  0.1495  0.0279
 1861TIP3    H127074   3.005   6.350   2.106 -1.3901  1.3318  0.5678
 1861TIP3    H227075   3.014   6.336   2.257  0.0040 -0.6007  0.3432
 1862TIP3   OH227076   0.110   4.348  15.246  0.2638 -0.0832  0.4027
 1862TIP3    H127077   0.135   4.341  15.154 -1.0466 -1.7768  0.1382
 1862TIP3    H227078   0.019   4.376  15.245  0.6333  1.2668  1.2474
 1863TIP3   OH227079   4.969   0.539  16.849  0.0280 -0.2057 -0.4713
 1863TIP3    H127080   5.057   0.578  16.842  0.4776 -1.1988 -0.5175
 1863TIP3    H227081   4.958   0.490  16.768  1.1288 -3.4193  1.1243
 1864TIP3   OH227082   1.239   4.466  16.700 -0.0826 -0.4658  0.1700
 1864TIP3    H127083   1.299   4.444  16.772  0.2666 -1.0066 -0.2782
 1864TIP3    H227084   1.282   4.431  16.622 -0.1620  0.6529 -0.3948
 1865TIP3   OH227085   3.669   1.812   5.514 -0.0602 -0.3560 -0.4463
 1865TIP3    H127086   3.584   1.805   5.471 -0.1387 -1.0800 -0.1928
 1865TIP3    H227087   3.665   1.748   5.586 -0.1228  1.1752  0.9740
 1866TIP3   OH227088   6.548   6.143  14.084 -0.3089  0.0718 -0.1054
 1866TIP3    H127089   6.467   6.155  14.035  1.1121  0.9821 -2.3790
 1866TIP3    H227090   6.616   6.138  14.017  2.0307  3.4327  1.7190
 1867TIP3   OH227091   2.655   0.781  16.353  0.2557  0.1072  0.5119
 1867TIP3    H127092   2.645   0.867  16.311 -1.5274 -0.3433 -0.0721
 1867TIP3    H227093   2.601   0.722  16.300  0.6857 -1.1948  1.4702
 1868TIP3   OH227094   4.558   1.533   1.409  0.6505 -0.0558  0.0152
 1868TIP3    H127095   4.573   1.615   1.361  0.1973 -2.4657 -4.7986
 1868TIP3    H227096   4.644   1.491   1.410  0.4098 -0.5384  0.3240
 1869TIP3   OH227097   3.797   2.949  14.016  0.2733 -0.3801 -0.1209
 1869TIP3    H127098   3.785   2.879  13.952 -0.5394 -0.2293 -0.1410
 1869TIP3    H227099   3.876   2.994  13.987  0.5739 -1.0315 -0.3385
 1870TIP3   OH227100   6.223   0.430  14.547  0.1824  0.4271 -0.4933
 1870TIP3    H127101   6.190   0.398  14.463  1.8495  0.5095 -1.2143
 1870TIP3    H227102   6.216   0.355  14.606 -1.1022  0.4023 -0.6477
 1871TIP3   OH227103   2.046   5.167   4.555 -0.1191 -0.0358 -0.5221
 1871TIP3    H127104   2.139   5.143   4.546 -0.0089 -0.3517  1.0902
 1871TIP3    H227105   2.012   5.105   4.620 -1.4197  0.2050 -0.9527
 1872TIP3   OH227106   5.776   0.537  10.899 -0.4775 -0.4069 -0.0295
 1872TIP3    H127107   5.844   0.600  10.923 -0.3040 -0.2754 -0.8421
 1872TIP3    H227108   5.818   0.479  10.836 -0.9579 -0.6731 -0.1113
 1873TIP3   OH227109   3.219   5.369  16.330 -0.3800  0.2685 -0.3039
 1873TIP3    H127110   3.241   5.459  16.356 -0.6821  0.5677 -1.0713
 1873TIP3    H227111   3.201   5.325  16.413 -0.0421  0.8639  0.1005
 1874TIP3   OH227112   4.236   1.413   0.626  0.2467  0.4103 -0.2379
 1874TIP3    H127113   4.161   1.377   0.674 -0.3796  0.6089 -1.0386
 1874TIP3    H227114   4.307   1.416   0.691 -0.0457 -1.0196  0.1942
 1875TIP3   OH227115   2.985   2.322   5.291 -0.0588  0.1982 -0.2520
 1875TIP3    H127116   2.974   2.259   5.363 -1.7295  1.3779  0.5810
 1875TIP3    H227117   2.937   2.283   5.218  0.8057 -0.5320 -0.4470
 1876TIP3   OH227118   0.775   4.236  11.257  0.1301 -0.7590  0.1471
 1876TIP3    H127119   0.853   4.191  11.224 -0.0145 -1.7466  1.0841
 1876TIP3    H227120   0.810   4.307  11.311  0.3646 -0.3805 -0.4892
 1877TIP3   OH227121   6.130   2.337   4.460 -0.1900 -0.5616  0.3670
 1877TIP3    H127122   6.079   2.261   4.487 -1.6177 -0.6700 -2.2842
 1877TIP3    H227123   6.069   2.389   4.407  1.2630  1.5368  0.6325
 1878TIP3   OH227124   1.434   5.889   0.708  0.5283  0.1383  0.7280
 1878TIP3    H127125   1.516   5.916   0.667  1.6781 -0.5282  2.4530
 1878TIP3    H227126   1.376   5.964   0.699  1.6014  0.9281  0.1888
 1879TIP3   OH227127   0.792   6.664   3.209 -0.4232 -0.4171 -0.0201
 1879TIP3    H127128   0.697   6.664   3.224 -1.0396  0.8895 -3.1235
 1879TIP3    H227129   0.813   6.573   3.190 -0.7636 -0.9406  1.9131
 1880TIP3   OH227130   2.470   3.539  13.919 -0.4693 -0.0014 -0.7309
 1880TIP3    H127131   2.485   3.526  14.012 -1.3159 -0.3004 -0.6309
 1880TIP3    H227132   2.397   3.481  13.898  0.0127 -0.2994 -1.6806
 1881TIP3   OH227133   5.331   2.304  11.115  1.0187 -0.4150 -0.3580
 1881TIP3    H127134   5.329   2.212  11.089  1.2397 -0.7345  0.7112
 1881TIP3    H227135   5.255   2.315  11.171  1.1190  0.0032 -0.2956
 1882TIP3   OH227136   3.669   5.198   0.219  0.2011 -0.1888 -0.6085
 1882TIP3    H127137   3.747   5.201   0.274 -1.4916  0.2219  1.9424
 1882TIP3    H227138   3.629   5.113   0.237 -0.8982  0.3504 -0.3980
 1883TIP3   OH227139   3.526   5.690  16.042 -0.2580  0.1851  0.0445
 1883TIP3    H127140   3.600   5.669  15.986  2.3943 -0.8298  3.5669
 1883TIP3    H227141   3.530   5.786  16.052 -1.3579  0.5108 -2.0648
 1884TIP3   OH227142   2.272   2.762  13.518 -0.2884 -1.0089 -0.2151
 1884TIP3    H127143   2.249   2.846  13.479  0.6956 -0.6366 -0.0229
 1884TIP3    H227144   2.353   2.779  13.567 -1.5931 -1.3631  2.2558
 1885TIP3   OH227145   1.795   0.003  15.935  0.3438  0.2586 -0.8101
 1885TIP3    H127146   1.852  -0.066  15.901 -1.2112 -1.5301  0.0137
 1885TIP3    H227147   1.739  -0.042  15.999 -0.5520  2.3617 -0.0333
 1886TIP3   OH227148   6.476   0.479   3.201 -0.2537 -0.0510  0.2642
 1886TIP3    H127149   6.510   0.445   3.284 -0.6501  0.2225  0.5362
 1886TIP3    H227150   6.400   0.531   3.225 -0.3556  0.0516 -0.2703
 1887TIP3   OH227151   3.432   0.286   2.627 -0.5663 -0.0495  0.0320
 1887TIP3    H127152   3.393   0.314   2.544 -1.6717 -0.8207  0.2813
 1887TIP3    H227153   3.519   0.254   2.602 -0.8702 -0.2386 -0.8361
 1888TIP3   OH227154   6.798   5.895  12.568  0.4851 -0.1792  0.0837
 1888TIP3    H127155   6.704   5.911  12.565  0.5359  0.5193  1.3629
 1888TIP3    H227156   6.835   5.960  12.507  0.1500 -0.4149 -0.3738
 1889TIP3   OH227157   6.737   2.556  12.479  0.5966  0.1003 -0.2221
 1889TIP3    H127158   6.690   2.580  12.558  0.2860 -3.1339  0.7445
 1889TIP3    H227159   6.809   2.618  12.473 -1.7862  3.1194  0.1024
 1890TIP3   OH227160   0.946   0.566  16.003  0.2743 -0.2268  0.4228
 1890TIP3    H127161   0.992   0.622  15.940  2.8053 -1.9506  0.5805
 1890TIP3    H227162   0.963   0.477  15.972 -2.3124 -1.0326  1.0370
 1891TIP3   OH227163   2.055   3.400  14.312  0.4103 -0.2258 -0.2375
 1891TIP3    H127164   2.144   3.397  14.278  0.8108 -0.5888  0.8175
 1891TIP3    H227165   2.027   3.309  14.317 -0.4654 -0.0682 -1.6473
 1892TIP3   OH227166   5.678   3.193   0.531  0.1721 -0.3914 -0.7668
 1892TIP3    H127167   5.735   3.263   0.499  0.6705 -1.1513 -1.5950
 1892TIP3    H227168   5.643   3.152   0.452 -2.5991  0.8745 -0.2808
 1893TIP3   OH227169   1.916   2.998  16.505 -0.4144 -0.6055  0.0639
 1893TIP3    H127170   1.910   2.902  16.509 -0.8608 -0.5646  0.4722
 1893TIP3    H227171   1.864   3.028  16.579  2.3318 -0.1197  1.9358
 1894TIP3   OH227172   0.404   0.993   4.741 -0.3851 -0.1266 -0.1769
 1894TIP3    H127173   0.322   0.945   4.748 -0.2786 -0.1574  1.1123
 1894TIP3    H227174   0.386   1.079   4.780  0.6786 -0.8119  1.9988
 1895TIP3   OH227175   0.629   5.018  11.641 -0.0384  0.2390  0.1120
 1895TIP3    H127176   0.699   5.049  11.584  1.0380 -0.1612  1.1725
 1895TIP3    H227177   0.669   4.949  11.693 -1.3202 -0.2289  0.5314
 1896TIP3   OH227178   3.950   0.127  16.581  0.0975  0.1425  0.0941
 1896TIP3    H127179   3.917   0.066  16.648 -0.3679  0.6158  0.3023
 1896TIP3    H227180   3.908   0.210  16.602  0.0044  0.3144 -0.7495
 1897TIP3   OH227181   0.095   2.064   0.825 -0.2024  0.3296 -0.3052
 1897TIP3    H127182   0.165   2.095   0.768 -0.0897  1.0197  0.1949
 1897TIP3    H227183   0.058   2.144   0.862 -1.1819 -0.0342 -0.4730
 1898TIP3   OH227184   5.219   2.274  13.785 -0.5006 -0.1232 -0.2403
 1898TIP3    H127185   5.183   2.214  13.850  1.2796  1.3698  2.2941
 1898TIP3    H227186   5.314   2.263  13.792 -0.1852  1.8012 -0.8247
 1899TIP3   OH227187   3.545   4.481  16.455  0.4235  0.4286  0.2650
 1899TIP3    H127188   3.603   4.418  16.412 -0.5516 -0.5365  0.3225
 1899TIP3    H227189   3.547   4.557  16.397 -2.6085 -1.6042 -2.9507
 1900TIP3   OH227190   4.668   2.663   1.087 -0.0000 -0.0540 -0.8001
 1900TIP3    H127191   4.681   2.571   1.112 -0.3633  0.3727  1.0351
 1900TIP3    H227192   4.577   2.667   1.057  0.4518 -0.5714 -2.3796
 1901TIP3   OH227193   3.871   4.708  17.245  0.3834 -0.0996 -0.0468
 1901TIP3    H127194   3.881   4.786  17.191  1.6489 -0.5326 -0.4657
 1901TIP3    H227195   3.833   4.643  17.185 -1.1937  0.3161  0.4428
 1902TIP3   OH227196   5.525   0.379  11.744  0.0047  0.3525 -0.4515
 1902TIP3    H127197   5.581   0.453  11.720  0.5258 -0.4194 -1.7052
 1902TIP3    H227198   5.523   0.324  11.666 -1.5705 -0.2362 -0.0354
 1903TIP3   OH227199   6.563   3.937   2.745  0.0368 -0.2076  0.2769
 1903TIP3    H127200   6.497   3.872   2.768 -0.0163  0.4347  2.0682
 1903TIP3    H227201   6.628   3.932   2.815  1.2718  0.0391 -0.8033
 1904TIP3   OH227202   3.186   2.151   1.329  0.0561 -0.0018  0.2216
 1904TIP3    H127203   3.171   2.099   1.250 -0.9543  1.4834 -0.6062
 1904TIP3    H227204   3.275   2.128   1.355  0.8470  0.2815 -2.0033
 1905TIP3   OH227205   0.054   4.445  11.882 -0.2427 -0.0344  0.4146
 1905TIP3    H127206   0.024   4.383  11.816  2.1931 -0.4952 -0.3703
 1905TIP3    H227207   0.021   4.410  11.965  0.5619 -2.0940 -0.0796
 1906TIP3   OH227208   3.297   1.767  13.025  0.6790  0.1923 -0.2971
 1906TIP3    H127209   3.228   1.807  12.972 -0.0394 -0.8241 -0.1683
 1906TIP3    H227210   3.307   1.826  13.100 -2.5461 -1.3158  1.5094
 1907TIP3   OH227211   5.936   3.858  14.829  0.4066  0.4104  0.1920
 1907TIP3    H127212   5.981   3.793  14.883  0.4422  0.3369  0.0741
 1907TIP3    H227213   5.861   3.812  14.792  0.9144  0.1809 -0.5924
 1908TIP3   OH227214   6.760   2.264   0.077 -0.0235  0.2076  0.2885
 1908TIP3    H127215   6.720   2.336   0.127  0.5564  0.5205  0.3068
 1908TIP3    H227216   6.854   2.282   0.080 -0.0649  2.3600 -4.0599
 1909TIP3   OH227217   2.581   5.943  12.798 -0.6158 -0.3448  0.2315
 1909TIP3    H127218   2.501   5.951  12.850 -0.8879 -2.1894  0.1468
 1909TIP3    H227219   2.652   5.952  12.861 -0.7533  2.8849  0.1113
 1910TIP3   OH227220   2.658   5.385   5.809  0.3402  0.3011  0.0643
 1910TIP3    H127221   2.654   5.392   5.904  0.7344 -1.6422  0.2754
 1910TIP3    H227222   2.587   5.441   5.778  0.2334  1.0061  1.4849
 1911TIP3   OH227223   4.486   0.245  14.515 -0.0136  0.1460 -0.1095
 1911TIP3    H127224   4.552   0.198  14.464 -1.5577 -1.1342 -1.0247
 1911TIP3    H227225   4.403   0.215  14.479 -1.1329  0.7259  1.8697
 1912TIP3   OH227226   5.124   3.794  16.244 -0.2134  0.3643 -0.2420
 1912TIP3    H127227   5.209   3.751  16.239 -0.0272  0.6329  0.4889
 1912TIP3    H227228   5.073   3.755  16.173  0.4145 -0.0256 -0.4844
 1913TIP3   OH227229   1.180   3.588   3.907  0.7720 -0.0413 -0.0992
 1913TIP3    H127230   1.174   3.496   3.930 -0.3317 -0.1083 -0.6083
 1913TIP3    H227231   1.090   3.615   3.891  1.2517  0.6009 -1.9770
 1914TIP3   OH227232   2.581   3.480   3.825 -0.8087  0.4563  0.0361
 1914TIP3    H127233   2.670   3.456   3.850 -1.5760 -2.0492  0.6810
 1914TIP3    H227234   2.530   3.470   3.905 -2.0984 -0.8732 -0.8972
 1915TIP3   OH227235   2.108   5.797   5.032  0.5754 -0.0250  0.0588
 1915TIP3    H127236   2.022   5.839   5.029  1.0037  1.0584  1.7387
 1915TIP3    H227237   2.088   5.704   5.045 -0.3523 -0.2196 -2.2395
 1916TIP3   OH227238   5.553   1.952  14.478 -0.0658 -0.0049  0.1986
 1916TIP3    H127239   5.480   1.936  14.419  1.2692 -0.9627 -1.2682
 1916TIP3    H227240   5.558   1.872  14.532 -1.2024  0.8143  1.5836
 1917TIP3   OH227241   2.966   5.354   2.627  0.3418  0.1772 -0.2915
 1917TIP3    H127242   3.019   5.431   2.645  1.3267 -0.6709  0.5867
 1917TIP3    H227243   2.987   5.330   2.537 -1.5706  2.1184 -1.3434
 1918TIP3   OH227244   5.997   6.322   3.914 -0.5081 -0.1609 -0.0663
 1918TIP3    H127245   5.940   6.265   3.965 -0.3747 -1.1199 -0.9596
 1918TIP3    H227246   5.963   6.410   3.929 -1.4537 -0.5911  0.3889
 1919TIP3   OH227247   6.726   4.480   3.458 -0.0756  0.2782 -0.7660
 1919TIP3    H127248   6.735   4.565   3.413 -1.8610  1.5948  1.1466
 1919TIP3    H227249   6.637   4.452   3.437 -0.0672 -0.3013 -0.0460
 1920TIP3   OH227250   5.236   1.289  13.838  0.0950 -0.1767 -0.0040
 1920TIP3    H127251   5.259   1.245  13.920  0.3382 -1.0429 -0.5274
 1920TIP3    H227252   5.168   1.235  13.799  0.9522 -0.5381 -1.0402
 1921TIP3   OH227253   5.611   5.579   1.719  0.3429  0.0382 -0.4505
 1921TIP3    H127254   5.633   5.510   1.656  0.8727 -1.2931  1.1175
 1921TIP3    H227255   5.592   5.532   1.800 -2.1918  1.5649 -0.0490
 1922TIP3   OH227256   4.687   2.104   0.867  0.0235  0.1043  0.2038
 1922TIP3    H127257   4.612   2.084   0.924  0.1281 -0.9134 -0.0012
 1922TIP3    H227258   4.686   2.199   0.860 -1.4168  0.0948 -0.0113
 1923TIP3   OH227259   3.816   3.514   6.152  0.0207 -0.5316 -0.3049
 1923TIP3    H127260   3.911   3.498   6.149  0.0768 -0.4313  0.6084
 1923TIP3    H227261   3.803   3.565   6.232 -0.9280 -1.3994  0.1247
 1924TIP3   OH227262   1.461   4.786  14.038 -0.0263 -0.1443  0.3272
 1924TIP3    H127263   1.515   4.797  14.116  1.0905 -1.6686 -0.1977
 1924TIP3    H227264   1.425   4.873  14.022  1.5335  0.7096  1.2248
 1925TIP3   OH227265   5.486   5.418  14.362  0.1899  0.0229  0.0596
 1925TIP3    H127266   5.502   5.355  14.432  2.4335 -0.9441 -1.1948
 1925TIP3    H227267   5.516   5.501  14.397 -2.0611  0.3304  1.4523
 1926TIP3   OH227268   3.541   4.093  16.856  0.0461  0.1260  0.5557
 1926TIP3    H127269   3.450   4.089  16.828 -0.4999  0.6389  2.1282
 1926TIP3    H227270   3.551   4.182  16.892  1.7726  0.8195 -1.4675
 1927TIP3   OH227271   6.043   0.209  14.591 -0.3543  0.1885 -0.7733
 1927TIP3    H127272   6.124   0.161  14.604  0.4707  1.2607 -1.7617
 1927TIP3    H227273   6.052   0.249  14.505 -2.2204 -0.1915 -1.1848
 1928TIP3   OH227274   4.536   3.239   2.365  0.1134 -0.1051 -0.6341
 1928TIP3    H127275   4.529   3.324   2.323 -0.6204  0.1778  0.0299
 1928TIP3    H227276   4.465   3.187   2.327 -0.6845  0.2170  0.3737
 1929TIP3   OH227277   2.289   4.100  14.332  0.0876  0.3465 -0.1881
 1929TIP3    H127278   2.208   4.104  14.383  0.1300  1.5381 -0.1946
 1929TIP3    H227279   2.264   4.050  14.254 -0.7041  0.8578 -0.2807
 1930TIP3   OH227280   4.908   3.277  17.327  0.4772 -0.2510  0.0433
 1930TIP3    H127281   4.827   3.275  17.377  0.8043 -1.0438  0.5536
 1930TIP3    H227282   4.886   3.325  17.247 -0.3709 -0.0772  0.3737
 1931TIP3   OH227283   0.270   5.183   2.858 -0.1176  0.5975 -0.3826
 1931TIP3    H127284   0.211   5.258   2.852 -0.1860  0.4275 -2.8593
 1931TIP3    H227285   0.292   5.162   2.767 -0.1404 -2.4181  0.2083
 1932TIP3   OH227286   5.460   6.612   5.138  0.1837 -0.0485 -0.2004
 1932TIP3    H127287   5.449   6.592   5.045 -0.0259 -0.3698 -0.1093
 1932TIP3    H227288   5.377   6.586   5.177 -0.5925  2.1330 -0.2484
 1933TIP3   OH227289   3.522   6.299   5.406  0.1196 -0.0169 -0.6397
 1933TIP3    H127290   3.481   6.219   5.438 -3.0897  1.4641 -0.5660
 1933TIP3    H227291   3.577   6.329   5.478  0.9570 -1.8543 -0.4844
 1934TIP3   OH227292   0.624   5.910  16.543 -0.2931 -0.0675  0.4215
 1934TIP3    H127293   0.579   5.945  16.466  0.0147 -0.0895  0.2293
 1934TIP3    H227294   0.674   5.835  16.509  2.1823  1.6198  0.0366
 1935TIP3   OH227295   5.034   3.121  17.007  0.3838  0.2956  0.5398
 1935TIP3    H127296   5.056   3.088  17.094 -0.4601 -1.1752  0.2232
 1935TIP3    H227297   4.984   3.051  16.967  1.7620  0.4634 -1.5932
 1936TIP3   OH227298   4.068   1.393   2.230  0.0413  0.1404  0.6823
 1936TIP3    H127299   4.015   1.470   2.214  0.3177  0.1075 -0.4661
 1936TIP3    H227300   4.152   1.411   2.188  0.1771 -0.7038  0.5581
 1937TIP3   OH227301   2.273   4.344  17.192 -0.4237  0.0366  0.0845
 1937TIP3    H127302   2.208   4.411  17.215 -0.7119 -0.0804 -0.3709
 1937TIP3    H227303   2.357   4.384  17.216 -0.5959  0.5313 -0.1133
 1938TIP3   OH227304   5.271   3.378  11.969  0.1730 -0.2389  0.0210
 1938TIP3    H127305   5.271   3.402  12.061  0.2731 -2.6545  0.7258
 1938TIP3    H227306   5.179   3.371  11.946  0.1480  0.3444 -0.0542
 1939TIP3   OH227307   1.052   4.917  12.521  0.3723 -0.1809  0.0824
 1939TIP3    H127308   0.988   4.872  12.465 -1.0179 -0.5753  1.9031
 1939TIP3    H227309   1.119   4.851  12.536  0.7588 -0.0789 -1.0642
 1940TIP3   OH227310   4.997   5.516  14.118  0.0013  0.0834  0.1193
 1940TIP3    H127311   4.987   5.608  14.095  1.2788 -0.0196 -1.0128
 1940TIP3    H227312   5.092   5.502  14.119 -0.0998 -0.7751  2.2242
 1941TIP3   OH227313   2.442   4.956   1.073 -0.3235  0.0257 -0.1106
 1941TIP3    H127314   2.424   5.039   1.029  1.3349  1.4500  1.7310
 1941TIP3    H227315   2.461   4.895   1.001  1.3025  1.9884 -1.4723
 1942TIP3   OH227316   4.922   1.407  13.239  0.0656 -0.6781 -0.2582
 1942TIP3    H127317   4.982   1.334  13.232  0.4558 -0.7120  2.3187
 1942TIP3    H227318   4.978   1.484  13.244 -0.1056 -0.6192  1.1536
 1943TIP3   OH227319   4.055   5.025  15.556 -0.1221  0.0746 -0.0301
 1943TIP3    H127320   4.141   5.036  15.595  0.5598 -1.7093 -0.9160
 1943TIP3    H227321   4.071   5.013  15.462 -1.3077 -0.3695 -0.2076
 1944TIP3   OH227322   5.450   2.944   4.883 -0.0409  0.0722 -0.3510
 1944TIP3    H127323   5.392   2.875   4.916  0.9149 -0.5111  0.1538
 1944TIP3    H227324   5.472   2.996   4.960 -0.5016  0.7727 -0.6768
 1945TIP3   OH227325   6.436   4.577   0.301  0.4755 -0.1243  0.3093
 1945TIP3    H127326   6.432   4.599   0.208 -0.4001  1.0558  0.5963
 1945TIP3    H227327   6.378   4.502   0.310  0.6789 -0.3377 -0.1133
 1946TIP3   OH227328   1.085   1.551  13.209  0.6608  0.3590 -0.1530
 1946TIP3    H127329   1.015   1.524  13.150  0.7307  0.7162 -0.4085
 1946TIP3    H227330   1.041   1.579  13.289  0.3941  1.8771 -0.7972
 1947TIP3   OH227331   0.870   1.938  16.565  0.2123  0.7187  0.0772
 1947TIP3    H127332   0.887   1.868  16.502  1.5718 -0.4568  1.6498
 1947TIP3    H227333   0.905   1.905  16.648 -1.4842  2.2006  1.4796
 1948TIP3   OH227334   6.648   6.555  14.195 -0.2188 -0.2481  0.0077
 1948TIP3    H127335   6.624   6.466  14.172 -0.5596  0.0367 -0.7746
 1948TIP3    H227336   6.700   6.586  14.120  0.7086 -0.1024  0.6871
 1949TIP3   OH227337   1.677   3.525  17.085 -0.8868  0.5586 -0.0474
 1949TIP3    H127338   1.680   3.620  17.098 -1.3783  0.3603  1.7752
 1949TIP3    H227339   1.584   3.504  17.085 -0.7597 -0.0037  0.1348
 1950TIP3   OH227340   0.866   1.683   5.713 -0.5142 -0.0639 -0.1848
 1950TIP3    H127341   0.792   1.733   5.677 -0.5764  0.7597  1.0297
 1950TIP3    H227342   0.858   1.596   5.673 -0.7149  0.7264 -1.9290
 1951TIP3   OH227343   3.019   0.089  14.204  0.5569  0.3833  0.3853
 1951TIP3    H127344   3.076   0.043  14.141  0.1331  0.0020  0.2728
 1951TIP3    H227345   3.049   0.180  14.201 -0.5968  0.7719 -1.7250
 1952TIP3   OH227346   0.078   5.473   1.546 -0.3140  0.0023 -0.3167
 1952TIP3    H127347   0.006   5.515   1.594 -0.1347  2.5884 -2.1138
 1952TIP3    H227348   0.041   5.453   1.460  0.8814  0.6292 -0.9887
 1953TIP3   OH227349   2.341   1.452   3.577 -0.3183  0.0388  0.1527
 1953TIP3    H127350   2.420   1.506   3.584 -1.4233  1.8529 -0.6873
 1953TIP3    H227351   2.269   1.515   3.573 -1.8046 -1.5580  0.6188
 1954TIP3   OH227352   6.453   6.703  13.714 -0.0131 -0.3880  0.2253
 1954TIP3    H127353   6.534   6.653  13.728  0.1797  0.1877  1.3191
 1954TIP3    H227354   6.417   6.715  13.802  0.3208  1.9862  0.1121
 1955TIP3   OH227355   5.764   2.810  16.407  0.1838 -0.0660 -0.1923
 1955TIP3    H127356   5.693   2.746  16.410  1.1629 -1.1391  0.6696
 1955TIP3    H227357   5.809   2.792  16.324  1.1477 -1.2829  0.5711
 1956TIP3   OH227358   4.527   1.938  15.800 -0.2191  0.0617 -0.7904
 1956TIP3    H127359   4.495   1.906  15.885 -2.3957  0.3975 -1.4199
 1956TIP3    H227360   4.546   2.030  15.815  0.9307 -0.2260 -0.3156
 1957TIP3   OH227361   0.466   6.316   3.961 -0.2237 -0.0720 -0.5743
 1957TIP3    H127362   0.403   6.387   3.974  0.2914  0.2015  0.5528
 1957TIP3    H227363   0.544   6.360   3.927  0.0311 -0.1119 -0.0563
 1958TIP3   OH227364   1.385   3.495  16.240  0.2184  0.2708  0.9727
 1958TIP3    H127365   1.370   3.405  16.266  1.4900 -0.6973 -1.3481
 1958TIP3    H227366   1.344   3.502  16.154  1.4823  1.4339  0.4281
 1959TIP3   OH227367   3.299   4.351  17.358  0.1385  0.0650  0.6118
 1959TIP3    H127368   3.298   4.278  17.420  1.0340 -0.7268 -0.2658
 1959TIP3    H227369   3.391   4.362  17.336  0.0545  1.7222  0.9938
 1960TIP3   OH227370   3.160   3.016   2.331 -0.0875  0.3986 -0.1142
 1960TIP3    H127371   3.240   2.989   2.286 -0.6971 -0.3979 -0.7574
 1960TIP3    H227372   3.186   3.092   2.382  1.1228  0.0418 -0.1616
 1961TIP3   OH227373   6.090   2.089   2.523 -0.4549  0.2985 -0.3247
 1961TIP3    H127374   6.170   2.047   2.554 -0.2182  1.4523  0.7094
 1961TIP3    H227375   6.120   2.161   2.468 -0.7717  0.6096 -0.1029
 1962TIP3   OH227376   5.231   3.464   5.465 -0.1153 -0.1787 -0.7473
 1962TIP3    H127377   5.315   3.423   5.486 -0.9233 -1.4786  0.1044
 1962TIP3    H227378   5.181   3.394   5.422 -1.1916  0.1973 -0.1315
 1963TIP3   OH227379   5.689   4.309   5.115 -0.4936  0.0403 -0.0805
 1963TIP3    H127380   5.677   4.215   5.102  0.3816 -0.0123 -0.5941
 1963TIP3    H227381   5.641   4.328   5.196 -1.3392 -0.6934 -0.3914
 1964TIP3   OH227382   3.013   5.806   5.331 -0.2646  0.1889 -0.3065
 1964TIP3    H127383   3.061   5.724   5.342 -0.7812 -0.1259 -0.3642
 1964TIP3    H227384   3.023   5.852   5.414 -0.4564 -0.1983 -0.0659
 1965TIP3   OH227385   3.315   6.317   1.898  0.1839 -0.2246  0.0517
 1965TIP3    H127386   3.236   6.371   1.901  2.2596  3.0557  0.9883
 1965TIP3    H227387   3.316   6.272   1.983  0.2702  1.2876  0.8802
 1966TIP3   OH227388   4.022   0.304  12.968 -0.2901  0.5961  0.5306
 1966TIP3    H127389   4.047   0.213  12.955  0.8037  0.7376  1.4555
 1966TIP3    H227390   4.007   0.338  12.880  1.0467 -0.0081  0.0486
 1967TIP3   OH227391   3.458   0.484   4.725 -0.1369 -0.5754 -0.0156
 1967TIP3    H127392   3.382   0.444   4.682 -0.0088 -0.5507 -0.2642
 1967TIP3    H227393   3.510   0.409   4.755  2.0219 -0.7624 -3.7414
 1968TIP3   OH227394   5.154   6.506  14.495  0.7310 -0.1498 -0.7067
 1968TIP3    H127395   5.158   6.600  14.476 -0.2851  0.4414  1.5892
 1968TIP3    H227396   5.244   6.480  14.509  1.0231  0.4721 -1.3565
 1969TIP3   OH227397   3.658   4.202  15.771 -0.2662 -0.2735 -0.1365
 1969TIP3    H127398   3.716   4.231  15.841 -0.0028 -1.5760  0.1911
 1969TIP3    H227399   3.702   4.127  15.731 -1.5092 -1.0197 -0.1569
 1970TIP3   OH227400   3.743   1.962  17.219 -0.3158 -0.0644  0.2753
 1970TIP3    H127401   3.687   1.890  17.189  2.0053 -1.2926 -1.5258
 1970TIP3    H227402   3.746   2.022  17.145  1.9193 -0.8515 -0.3655
 1971TIP3   OH227403   3.905   2.673  12.746  0.0454  0.6068 -0.2009
 1971TIP3    H127404   3.882   2.582  12.765 -0.3001  0.6767 -0.2753
 1971TIP3    H227405   3.968   2.668  12.675  2.4331  0.2449  1.7804
 1972TIP3   OH227406   2.839   0.900   6.682  0.2117 -0.1370  0.3552
 1972TIP3    H127407   2.779   0.859   6.744 -0.5165  0.3524 -0.0133
 1972TIP3    H227408   2.924   0.895   6.725  0.0899 -1.7049  0.4746
 1973TIP3   OH227409   0.917   1.765   3.709  0.8605  0.1603 -0.4311
 1973TIP3    H127410   0.843   1.825   3.720  1.2304  1.1063 -2.5407
 1973TIP3    H227411   0.927   1.724   3.795 -2.9065 -1.0080 -0.3516
 1974TIP3   OH227412   1.621   0.208  13.391 -0.3011 -0.0127  0.3193
 1974TIP3    H127413   1.526   0.211  13.402 -0.4500 -0.1567 -0.8212
 1974TIP3    H227414   1.634   0.206  13.297  0.8682  1.1036  0.4291
 1975TIP3   OH227415   3.442   0.677  16.933  0.2372  0.2915 -0.2438
 1975TIP3    H127416   3.515   0.658  16.991 -0.6602  0.9450  1.1362
 1975TIP3    H227417   3.439   0.602  16.873  1.1572 -0.4162  0.5710
 1976TIP3   OH227418   0.660   1.436   3.727 -0.1488  0.0013 -0.2877
 1976TIP3    H127419   0.617   1.357   3.694  0.2902 -0.0140 -0.8418
 1976TIP3    H227420   0.593   1.505   3.720 -0.9084 -0.5263  1.2531
 1977TIP3   OH227421   1.496   1.896   3.744 -0.2170 -0.1702 -0.2741
 1977TIP3    H127422   1.422   1.848   3.708  1.0042 -1.2720 -1.4159
 1977TIP3    H227423   1.573   1.854   3.706  0.9722  1.6226  0.0024
 1978TIP3   OH227424   0.223   2.529  14.414 -0.3261  0.0121  0.3750
 1978TIP3    H127425   0.293   2.472  14.446  0.1459 -0.0188 -0.6508
 1978TIP3    H227426   0.264   2.616  14.409 -0.1054 -0.1403 -0.9277
 1979TIP3   OH227427   0.520   6.067   0.976 -0.0595  0.6684  0.3921
 1979TIP3    H127428   0.547   5.975   0.979  0.1872  0.7348  0.2513
 1979TIP3    H227429   0.466   6.074   0.898 -1.2564  0.3327  1.1710
 1980TIP3   OH227430   0.875   1.815   2.420 -0.7970 -0.2040 -0.5567
 1980TIP3    H127431   0.852   1.845   2.508 -2.8438 -0.7982 -0.8471
 1980TIP3    H227432   0.797   1.769   2.389  0.8760 -2.5018 -1.6008
 1981TIP3   OH227433   5.068   5.211  12.072  0.2048  0.2136 -0.5019
 1981TIP3    H127434   5.066   5.295  12.118  2.2198 -0.0685  0.2201
 1981TIP3    H227435   5.032   5.230  11.985 -1.1390  1.3689  0.2650
 1982TIP3   OH227436   1.518   3.597  12.227 -0.1996 -0.2068 -0.2241
 1982TIP3    H127437   1.583   3.548  12.276  0.0925  0.7419  0.3674
 1982TIP3    H227438   1.467   3.643  12.294 -0.3110  0.4749 -0.7589
 1983TIP3   OH227439   1.671   4.867  11.404 -0.0877 -0.6837 -0.6943
 1983TIP3    H127440   1.726   4.809  11.457  1.3624  2.3570  1.4377
 1983TIP3    H227441   1.582   4.835  11.418  0.6872 -2.9446 -0.4496
 1984TIP3   OH227442   6.575   5.437  13.716  0.2851 -0.3248 -0.2668
 1984TIP3    H127443   6.561   5.359  13.663 -1.1513  0.0458 -0.4752
 1984TIP3    H227444   6.550   5.510  13.659  4.6066  0.6909 -1.2838
 1985TIP3   OH227445   2.448   3.803   0.560  0.5174  0.6077 -0.2673
 1985TIP3    H127446   2.374   3.864   0.553  0.6595  0.6820 -1.1633
 1985TIP3    H227447   2.434   3.758   0.644 -0.7732  0.3151 -0.6241
 1986TIP3   OH227448   3.313   0.982   0.579 -0.0379 -0.2870 -0.0772
 1986TIP3    H127449   3.223   1.011   0.594  0.3681  0.4981  0.9840
 1986TIP3    H227450   3.344   1.033   0.505 -0.4680 -0.5881 -0.4703
 1987TIP3   OH227451   4.356   5.646   4.734 -1.0648 -0.0009 -0.0286
 1987TIP3    H127452   4.448   5.652   4.761 -1.1187 -1.3894  0.5697
 1987TIP3    H227453   4.308   5.691   4.803 -0.9299 -0.5960  0.4687
 1988TIP3   OH227454   3.250   2.116  14.453 -0.8953  0.4530 -0.3134
 1988TIP3    H127455   3.234   2.105  14.359 -0.7828 -1.1114 -0.1701
 1988TIP3    H227456   3.181   2.066  14.496  0.0171 -0.2330  0.4079
 1989TIP3   OH227457   0.935   2.384   2.260  0.3178 -0.3667  0.0942
 1989TIP3    H127458   0.900   2.334   2.186 -1.4616 -0.6458  1.0626
 1989TIP3    H227459   0.861   2.438   2.288  0.4965 -1.2785  2.5209
 1990TIP3   OH227460   4.359   6.295   4.080 -0.1901  0.2840 -0.1196
 1990TIP3    H127461   4.391   6.352   4.150  0.4795 -0.5534  0.2850
 1990TIP3    H227462   4.267   6.317   4.071  0.0819  1.4957 -0.0513
 1991TIP3   OH227463   3.235   2.256  13.960  0.3356  0.0565  0.5976
 1991TIP3    H127464   3.323   2.222  13.976  0.0623 -1.5362 -1.0556
 1991TIP3    H227465   3.198   2.265  14.048  1.7558 -0.2788  1.2738
 1992TIP3   OH227466   5.418   5.837   4.663 -0.7832 -0.3764  0.2350
 1992TIP3    H127467   5.425   5.832   4.758  1.5815  1.3612  0.2338
 1992TIP3    H227468   5.443   5.749   4.633 -1.5969 -0.9532  1.1665
 1993TIP3   OH227469   3.400   2.285   2.802 -0.1796 -0.1432  0.2291
 1993TIP3    H127470   3.358   2.262   2.719  0.8870  0.5644 -0.5323
 1993TIP3    H227471   3.346   2.356   2.838 -0.0850  0.2389 -0.3686
 1994TIP3   OH227472   1.168   4.359   3.593  0.6809 -0.5988 -0.4431
 1994TIP3    H127473   1.253   4.387   3.558  1.4409 -1.2861  0.7991
 1994TIP3    H227474   1.154   4.272   3.557  0.8517 -0.7735 -0.0989
 1995TIP3   OH227475   2.147   4.847   3.197  0.3004 -0.9026 -0.0276
 1995TIP3    H127476   2.091   4.843   3.120 -0.4859 -0.8046  0.5295
 1995TIP3    H227477   2.150   4.757   3.230 -0.1849 -0.7721  0.3926
 1996TIP3   OH227478   6.361   5.147   2.081  0.2847 -0.5030 -0.0698
 1996TIP3    H127479   6.269   5.132   2.060  0.2838 -0.4863 -0.0787
 1996TIP3    H227480   6.394   5.062   2.108 -0.4967 -0.0262  2.8142
 1997TIP3   OH227481   6.212   3.467  12.195 -0.2809  0.0499 -0.1579
 1997TIP3    H127482   6.308   3.472  12.190 -0.1858  0.0929  1.3113
 1997TIP3    H227483   6.191   3.500  12.282 -1.7700  1.5647 -1.0394
 1998TIP3   OH227484   6.677   5.621  17.266  0.4436 -0.1479 -0.0872
 1998TIP3    H127485   6.728   5.572  17.331 -0.6270 -1.3738 -0.1499
 1998TIP3    H227486   6.623   5.556  17.223 -2.6185  1.3124  1.2533
 1999TIP3   OH227487   5.194   3.065   5.356 -0.3383  0.1417  0.1267
 1999TIP3    H127488   5.159   3.146   5.392 -1.6282  0.0612 -0.9056
 1999TIP3    H227489   5.120   3.005   5.355 -0.0731 -0.1932 -1.6436
 2000TIP3   OH227490   5.192   5.555  16.941 -0.3611  0.0267 -0.5961
 2000TIP3    H127491   5.112   5.526  16.896  0.1174  0.0772 -1.5070
 2000TIP3    H227492   5.186   5.650  16.943  0.2153  0.1042 -1.7298
 2001TIP3   OH227493   2.572   0.614  16.037 -0.0668  0.5163  0.3389
 2001TIP3    H127494   2.512   0.644  16.105  0.8980  0.9797  0.9923
 2001TIP3    H227495   2.587   0.522  16.057 -2.2333 -0.2267 -1.0853
 2002TIP3   OH227496   4.521   6.688  16.815 -0.0480 -0.5583 -0.1238
 2002TIP3    H127497   4.615   6.682  16.797 -0.1467 -1.5298 -0.3856
 2002TIP3    H227498   4.514   6.755  16.883  0.7980 -0.2407 -0.3326
 2003TIP3   OH227499   5.357   3.698  12.465 -0.3923 -0.4196 -0.4198
 2003TIP3    H127500   5.407   3.755  12.407 -1.6410 -0.7389 -1.8575
 2003TIP3    H227501   5.406   3.700  12.548  1.2595  0.2873 -1.3571
 2004TIP3   OH227502   2.837   2.003   4.521  0.3589  0.1019  0.0722
 2004TIP3    H127503   2.788   1.954   4.587 -0.7052  2.7800  1.4179
 2004TIP3    H227504   2.919   2.026   4.565 -0.3910  1.9736  0.5982
 2005TIP3   OH227505   3.672   4.757  13.740  0.6526  0.8571  0.2484
 2005TIP3    H127506   3.606   4.792  13.800 -1.1822  0.1637 -1.2287
 2005TIP3    H227507   3.707   4.835  13.696 -0.2269  1.1671  0.0649
 2006TIP3   OH227508   2.531   2.002   0.313  0.2874 -0.3923 -0.3088
 2006TIP3    H127509   2.468   1.931   0.303  0.5900 -0.4274 -2.5006
 2006TIP3    H227510   2.591   1.972   0.381  0.0596 -1.9984 -0.7802
 2007TIP3   OH227511   4.032   4.452   3.284  0.1313  0.5465  0.2149
 2007TIP3    H127512   4.071   4.535   3.311 -2.1000  1.6899  0.1121
 2007TIP3    H227513   4.044   4.449   3.190  0.3540  0.6825  0.2387
 2008TIP3   OH227514   4.389   1.831   3.015 -0.2670 -1.0061  0.0804
 2008TIP3    H127515   4.477   1.865   3.033  0.1688 -1.2844 -1.3340
 2008TIP3    H227516   4.356   1.888   2.945  0.2566 -3.0271 -1.9452
 2009TIP3   OH227517   3.420   6.082   2.791  0.2711  0.4953 -0.1061
 2009TIP3    H127518   3.381   6.154   2.841  3.1496  0.9928  1.6671
 2009TIP3    H227519   3.381   6.003   2.829  0.5620  0.9675  1.2402
 2010TIP3   OH227520   2.804   5.359  12.866 -0.0292  0.5561  0.1401
 2010TIP3    H127521   2.832   5.273  12.897  0.4072 -0.0264 -1.7031
 2010TIP3    H227522   2.743   5.340  12.795 -0.3306  1.7803  0.0458
 2011TIP3   OH227523   2.429   3.150   3.263  0.1159 -0.1162 -0.0024
 2011TIP3    H127524   2.411   3.127   3.172  0.3645  0.2726 -0.1484
 2011TIP3    H227525   2.510   3.201   3.260 -0.8197  1.4398  0.2326
 2012TIP3   OH227526   6.050   3.415  12.758 -0.2690 -0.5182  0.3208
 2012TIP3    H127527   6.057   3.319  12.763  0.5419 -0.5739 -1.2582
 2012TIP3    H227528   6.061   3.435  12.665 -0.0256  1.1474  0.6781
 2013TIP3   OH227529   1.906   0.451   5.138 -0.2943 -0.1095  0.1159
 2013TIP3    H127530   1.895   0.431   5.045 -1.4763 -2.1428  0.6211
 2013TIP3    H227531   1.820   0.485   5.165  0.0179  0.3934  0.4917
 2014TIP3   OH227532   3.370   4.747  17.211  0.7117  0.0101 -0.2759
 2014TIP3    H127533   3.440   4.761  17.147  1.6475  0.5249  0.8373
 2014TIP3    H227534   3.414   4.718  17.290 -0.4657 -0.9267  0.0697
 2015TIP3   OH227535   6.201   4.364  16.857 -0.4317  0.2734  0.1869
 2015TIP3    H127536   6.196   4.276  16.821 -1.9766 -0.4958  2.1140
 2015TIP3    H227537   6.275   4.405  16.811 -1.1272 -1.2043 -2.3920
 2016TIP3   OH227538   0.763   2.761   4.839  0.1893 -0.1488  0.3199
 2016TIP3    H127539   0.731   2.680   4.879  1.1618  0.4314  2.4137
 2016TIP3    H227540   0.707   2.774   4.763 -2.9475 -0.4671  2.4028
 2017TIP3   OH227541   4.907   3.831   2.478 -0.2263 -0.0247  0.3304
 2017TIP3    H127542   4.855   3.752   2.487  1.0859 -0.9435  0.2228
 2017TIP3    H227543   4.938   3.850   2.566  2.2440 -1.6733 -0.0645
 2018TIP3   OH227544   6.614   3.547   3.365  0.4485 -0.1982  0.8932
 2018TIP3    H127545   6.544   3.482   3.373  0.4931 -0.1238  2.1745
 2018TIP3    H227546   6.627   3.578   3.455  0.8006  1.1906  0.3855
 2019TIP3   OH227547   4.689   2.269  16.823 -0.1254 -0.5720 -0.3736
 2019TIP3    H127548   4.667   2.277  16.731 -1.7537 -0.7425 -0.0327
 2019TIP3    H227549   4.784   2.282  16.827  0.0438 -1.0847 -2.1173
 2020TIP3   OH227550   2.132   4.393   1.075  0.2151  0.1437  0.0542
 2020TIP3    H127551   2.154   4.472   1.025  0.6620 -1.1890 -1.9442
 2020TIP3    H227552   2.208   4.336   1.064 -1.0436 -1.4913 -0.5068
 2021TIP3   OH227553   2.856   5.527  16.199  0.7485 -0.4258 -0.3096
 2021TIP3    H127554   2.864   5.437  16.167  1.1317 -0.4148 -0.2571
 2021TIP3    H227555   2.785   5.524  16.263  2.2143 -1.1971  1.3885
 2022TIP3   OH227556   5.675   5.807  17.129  0.4041 -0.0387 -0.3305
 2022TIP3    H127557   5.736   5.880  17.138 -0.8841  0.9926  0.2871
 2022TIP3    H227558   5.667   5.772  17.218  2.1798 -1.9611 -0.8506
 2023TIP3   OH227559   0.695   3.045   4.604 -0.4005 -0.2669 -0.3332
 2023TIP3    H127560   0.708   3.054   4.509 -1.7344  1.6351 -0.3615
 2023TIP3    H227561   0.612   2.999   4.613  0.3835 -1.7096 -0.0435
 2024TIP3   OH227562   0.709   5.501   0.332 -0.7392  0.6939  0.2993
 2024TIP3    H127563   0.796   5.463   0.337 -0.3141  1.5125 -0.6945
 2024TIP3    H227564   0.714   5.567   0.263 -2.0925  0.8917  0.3463
 2025TIP3   OH227565   5.606   5.851  14.814 -0.3821 -0.3777 -0.4640
 2025TIP3    H127566   5.685   5.873  14.764 -0.4189  0.0787 -0.3245
 2025TIP3    H227567   5.635   5.847  14.905 -0.7427  0.9595 -0.2716
 2026TIP3   OH227568   1.227   0.640   4.922 -0.2604  0.0674 -0.3358
 2026TIP3    H127569   1.150   0.640   4.978  1.9292  0.8911  2.9906
 2026TIP3    H227570   1.222   0.557   4.873 -2.9011 -0.1488  0.1886
 2027TIP3   OH227571   1.413   4.993  13.394 -0.1271  0.3730  0.2358
 2027TIP3    H127572   1.413   4.905  13.358  1.2133 -0.0962  1.2685
 2027TIP3    H227573   1.369   5.047  13.328  1.0879 -0.6453 -1.4739
 2028TIP3   OH227574   2.074   2.997  13.431  1.0004  0.5105 -0.4318
 2028TIP3    H127575   2.036   3.014  13.345  0.5671 -0.9934 -0.5626
 2028TIP3    H227576   2.052   3.075  13.483  0.2403  0.9137 -1.3247
 2029TIP3   OH227577   3.871   0.322   0.486 -0.4633  0.4939 -0.7551
 2029TIP3    H127578   3.775   0.324   0.487 -0.4658  1.0733 -1.3265
 2029TIP3    H227579   3.897   0.414   0.477  0.1813  0.4776  0.7166
 2030TIP3   OH227580   5.283   3.244  14.482  0.3026 -0.0843 -0.0889
 2030TIP3    H127581   5.208   3.274  14.532  1.4781  2.1509  0.4324
 2030TIP3    H227582   5.258   3.156  14.452 -2.4742  0.5771  0.0648
 2031TIP3   OH227583   2.774   6.010   4.303 -0.2878 -0.2271 -0.4018
 2031TIP3    H127584   2.814   5.937   4.350 -0.4480  0.8859  1.5915
 2031TIP3    H227585   2.754   6.074   4.371  1.5391  2.4988 -2.2217
 2032TIP3   OH227586   4.520   5.326   1.942 -0.2251 -0.1709 -0.6174
 2032TIP3    H127587   4.585   5.339   2.012  0.8847 -0.7450 -1.5088
 2032TIP3    H227588   4.449   5.386   1.964  1.1157  1.3514 -0.2236
 2033TIP3   OH227589   3.723   0.290  16.647 -0.0879  0.0350 -0.0812
 2033TIP3    H127590   3.669   0.368  16.632  0.0710  0.3283  0.8102
 2033TIP3    H227591   3.663   0.226  16.685 -0.3005 -0.4136 -1.1424
 2034TIP3   OH227592   0.244   2.321  11.825 -0.4759 -0.2534  0.3926
 2034TIP3    H127593   0.217   2.252  11.764  1.5377 -0.6567 -0.1088
 2034TIP3    H227594   0.236   2.402  11.773  1.0635 -0.5767 -0.4254
 2035TIP3   OH227595   0.608   1.575   1.313  0.1262  0.4833 -0.2516
 2035TIP3    H127596   0.636   1.501   1.258 -0.5918 -2.0165  2.5168
 2035TIP3    H227597   0.680   1.638   1.305  1.5606 -1.1758 -1.4887
 2036TIP3   OH227598   0.259   5.910   1.601 -0.2149 -0.3325  0.0379
 2036TIP3    H127599   0.354   5.903   1.592 -0.2116 -0.5645  0.2475
 2036TIP3    H227600   0.228   5.930   1.512  0.0677  0.1834  0.0523
 2037TIP3   OH227601   6.152   1.046   6.048  0.1218  0.3162  0.4244
 2037TIP3    H127602   6.113   1.132   6.063  0.7844  0.4031  1.8017
 2037TIP3    H227603   6.226   1.063   5.990 -1.8929  0.1192 -2.4145
 2038TIP3   OH227604   5.860   0.733   4.906 -0.0667  0.5052 -0.5739
 2038TIP3    H127605   5.846   0.685   4.825  1.6062 -0.9986 -0.0379
 2038TIP3    H227606   5.909   0.672   4.962 -2.1299  1.0346  2.0260
 2039TIP3   OH227607   3.271   5.716   4.610  0.0208  0.3192  1.0265
 2039TIP3    H127608   3.331   5.784   4.578 -0.2460  0.2164  0.2927
 2039TIP3    H227609   3.249   5.666   4.532 -0.0768 -0.3875  1.5031
 2040TIP3   OH227610   1.103   0.193   2.007  0.1569 -0.1647  0.2364
 2040TIP3    H127611   1.012   0.217   1.991  0.5680  1.5641  0.2917
 2040TIP3    H227612   1.099   0.103   2.039 -1.5364 -0.0729  0.3615
 2041TIP3   OH227613   0.697   4.249  12.911  0.3121  0.5572 -0.1481
 2041TIP3    H127614   0.691   4.215  13.000  0.8531  2.1041  0.5116
 2041TIP3    H227615   0.762   4.192  12.869  0.0226 -0.2152  0.4169
 2042TIP3   OH227616   4.146   5.426  11.629  0.3956  0.5744  0.5290
 2042TIP3    H127617   4.101   5.359  11.576  1.5098  0.0355  0.2242
 2042TIP3    H227618   4.225   5.382  11.661  0.8164  1.5533  0.8767
 2043TIP3   OH227619   3.274   1.821  14.185  0.1751 -0.0161  0.4866
 2043TIP3    H127620   3.206   1.770  14.141  0.5744  0.1437 -0.3342
 2043TIP3    H227621   3.351   1.764  14.183  0.4519  0.3599  0.1192
 2044TIP3   OH227622   0.970   3.672  14.683  0.1057  0.4900 -0.4076
 2044TIP3    H127623   1.025   3.596  14.667 -2.3321 -1.0402 -2.2468
 2044TIP3    H227624   0.950   3.668  14.777 -0.0524 -1.2362 -0.4912
 2045TIP3   OH227625   3.672   1.358  12.632  0.1015 -0.5257  0.6544
 2045TIP3    H127626   3.594   1.384  12.681  0.3075  1.0780  0.2142
 2045TIP3    H227627   3.668   1.410  12.552  1.0826 -1.2089  0.1449
 2046TIP3   OH227628   6.638   0.516  15.021 -0.3400 -0.0957  0.0200
 2046TIP3    H127629   6.700   0.583  14.993  0.7787 -0.4352  1.5977
 2046TIP3    H227630   6.619   0.537  15.112 -1.0554 -1.1250  0.1264
 2047TIP3   OH227631   6.673   4.770  13.030  0.2839  0.1544  0.6282
 2047TIP3    H127632   6.634   4.853  13.058  0.0534  1.2962 -2.6548
 2047TIP3    H227633   6.759   4.769  13.072 -0.7444  0.6276  2.9388
 2048TIP3   OH227634   5.476   6.014   2.463  0.1792 -0.7620  0.3974
 2048TIP3    H127635   5.455   5.927   2.431 -1.6485  0.5249 -2.3638
 2048TIP3    H227636   5.413   6.030   2.533 -1.1061 -0.8709 -0.6866
 2049TIP3   OH227637   2.589   2.681   0.566  0.4037  0.5038  0.0394
 2049TIP3    H127638   2.592   2.775   0.583 -2.8291  0.8709 -0.7866
 2049TIP3    H227639   2.651   2.667   0.494  0.2927  2.1944 -0.4151
 2050TIP3   OH227640   4.585   3.119  13.639  0.1765 -0.0485  0.1365
 2050TIP3    H127641   4.654   3.113  13.705  1.3459 -0.3972 -1.0662
 2050TIP3    H227642   4.558   3.211  13.641  0.3625 -0.0069  0.9428
 2051TIP3   OH227643   5.975   3.763   3.411  0.5444  0.4195  0.3538
 2051TIP3    H127644   5.982   3.800   3.500 -0.0552  1.2167  0.0799
 2051TIP3    H227645   5.935   3.833   3.359 -0.4284 -0.5479 -0.2362
 2052TIP3   OH227646   5.589   3.278   6.012  1.0103  0.4443  0.2860
 2052TIP3    H127647   5.676   3.264   5.976 -0.0342  1.3791 -2.9809
 2052TIP3    H227648   5.586   3.371   6.033  0.4708  0.6416 -0.6443
 2053TIP3   OH227649   1.436   3.818  17.195 -0.2086  0.1056 -0.3143
 2053TIP3    H127650   1.380   3.890  17.163 -3.0851 -0.8832  2.0863
 2053TIP3    H227651   1.457   3.842  17.285  1.8791 -0.4197 -0.6111
 2054TIP3   OH227652   1.940   5.710   0.819 -0.5062 -0.0639  0.5504
 2054TIP3    H127653   1.862   5.735   0.869 -1.1207 -3.6576  1.7361
 2054TIP3    H227654   1.923   5.619   0.793  2.0299  0.0158 -1.8152
 2055TIP3   OH227655   5.501   0.989   5.567 -0.6650 -0.4214  0.8221
 2055TIP3    H127656   5.431   0.969   5.506  1.1373  0.2672 -1.6142
 2055TIP3    H227657   5.575   0.937   5.536  0.0559 -0.8987  3.1240
 2056TIP3   OH227658   1.508   4.497   5.316  0.4376  0.6689  0.0859
 2056TIP3    H127659   1.520   4.591   5.331 -1.3240  1.0301 -0.4900
 2056TIP3    H227660   1.552   4.455   5.390  0.9882  1.9654  0.5188
 2057TIP3   OH227661   5.309   3.556   5.031 -0.8688  1.0301  0.1270
 2057TIP3    H127662   5.303   3.640   4.986 -1.9460  1.5151  1.1449
 2057TIP3    H227663   5.388   3.563   5.085  0.2618  0.5557 -1.3777
 2058TIP3   OH227664   0.738   3.979   1.885  0.3114  0.1899  0.8359
 2058TIP3    H127665   0.816   4.029   1.907  1.2797  1.0535 -3.5703
 2058TIP3    H227666   0.676   4.045   1.851 -0.2671 -1.0080 -0.5606
 2059TIP3   OH227667   0.353   3.864   3.478  0.4054 -0.0225 -0.0514
 2059TIP3    H127668   0.405   3.845   3.400  3.4150  0.6211  1.6544
 2059TIP3    H227669   0.351   3.959   3.483  1.5446 -0.0537  1.4135
 2060TIP3   OH227670   4.223   5.256  12.369 -0.1134  0.8215  0.3051
 2060TIP3    H127671   4.145   5.270  12.423  0.3563 -0.3221  1.3284
 2060TIP3    H227672   4.192   5.264  12.279 -1.4461  0.2419  0.6909
 2061TIP3   OH227673   3.909   3.963   6.668 -0.2289 -0.0968 -0.3501
 2061TIP3    H127674   3.982   4.019   6.693 -0.8868  0.6608 -0.0663
 2061TIP3    H227675   3.937   3.875   6.693  0.0838  0.3409  0.9329
 2062TIP3   OH227676   1.830   2.396   0.295 -0.5637 -0.0967  0.3419
 2062TIP3    H127677   1.820   2.454   0.220  0.5312  1.5477  1.4147
 2062TIP3    H227678   1.740   2.378   0.323 -0.9302  1.0107 -0.0601
 2063TIP3   OH227679   4.677   0.213  12.015  0.1385 -0.6611  0.2058
 2063TIP3    H127680   4.715   0.126  12.026 -0.4256 -1.0671 -0.8829
 2063TIP3    H227681   4.737   0.259  11.956  0.5598 -0.2196  0.9650
 2064TIP3   OH227682   0.779   0.152  12.036 -0.7371  0.5756  0.1275
 2064TIP3    H127683   0.814   0.062  12.034 -1.8976  0.0759  1.1960
 2064TIP3    H227684   0.847   0.204  11.994  0.5750 -0.5994  0.6861
 2065TIP3   OH227685   3.703   4.053  14.620  0.7028 -0.3085 -0.1365
 2065TIP3    H127686   3.781   4.042  14.565 -0.7483  0.9640 -2.6477
 2065TIP3    H227687   3.711   4.143  14.653 -1.1563  1.1078 -3.1363
 2066TIP3   OH227688   5.862   6.735   1.586 -0.0647  0.0852  0.0841
 2066TIP3    H127689   5.930   6.672   1.562  0.6031  0.4152  1.0347
 2066TIP3    H227690   5.796   6.727   1.517  0.1491 -1.4276  0.0116
 2067TIP3   OH227691   4.634   3.093   1.808 -0.4062 -0.1071  0.5105
 2067TIP3    H127692   4.574   3.026   1.839  1.4052 -0.8067  2.8664
 2067TIP3    H227693   4.691   3.048   1.746 -2.0001  0.4757 -1.4658
 2068TIP3   OH227694   6.358   2.825   0.030  0.0040 -0.8092  0.7584
 2068TIP3    H127695   6.284   2.846  -0.026  1.2165  1.6448 -0.0891
 2068TIP3    H227696   6.370   2.731   0.022 -2.5277 -1.1571  0.3661
 2069TIP3   OH227697   0.554   0.110  10.945 -0.1648  0.7734 -0.9472
 2069TIP3    H127698   0.540   0.197  10.982  0.9256  0.9371 -0.9014
 2069TIP3    H227699   0.528   0.050  11.015  0.2963  1.0684 -0.5195
 2070TIP3   OH227700   2.567   4.075   1.192 -0.0760 -0.0652 -0.1576
 2070TIP3    H127701   2.566   3.992   1.144  1.3600 -0.2811  0.1508
 2070TIP3    H227702   2.579   4.050   1.284 -2.1752  0.3790  0.2956
 2071TIP3   OH227703   3.053   5.939  12.840 -0.0033  0.3012  0.3828
 2071TIP3    H127704   3.132   5.984  12.870 -0.5531  2.5293 -1.2169
 2071TIP3    H227705   3.084   5.853  12.812  1.5203  0.4688  1.4297
 2072TIP3   OH227706   2.926   6.760  12.750  0.1056  0.3716 -0.6742
 2072TIP3    H127707   2.914   6.746  12.844 -0.4585 -1.4622 -0.9855
 2072TIP3    H227708   2.853   6.817  12.724  0.5579  1.3190  0.0565
 2073TIP3   OH227709   6.064   6.648   2.555  0.0894  0.5170  0.0973
 2073TIP3    H127710   6.061   6.636   2.460 -1.2086 -0.4695  0.2521
 2073TIP3    H227711   5.974   6.670   2.579 -0.1494 -1.6918  1.3970
 2074TIP3   OH227712   6.742   0.148   4.547 -0.0058 -0.3530  0.1180
 2074TIP3    H127713   6.652   0.131   4.577 -0.4164  0.9813 -0.2806
 2074TIP3    H227714   6.749   0.101   4.464  0.1254 -1.5641  0.7936
 2075TIP3   OH227715   2.562   2.814  13.617  0.1689  0.3971 -0.3066
 2075TIP3    H127716   2.581   2.889  13.560 -0.7409  0.5964 -0.3649
 2075TIP3    H227717   2.598   2.838  13.702  0.4794  0.6153 -0.5003
 2076TIP3   OH227718   3.443   4.571   1.959 -0.0446 -0.2338  0.1040
 2076TIP3    H127719   3.436   4.485   2.000  0.8405  0.2782  1.3956
 2076TIP3    H227720   3.364   4.618   1.989 -0.5203 -0.5726 -0.5899
 2077TIP3   OH227721   0.959   0.597   2.184  0.2569  0.2971  0.5583
 2077TIP3    H127722   0.974   0.515   2.231  1.4171  0.2159  0.0724
 2077TIP3    H227723   0.893   0.575   2.118  0.2982 -0.1528  0.6642
 2078TIP3   OH227724   1.570   6.392   3.677 -0.0866  0.0217  0.6475
 2078TIP3    H127725   1.487   6.371   3.636 -0.9588  1.1925  1.7147
 2078TIP3    H227726   1.628   6.417   3.604 -0.2723 -1.8961 -0.2083
 2079TIP3   OH227727   3.862   6.054   4.263  0.2845 -0.3571  0.0965
 2079TIP3    H127728   3.876   6.083   4.173  2.3584 -0.8205  0.2340
 2079TIP3    H227729   3.771   6.023   4.264  0.4055 -0.8994 -1.9798
 2080TIP3   OH227730   1.492   2.962   3.608 -0.3900  0.7155 -0.7061
 2080TIP3    H127731   1.566   3.018   3.583  0.0835 -0.7909 -2.9881
 2080TIP3    H227732   1.440   2.953   3.528 -1.6552 -0.2912  0.1937
 2081TIP3   OH227733   0.906   1.114   1.181  0.0926 -0.1924  0.1759
 2081TIP3    H127734   0.887   1.051   1.250 -0.8362  0.1833  0.2751
 2081TIP3    H227735   0.933   1.061   1.107 -1.1104 -0.7558  0.1167
 2082TIP3   OH227736   6.225   3.803   2.447 -0.6167  0.6135 -0.1626
 2082TIP3    H127737   6.229   3.790   2.541 -1.9168  2.6998  0.2300
 2082TIP3    H227738   6.293   3.868   2.428  0.3916 -0.5949 -0.8760
 2083TIP3   OH227739   1.076   5.822   5.802 -0.2813 -0.0342  0.3881
 2083TIP3    H127740   1.014   5.891   5.826  0.4885  0.4852  0.9147
 2083TIP3    H227741   1.113   5.851   5.719 -0.3482 -0.0786  0.3427
 2084TIP3   OH227742   6.293   1.688  10.163  0.4214 -0.1796  0.3909
 2084TIP3    H127743   6.264   1.750  10.097  1.6594  0.0700  0.0580
 2084TIP3    H227744   6.276   1.731  10.246 -0.9635 -0.4155  0.2491
 2085TIP3   OH227745   6.575   2.111  11.673 -0.5402 -0.1390 -0.3563
 2085TIP3    H127746   6.628   2.032  11.668 -1.2330 -0.5510 -1.3929
 2085TIP3    H227747   6.495   2.084  11.717 -0.6027  0.0875 -0.3290
 2086TIP3   OH227748   2.680   3.926   5.915  0.5087  0.2113  0.6828
 2086TIP3    H127749   2.726   3.933   5.999 -1.3377  0.6796  1.7246
 2086TIP3    H227750   2.667   4.017   5.888  0.3714  0.0829  0.3197
 2087TIP3   OH227751   1.428   1.420  16.519  0.3174  0.8205 -0.2555
 2087TIP3    H127752   1.444   1.342  16.572  1.2460  0.8776 -0.4326
 2087TIP3    H227753   1.364   1.392  16.453  0.4263  0.2947 -0.1388
 2088TIP3   OH227754   3.927   2.532  16.479  0.0110  0.2170 -0.3696
 2088TIP3    H127755   3.979   2.609  16.459  0.5115  0.4225  1.4958
 2088TIP3    H227756   3.853   2.536  16.418 -0.2099  2.4276 -0.0643
 2089TIP3   OH227757   0.008   2.616  16.740  0.4255 -0.3319 -0.3109
 2089TIP3    H127758   0.065   2.603  16.816  0.5877 -1.6495 -0.6416
 2089TIP3    H227759  -0.000   2.530  16.700  0.4010  0.3378 -1.8446
 2090TIP3   OH227760   6.087   5.416   2.176  0.4761  0.0061 -0.3214
 2090TIP3    H127761   6.045   5.454   2.099  1.6036  0.5415 -0.7053
 2090TIP3    H227762   6.167   5.467   2.186  1.2592 -1.2626  0.1013
 2091TIP3   OH227763   3.638   6.174   1.189 -0.1338 -0.7400 -0.2854
 2091TIP3    H127764   3.694   6.250   1.169  1.2293 -1.8760 -0.9698
 2091TIP3    H227765   3.699   6.102   1.203 -1.4066 -2.2610 -1.9459
 2092TIP3   OH227766   6.019   1.549   2.752  0.8808  0.4293  0.2174
 2092TIP3    H127767   6.022   1.488   2.678 -0.1129  0.3278  0.2430
 2092TIP3    H227768   5.974   1.500   2.821  0.3344  1.0821  0.3351
 2093TIP3   OH227769   4.517   2.779  11.571 -0.3686 -0.0515 -0.2104
 2093TIP3    H127770   4.557   2.793  11.485  1.1060 -0.6100  0.3454
 2093TIP3    H227771   4.497   2.867  11.603  1.5648  0.3492 -0.0089
 2094TIP3   OH227772   6.588   0.937   2.723  0.1667  0.0430  0.5311
 2094TIP3    H127773   6.643   0.909   2.649 -0.7509  0.8187 -0.4839
 2094TIP3    H227774   6.521   0.870   2.730 -0.3341  0.4786 -0.0098
 2095TIP3   OH227775   4.827   4.362   1.061  0.1818 -0.2844 -0.1101
 2095TIP3    H127776   4.842   4.268   1.062  2.1340 -0.1912 -3.7031
 2095TIP3    H227777   4.759   4.375   0.995 -2.1633  0.7646  2.3174
 2096TIP3   OH227778   5.147   4.184  17.362 -0.4711 -0.0626 -0.0169
 2096TIP3    H127779   5.218   4.236  17.399  1.0333 -2.3564  0.5508
 2096TIP3    H227780   5.184   4.150  17.280 -0.5704 -1.8661  0.6383
 2097TIP3   OH227781   2.983   0.274  16.101  0.6512  0.0378  0.7242
 2097TIP3    H127782   2.993   0.264  16.006 -0.8484 -0.3133  0.5754
 2097TIP3    H227783   3.024   0.196  16.138  0.1494 -0.4384  0.2917
 2098TIP3   OH227784   1.199   1.772   2.618  0.0023 -0.0561 -0.1436
 2098TIP3    H127785   1.288   1.747   2.643 -0.2748  0.3207  1.3382
 2098TIP3    H227786   1.143   1.716   2.671 -0.6526 -0.4118 -1.1948
 2099TIP3   OH227787   3.922   5.545   1.178 -0.1224 -0.2213 -0.7365
 2099TIP3    H127788   3.981   5.505   1.114 -0.6107 -0.7620 -0.8537
 2099TIP3    H227789   3.968   5.537   1.261  0.1823 -0.1963 -0.9018
 2100TIP3   OH227790   1.669   0.526   5.337 -0.4471 -0.1289 -0.7322
 2100TIP3    H127791   1.734   0.472   5.382 -0.3185 -1.5238 -2.5073
 2100TIP3    H227792   1.716   0.608   5.320  0.0055 -0.1665  0.2266
 2101TIP3   OH227793   1.800   6.166  14.386 -0.9459 -0.2345  0.6153
 2101TIP3    H127794   1.829   6.124  14.467 -1.2976  0.5697  1.1630
 2101TIP3    H227795   1.834   6.255  14.391 -0.1797 -0.4501 -0.5596
 2102TIP3   OH227796   0.288   0.936  16.946  0.2149 -0.2086  0.2009
 2102TIP3    H127797   0.301   1.021  16.905 -0.2724 -1.2206 -2.2541
 2102TIP3    H227798   0.220   0.894  16.893 -1.2485 -1.2572  2.7631
 2103TIP3   OH227799   4.156   6.519   5.405  0.3399 -0.3323 -0.1357
 2103TIP3    H127800   4.128   6.562   5.487 -1.2457  0.3209 -0.9706
 2103TIP3    H227801   4.114   6.433   5.408  0.8881 -0.5992  0.0578
 2104TIP3   OH227802   2.611   0.946  10.669 -0.5737 -0.1204  0.0857
 2104TIP3    H127803   2.580   1.014  10.730 -1.8458 -0.4058 -0.2093
 2104TIP3    H227804   2.531   0.911  10.631  0.0186 -2.1111  0.5639
 2105TIP3   OH227805   1.670   5.149  12.819 -0.1330  0.1888  0.9432
 2105TIP3    H127806   1.741   5.132  12.757 -0.6049 -1.2597  0.7496
 2105TIP3    H227807   1.599   5.184  12.766  0.3574  1.4673  1.1084
 2106TIP3   OH227808   1.946   6.206  15.048 -0.0403  0.2309  0.1594
 2106TIP3    H127809   1.956   6.280  14.988  0.0088  1.8523  2.0441
 2106TIP3    H227810   2.019   6.148  15.027 -0.0408  0.7304 -1.3404
 2107TIP3   OH227811   0.475   6.453  12.028  0.3323  0.0336 -0.3776
 2107TIP3    H127812   0.521   6.536  12.023 -0.5727  0.5765  0.1189
 2107TIP3    H227813   0.394   6.467  11.979  0.7952 -1.0020 -1.5013
 2108TIP3   OH227814   2.816   3.236   4.542  0.3353  0.1605  0.1548
 2108TIP3    H127815   2.869   3.232   4.462  0.6472  0.0038  0.3681
 2108TIP3    H227816   2.740   3.290   4.518 -0.0029 -0.5813 -0.4916
 2109TIP3   OH227817   3.766   3.052  17.186 -0.0055  0.6243  0.3721
 2109TIP3    H127818   3.750   3.003  17.267  0.3442  0.8942  0.6065
 2109TIP3    H227819   3.684   3.099  17.170  0.7471  2.6699  2.0299
 2110TIP3   OH227820   2.187   1.719  16.350 -0.3589 -0.5245 -0.8625
 2110TIP3    H127821   2.167   1.674  16.433  0.9300 -0.4361 -0.4827
 2110TIP3    H227822   2.143   1.803  16.358  0.0601 -0.3642 -0.0806
 2111TIP3   OH227823   3.684   3.550  15.152 -0.1718  0.1418  0.0921
 2111TIP3    H127824   3.727   3.599  15.082  0.6301 -1.3616 -0.5246
 2111TIP3    H227825   3.742   3.560  15.228 -0.4498  0.8155  0.2258
 2112TIP3   OH227826   4.586   2.507  11.198  0.2283  0.5350 -0.3466
 2112TIP3    H127827   4.671   2.493  11.156 -0.3178  0.8305 -1.6122
 2112TIP3    H227828   4.524   2.459  11.143 -0.4536  0.5243  0.4157
 2113TIP3   OH227829   2.239   5.877  16.234 -0.0561  0.1758 -0.0464
 2113TIP3    H127830   2.233   5.844  16.144 -1.1677  1.1789 -0.3738
 2113TIP3    H227831   2.278   5.964  16.224 -0.1696  0.2826  0.4474
 2114TIP3   OH227832   2.923   3.977  17.109 -0.1490 -0.2463  0.4319
 2114TIP3    H127833   2.834   3.997  17.136 -0.7276 -1.8660 -0.1426
 2114TIP3    H227834   2.931   4.017  17.022 -0.6060 -0.7227  0.1570
 2115TIP3   OH227835   6.150   5.262   5.338  0.0319 -0.3736  0.5704
 2115TIP3    H127836   6.171   5.176   5.300 -2.3952 -1.2016  0.8606
 2115TIP3    H227837   6.060   5.278   5.309  0.2433  1.8330  1.0093
 2116TIP3   OH227838   4.766   6.118  16.979  0.4320  0.2827 -0.0817
 2116TIP3    H127839   4.787   6.124  16.886  2.0893  0.9085  0.2994
 2116TIP3    H227840   4.741   6.206  17.004 -0.1439  0.0870  0.0472
 2117TIP3   OH227841   0.226   4.054   1.121  0.1950  0.3780 -0.2323
 2117TIP3    H127842   0.264   4.083   1.038 -2.6079 -0.4613 -1.9198
 2117TIP3    H227843   0.138   4.090   1.122 -0.4531 -1.0743  1.5894
 2118TIP3   OH227844   4.212   5.620   1.478  0.4948  0.0126  0.1785
 2118TIP3    H127845   4.220   5.647   1.387 -2.6306 -0.8890 -0.4731
 2118TIP3    H227846   4.185   5.699   1.524 -0.2591 -0.0618 -0.1298
 2119TIP3   OH227847   1.598   5.120   5.659 -0.7358  0.2278  0.3543
 2119TIP3    H127848   1.547   5.055   5.707  0.7917 -0.3302  1.3052
 2119TIP3    H227849   1.609   5.193   5.720  0.4142 -0.0773  0.5350
 2120TIP3   OH227850   4.912   6.774   4.122  0.1058  0.4585  0.6096
 2120TIP3    H127851   4.892   6.851   4.068  0.2121 -0.2483 -0.4623
 2120TIP3    H227852   4.912   6.701   4.061  1.1675 -0.2465  1.4128
 2121TIP3   OH227853   2.176   4.560  16.686 -0.6217 -0.0319  0.0335
 2121TIP3    H127854   2.179   4.497  16.758  0.5556  1.0342  0.9723
 2121TIP3    H227855   2.083   4.581  16.677 -0.8818 -0.8379  0.6597
 2122TIP3   OH227856   4.055   2.336  14.512  0.4799  0.5002  0.1529
 2122TIP3    H127857   4.051   2.356  14.605 -1.1768 -0.0725  0.2321
 2122TIP3    H227858   4.148   2.321  14.494  0.6864 -0.6573  1.9874
 2123TIP3   OH227859   2.910   6.778   3.724  0.3839 -0.2234 -0.0824
 2123TIP3    H127860   2.934   6.843   3.658 -0.2295 -1.4126 -1.5447
 2123TIP3    H227861   2.834   6.815   3.768  1.2473  0.9208  0.5109
 2124TIP3   OH227862   3.072   3.506  14.891  0.2541  0.3107 -0.1549
 2124TIP3    H127863   3.099   3.415  14.904  3.9873  1.0604 -1.3880
 2124TIP3    H227864   2.978   3.506  14.909  0.5194 -3.2650  2.3150
 2125TIP3   OH227865   6.371   0.574   5.826  0.1917  0.6610  0.2039
 2125TIP3    H127866   6.355   0.629   5.902 -2.1951  2.3630 -1.3711
 2125TIP3    H227867   6.437   0.621   5.775  1.8905 -0.5449  1.2052
 2126TIP3   OH227868   1.685   2.458   1.763 -0.1047 -0.3165 -0.4368
 2126TIP3    H127869   1.721   2.445   1.850 -1.8563 -1.3620  0.1674
 2126TIP3    H227870   1.748   2.416   1.704  0.6506 -0.3449  0.3702
 2127TIP3   OH227871   6.116   0.530  13.617 -0.0924 -0.0122  0.1334
 2127TIP3    H127872   6.114   0.564  13.707 -0.9352  0.2325  0.0367
 2127TIP3    H227873   6.132   0.436  13.627  2.5471  0.4034  0.3947
 2128TIP3   OH227874   6.560   4.958  14.146 -0.0989 -0.4271  0.0613
 2128TIP3    H127875   6.533   4.867  14.139  1.9955 -0.9379 -3.0126
 2128TIP3    H227876   6.570   4.988  14.056 -0.4191  2.8058  0.9440
 2129TIP3   OH227877   2.816   2.714  10.967  0.4436  0.4689 -0.4060
 2129TIP3    H127878   2.857   2.731  11.052  1.0634  0.9208 -0.7892
 2129TIP3    H227879   2.865   2.640  10.930 -1.1464 -1.1128  0.5046
 2130TIP3   OH227880   2.031   6.752   1.089  0.1115  0.6572 -0.3806
 2130TIP3    H127881   1.994   6.670   1.122  2.4494 -0.1646  0.4266
 2130TIP3    H227882   2.017   6.815   1.160  0.3614  0.3099 -0.0138
 2131TIP3   OH227883   0.061   2.804  14.859 -0.0844  0.3266 -0.3077
 2131TIP3    H127884  -0.033   2.810  14.875 -0.2592  0.0346 -1.2011
 2131TIP3    H227885   0.069   2.770  14.770  0.8759 -1.5068  0.4347
 2132TIP3   OH227886   4.664   0.759   4.397 -0.0243 -0.4315 -0.2248
 2132TIP3    H127887   4.637   0.725   4.312 -1.0248  0.9309 -0.4858
 2132TIP3    H227888   4.589   0.808   4.428  1.5301  2.1202 -0.1964
 2133TIP3   OH227889   4.163   6.464  11.853  0.3433 -0.2979  0.2163
 2133TIP3    H127890   4.200   6.471  11.765 -0.4520 -0.9695 -0.1829
 2133TIP3    H227891   4.080   6.511  11.847 -0.4033 -1.5976  0.1991
 2134TIP3   OH227892   6.450   5.754  13.937 -0.6235 -0.0813  0.1209
 2134TIP3    H127893   6.501   5.682  13.973 -0.3338  0.8514  1.6824
 2134TIP3    H227894   6.513   5.824  13.921 -1.0374  0.1829 -0.4319
 2135TIP3   OH227895   3.170   2.798   5.359  0.4053  0.1971  0.1873
 2135TIP3    H127896   3.105   2.795   5.430 -0.5371  0.6965 -0.6342
 2135TIP3    H227897   3.252   2.818   5.404  0.1165 -0.9590  1.3160
 2136TIP3   OH227898   0.864   0.449   6.308  0.2440  0.2374  0.0615
 2136TIP3    H127899   0.959   0.456   6.301  0.3219 -0.6290  0.1277
 2136TIP3    H227900   0.847   0.355   6.315 -0.2885  0.4283  4.1439
 2137TIP3   OH227901   1.654   3.862  11.580 -0.0222 -0.1798  0.1465
 2137TIP3    H127902   1.589   3.918  11.624  1.0901  0.0264  1.6165
 2137TIP3    H227903   1.688   3.916  11.509  0.9796  1.0487  1.4947
 2138TIP3   OH227904   4.730   1.797  11.641  0.2521  0.0016  0.2890
 2138TIP3    H127905   4.683   1.794  11.725 -0.4533  1.2635 -0.0308
 2138TIP3    H227906   4.673   1.848  11.584  1.1725 -0.0211 -0.6726
 2139TIP3   OH227907   2.189   3.768  14.666 -0.3396  0.1836  0.1270
 2139TIP3    H127908   2.120   3.721  14.711  0.1454 -0.4382  0.2261
 2139TIP3    H227909   2.230   3.822  14.734  0.1511 -0.4744  0.3619
 2140TIP3   OH227910   2.414   0.395  17.208 -0.0016  0.4930  0.4209
 2140TIP3    H127911   2.330   0.423  17.245 -1.4481 -2.6867 -0.0818
 2140TIP3    H227912   2.400   0.396  17.113  0.0305 -1.2542  0.3693
 2141TIP3   OH227913   5.292   1.214  12.786 -0.4796 -0.2423 -0.9223
 2141TIP3    H127914   5.311   1.164  12.707 -1.6600  1.1508 -2.1436
 2141TIP3    H227915   5.294   1.149  12.856  0.2101 -1.5914 -2.1337
 2142TIP3   OH227916   4.993   5.172  14.246  0.1077 -0.0601 -0.0670
 2142TIP3    H127917   4.976   5.196  14.337  0.8516  0.3091 -0.0171
 2142TIP3    H227918   4.906   5.172  14.204 -0.0967  1.1413  0.3235
 2143TIP3   OH227919   0.457   0.909  14.469  0.8855  0.1052 -0.3005
 2143TIP3    H127920   0.389   0.975  14.457  1.7807  2.8872  6.1789
 2143TIP3    H227921   0.539   0.956  14.452  1.4245 -0.7292 -0.0616
 2144TIP3   OH227922   5.852   0.749   2.738 -0.0743 -0.8263 -0.1351
 2144TIP3    H127923   5.901   0.691   2.679  1.3108 -0.3390  0.5059
 2144TIP3    H227924   5.915   0.815   2.765 -0.9934 -0.3889  1.0263
 2145TIP3   OH227925   5.151   3.728   3.960 -0.4647  0.8214  0.4249
 2145TIP3    H127926   5.230   3.773   3.990  1.9811 -1.0546 -2.5577
 2145TIP3    H227927   5.126   3.775   3.881 -0.7865 -0.1090 -0.0377
 2146TIP3   OH227928   3.011   4.920   1.729  0.1230 -0.6673 -0.1465
 2146TIP3    H127929   3.000   4.989   1.794  0.7883 -2.0606  1.5205
 2146TIP3    H227930   3.002   4.839   1.778  0.5660 -1.7934 -1.8310
 2147TIP3   OH227931   1.522   1.945  17.162 -0.8986  0.2480  0.4759
 2147TIP3    H127932   1.487   2.016  17.216 -0.1469  1.2452 -0.3069
 2147TIP3    H227933   1.616   1.948  17.177 -0.6648  0.6363 -0.9818
 2148TIP3   OH227934   3.275   0.410  11.920  0.3169  0.3352  0.0508
 2148TIP3    H127935   3.328   0.346  11.872  0.3328  0.0156  0.4817
 2148TIP3    H227936   3.254   0.477  11.856  0.0988 -0.2279 -0.4712
 2149TIP3   OH227937   1.088   5.400  16.563  0.4076 -0.2248  0.4628
 2149TIP3    H127938   1.065   5.330  16.624  0.6265 -1.5427 -0.9096
 2149TIP3    H227939   1.184   5.405  16.567  0.6055 -1.7223 -1.1923
 2150TIP3   OH227940   4.738   0.232   1.288 -0.5528 -0.2068  0.2344
 2150TIP3    H127941   4.737   0.169   1.360 -2.2422  1.1201  1.4625
 2150TIP3    H227942   4.648   0.266   1.285 -0.1602  0.8027 -1.5929
 2151TIP3   OH227943   2.676   3.714  10.547  0.1587 -0.3900  0.2958
 2151TIP3    H127944   2.620   3.661  10.491  0.6387  0.0813 -0.6615
 2151TIP3    H227945   2.619   3.740  10.620 -0.1920 -1.8478  0.5778
 2152TIP3   OH227946   2.990   3.679   0.794  0.2158  0.1616  0.0509
 2152TIP3    H127947   2.902   3.685   0.757  0.0779 -0.3894  0.2800
 2152TIP3    H227948   2.980   3.707   0.885  0.2273 -0.1280  0.1439
 2153TIP3   OH227949   6.288   3.509   5.516  0.0229  0.0744 -0.3315
 2153TIP3    H127950   6.345   3.438   5.544  0.3931  0.0884 -1.0420
 2153TIP3    H227951   6.281   3.566   5.593  0.1938 -0.4178  0.0552
 2154TIP3   OH227952   5.342   1.067   5.016  0.3778 -0.4554 -0.1021
 2154TIP3    H127953   5.411   1.087   4.953  0.4873  1.2764  0.4877
 2154TIP3    H227954   5.380   1.092   5.101 -0.5075 -0.7144  0.3821
 2155TIP3   OH227955   5.535   0.441  15.401 -0.0200 -0.7493 -0.4214
 2155TIP3    H127956   5.539   0.382  15.326  0.7160 -0.3515 -0.7044
 2155TIP3    H227957   5.449   0.482  15.395 -0.2210 -1.1969 -0.6754
 2156TIP3   OH227958   1.290   6.268   1.868 -0.1598 -0.2992  0.0948
 2156TIP3    H127959   1.294   6.286   1.962  0.5017  0.5551 -0.0782
 2156TIP3    H227960   1.322   6.349   1.827 -0.2858 -0.7180 -0.8597
 2157TIP3   OH227961   2.159   4.132   2.696 -0.4030  0.3503 -0.0098
 2157TIP3    H127962   2.238   4.143   2.643  0.0139 -0.3356  0.4553
 2157TIP3    H227963   2.182   4.065   2.760 -0.5522  1.8738  1.7257
 2158TIP3   OH227964   6.140   5.316   1.056 -0.4639  0.0293 -0.0830
 2158TIP3    H127965   6.136   5.302   0.961  0.3567 -2.1015  0.1324
 2158TIP3    H227966   6.181   5.402   1.066  0.2844 -0.1057 -1.6553
 2159TIP3   OH227967   6.435   3.458  11.591  0.5426 -1.2214  0.2719
 2159TIP3    H127968   6.446   3.551  11.613 -1.2710 -0.6632 -0.9366
 2159TIP3    H227969   6.435   3.457  11.495 -3.2807 -1.8361  0.1334
 2160TIP3   OH227970   1.234   5.239   3.601  0.2058 -0.3832 -0.0307
 2160TIP3    H127971   1.206   5.170   3.542  0.3410 -1.5874  1.2722
 2160TIP3    H227972   1.300   5.198   3.657  1.8992  1.3812 -0.6142
 2161TIP3   OH227973   3.248   5.907   0.660  0.3501  0.1735  0.7082
 2161TIP3    H127974   3.325   5.853   0.644 -0.5414 -1.1606  0.7821
 2161TIP3    H227975   3.174   5.847   0.651 -0.5746  0.8886  2.9229
 2162TIP3   OH227976   4.726   6.542   5.260 -0.0889 -0.0043  0.1338
 2162TIP3    H127977   4.743   6.463   5.310 -2.5477 -0.7912 -0.1301
 2162TIP3    H227978   4.696   6.510   5.174  2.5184  1.2924 -1.3981
 2163TIP3   OH227979   5.159   5.249  14.019 -0.2573 -0.2160  0.0390
 2163TIP3    H127980   5.222   5.185  14.052 -0.1494  0.0046  0.2575
 2163TIP3    H227981   5.082   5.239  14.075  0.3398  0.9467  1.0941
 2164TIP3   OH227982   5.407   0.459   0.184 -0.1284  0.0313 -0.6064
 2164TIP3    H127983   5.420   0.448   0.279 -0.1018 -1.2257 -0.7480
 2164TIP3    H227984   5.360   0.543   0.177  0.8871  0.7167  0.4295
 2165TIP3   OH227985   2.077   0.613   5.463 -0.2773 -0.5665 -0.9718
 2165TIP3    H127986   2.114   0.611   5.374  1.4226 -0.2996 -0.3115
 2165TIP3    H227987   2.015   0.686   5.462  0.4080  0.0290 -1.7026
 2166TIP3   OH227988   4.104   5.442   0.994  0.3840 -0.0849  0.2296
 2166TIP3    H127989   4.066   5.356   0.972  0.4446 -0.5346  1.7433
 2166TIP3    H227990   4.170   5.457   0.927  0.8331 -1.5612  0.3033
 2167TIP3   OH227991   2.140   3.740  14.410  0.1863 -0.0235  0.4571
 2167TIP3    H127992   2.157   3.785  14.493  0.4377  2.5978 -0.9197
 2167TIP3    H227993   2.048   3.714  14.415  0.1618  0.2220  1.4856
 2168TIP3   OH227994   5.760   4.739   6.477 -0.2570  0.8283  0.2184
 2168TIP3    H127995   5.831   4.780   6.428  0.5575 -0.8191 -0.0398
 2168TIP3    H227996   5.684   4.795   6.460  0.5872  1.6987 -0.8542
 2169TIP3   OH227997   2.797   0.784  11.657 -0.7568 -0.5427 -0.0847
 2169TIP3    H127998   2.857   0.722  11.617  0.7534 -0.4012  1.8426
 2169TIP3    H227999   2.853   0.851  11.697 -2.1868 -0.0710  1.2656
 2170TIP3   OH228000   4.424   0.755  16.725 -0.0432  0.1922  0.1350
 2170TIP3    H128001   4.411   0.840  16.767 -0.4887 -0.1734  0.7489
 2170TIP3    H228002   4.519   0.742  16.728 -0.0164  0.4398  0.4952
 2171TIP3   OH228003   2.442   5.549   0.210  0.3179 -0.0323  0.4849
 2171TIP3    H128004   2.361   5.507   0.241  0.9357 -1.5140  0.1730
 2171TIP3    H228005   2.486   5.578   0.290  0.3203 -0.8198  0.7735
 2172TIP3   OH228006   3.501   5.785  13.010  0.0781  0.2584  0.2353
 2172TIP3    H128007   3.448   5.730  12.952 -1.4031  0.3044  1.4789
 2172TIP3    H228008   3.534   5.855  12.953  0.4690 -0.8774 -0.9849
 2173TIP3   OH228009   0.264   4.391   5.713 -0.5535  0.0995  0.0940
 2173TIP3    H128010   0.332   4.402   5.647 -1.3151  1.9840 -0.4343
 2173TIP3    H228011   0.307   4.345   5.784  0.8607 -0.0862 -0.8479
 2174TIP3   OH228012   4.568   6.477   6.230  0.2739 -0.2942 -0.1683
 2174TIP3    H128013   4.602   6.436   6.151  1.3051  0.9799 -0.4032
 2174TIP3    H228014   4.503   6.541   6.200 -0.1146 -0.5504  0.0983
 2175TIP3   OH228015   2.152   3.033  15.249  0.1169 -0.1909 -0.1206
 2175TIP3    H128016   2.064   3.041  15.212  0.4174 -0.6932 -0.9629
 2175TIP3    H228017   2.137   2.994  15.336 -0.5615  0.6615  0.1625
 2176TIP3   OH228018   4.795   5.415  16.042 -0.1619 -0.6087 -0.0399
 2176TIP3    H128019   4.736   5.487  16.023  0.5477 -0.2256 -0.8886
 2176TIP3    H228020   4.788   5.356  15.966  0.3466 -0.6869 -0.0322
 2177TIP3   OH228021   0.120   2.842   5.334  0.2563  0.2270 -0.1392
 2177TIP3    H128022   0.127   2.887   5.250 -0.6109 -1.0926 -0.9684
 2177TIP3    H228023   0.206   2.804   5.348 -0.0161 -0.8625 -1.2426
 2178TIP3   OH228024   2.346   0.632   0.951 -0.0562 -0.3347  0.3645
 2178TIP3    H128025   2.256   0.599   0.943 -0.1943 -0.1410  0.9953
 2178TIP3    H228026   2.384   0.621   0.864 -1.0511  0.6438 -0.2221
 2179TIP3   OH228027   3.062   5.037  16.921 -0.2065 -0.1338 -0.5849
 2179TIP3    H128028   3.106   4.952  16.929 -1.0125 -0.4279  1.0796
 2179TIP3    H228029   2.978   5.017  16.879 -1.3976 -0.5900  1.8346
 2180TIP3   OH228030   1.721   3.069  15.879 -0.2477  0.8252  0.0462
 2180TIP3    H128031   1.715   3.096  15.787 -1.6610  0.0813 -0.1276
 2180TIP3    H228032   1.641   3.103  15.919  0.0161  0.5500  0.8310
 2181TIP3   OH228033   3.875   0.734  16.926 -0.2579 -0.2857  1.2586
 2181TIP3    H128034   3.954   0.721  16.875 -1.0757 -2.1202  0.3608
 2181TIP3    H228035   3.805   0.697  16.872 -1.4403 -0.4767  2.8345
 2182TIP3   OH228036   5.585   4.647  14.339  0.1962 -1.0678  0.1059
 2182TIP3    H128037   5.574   4.715  14.406  0.4398 -1.7166  0.8204
 2182TIP3    H228038   5.678   4.626  14.341  0.2729 -0.8312 -0.7069
 2183TIP3   OH228039   5.608   2.790  12.981 -0.1780  0.3275 -0.2908
 2183TIP3    H128040   5.605   2.855  13.052 -1.0888  0.2576 -0.2575
 2183TIP3    H228041   5.537   2.730  13.001  0.0939 -0.1702 -0.8203
 2184TIP3   OH228042   1.344   0.203  12.572  0.3175 -0.6278  0.4202
 2184TIP3    H128043   1.374   0.188  12.482 -3.5676 -0.2026 -1.1334
 2184TIP3    H228044   1.370   0.293  12.591 -0.1241 -0.1932 -0.9227
 2185TIP3   OH228045   5.662   1.245   0.144  0.6934  0.3552 -0.3376
 2185TIP3    H128046   5.620   1.301   0.210  0.5264 -0.5563  0.3529
 2185TIP3    H228047   5.754   1.242   0.171  0.5511 -0.3412  0.1119
 2186TIP3   OH228048   0.909   2.427  11.927 -0.2587 -0.2729  0.2290
 2186TIP3    H128049   0.971   2.394  11.992 -0.2874  0.3000  0.5612
 2186TIP3    H228050   0.824   2.396  11.956 -0.5829  1.8345  1.7762
 2187TIP3   OH228051   2.866   2.532  15.439 -0.3463  0.3814  0.5663
 2187TIP3    H128052   2.775   2.511  15.419 -0.5351  1.9705 -0.4294
 2187TIP3    H228053   2.917   2.457  15.409 -1.1645  0.3141 -0.6891
 2188TIP3   OH228054   1.947   5.546   1.772  0.0816  0.1079 -0.2866
 2188TIP3    H128055   1.943   5.616   1.837 -3.7928 -1.1498  1.1233
 2188TIP3    H228056   1.967   5.467   1.823  0.3620 -0.4174 -1.1831
 2189TIP3   OH228057   1.171   6.220  16.173 -0.1117 -0.1360  0.1302
 2189TIP3    H128058   1.217   6.303  16.161 -1.0055  0.1351 -1.8095
 2189TIP3    H228059   1.078   6.243  16.169 -0.4566 -0.8966  2.3432
 2190TIP3   OH228060   1.618   0.871   4.304 -0.2534 -0.7216  0.4715
 2190TIP3    H128061   1.630   0.789   4.255  0.1101 -1.3565  1.5834
 2190TIP3    H228062   1.603   0.843   4.394 -0.0383  0.4472  0.8849
 2191TIP3   OH228063   3.549   1.008   5.539  0.1604 -0.1369  0.1883
 2191TIP3    H128064   3.638   0.973   5.532 -0.7684 -2.8097  0.4162
 2191TIP3    H228065   3.532   1.010   5.633 -1.1747 -3.2011  0.1344
 2192TIP3   OH228066   1.238   5.771   1.784 -0.2225  0.4577  0.0501
 2192TIP3    H128067   1.266   5.778   1.693 -0.2259 -2.5179 -0.2700
 2192TIP3    H228068   1.319   5.781   1.835  0.5777 -2.1362 -0.5688
 2193TIP3   OH228069   6.403   5.466   0.676 -0.3368  0.5079  0.2898
 2193TIP3    H128070   6.413   5.481   0.582 -0.3497  1.2382  0.4046
 2193TIP3    H228071   6.407   5.553   0.715 -1.0711  0.2793  0.8959
 2194TIP3   OH228072   4.502   0.091   1.797  0.4761  0.1775 -0.3077
 2194TIP3    H128073   4.572   0.032   1.826 -1.3130 -0.7545  2.4983
 2194TIP3    H228074   4.426   0.034   1.787 -0.5476  1.5654 -0.6182
 2195TIP3   OH228075   2.218   0.350   1.850 -0.1900  0.7257 -0.5626
 2195TIP3    H128076   2.161   0.426   1.841 -1.5259 -0.1720  0.0802
 2195TIP3    H228077   2.232   0.340   1.944 -1.6956 -0.9868 -0.4756
 2196TIP3   OH228078   5.683   4.571  11.202 -0.3102 -0.1764 -0.0805
 2196TIP3    H128079   5.708   4.646  11.256  1.3231 -1.3609  0.8752
 2196TIP3    H228080   5.734   4.581  11.122  1.1775 -1.0722  0.7083
 2197TIP3   OH228081   6.274   6.125  16.834 -0.0557 -0.1772  0.5859
 2197TIP3    H128082   6.241   6.045  16.795 -0.8891  0.4469 -0.0074
 2197TIP3    H228083   6.342   6.096  16.895  0.2272 -1.2656 -0.2304
 2198TIP3   OH228084   3.345   3.636   3.821 -0.4846 -0.5160 -0.4244
 2198TIP3    H128085   3.340   3.723   3.859 -1.8325 -0.2387 -1.1696
 2198TIP3    H228086   3.379   3.650   3.733 -0.9315 -0.7176 -0.6299
 2199TIP3   OH228087   1.800   6.485   3.103 -0.3008 -0.1003  0.3334
 2199TIP3    H128088   1.820   6.417   3.039  2.5825 -0.0010  0.9833
 2199TIP3    H228089   1.871   6.548   3.095 -1.2211  1.2308  1.8951
 2200TIP3   OH228090   5.143   0.188  10.276 -0.0874 -0.1614 -0.4922
 2200TIP3    H128091   5.059   0.215  10.313 -0.5743 -0.8842 -1.0289
 2200TIP3    H228092   5.150   0.095  10.299  2.1526  0.5826  2.4877
 2201TIP3   OH228093   2.027   5.302  12.887  0.0649  0.1838 -0.0284
 2201TIP3    H128094   2.112   5.292  12.844 -0.6886  2.2197 -2.2229
 2201TIP3    H228095   1.963   5.283  12.819 -1.2995 -0.8679  1.4617
 2202TIP3   OH228096   3.787   2.758  13.809  0.0652 -0.0561  0.4161
 2202TIP3    H128097   3.739   2.676  13.794  1.2749 -0.6743 -0.2350
 2202TIP3    H228098   3.840   2.770  13.730  0.8471  0.6933  1.0311
 2203TIP3   OH228099   4.400   2.808  15.056 -0.3958 -1.0641  0.3228
 2203TIP3    H128100   4.352   2.817  14.973 -0.2744 -1.5550  0.1983
 2203TIP3    H228101   4.440   2.722  15.051  2.5994  0.2425 -0.6987
 2204TIP3   OH228102   4.930   0.398  15.604 -0.1755  0.2451 -0.1230
 2204TIP3    H128103   4.836   0.377  15.606 -0.0914 -0.0772  1.3340
 2204TIP3    H228104   4.935   0.488  15.635  0.0088  0.1731  0.0579
 2205TIP3   OH228105   1.349   2.128  16.646 -0.7268  0.3251 -0.0691
 2205TIP3    H128106   1.418   2.129  16.579 -1.2055  2.1087 -0.5942
 2205TIP3    H228107   1.377   2.195  16.709 -1.6367  0.6116  0.0468
 2206TIP3   OH228108   0.741   5.325  12.756 -0.1938 -0.1993 -0.2686
 2206TIP3    H128109   0.801   5.383  12.802 -0.8007  0.2807 -0.0720
 2206TIP3    H228110   0.798   5.269  12.702  0.4823 -0.3897  0.6255
 2207TIP3   OH228111   5.371   5.427   1.049 -0.6846  0.0225 -0.1024
 2207TIP3    H128112   5.303   5.366   1.020 -2.3219  1.5173  0.4341
 2207TIP3    H228113   5.376   5.415   1.144  0.5727 -0.7783 -0.2356
 2208TIP3   OH228114   1.348   5.498  11.675  0.0373  0.1181 -0.2840
 2208TIP3    H128115   1.429   5.447  11.681  0.4152  0.4618 -1.8032
 2208TIP3    H228116   1.313   5.476  11.588 -0.9487  0.7771 -0.0711
 2209TIP3   OH228117   4.991   4.292   3.303 -0.1121 -0.1422  0.3794
 2209TIP3    H128118   5.042   4.303   3.384  0.7297  0.6976 -0.2448
 2209TIP3    H228119   5.037   4.346   3.239 -1.0017 -0.4902 -0.5646
 2210TIP3   OH228120   4.405   6.453   3.347  0.1706 -0.1872 -0.1799
 2210TIP3    H128121   4.436   6.537   3.380 -0.4632  0.4345 -1.1084
 2210TIP3    H228122   4.341   6.476   3.280  0.5058 -1.4091 -0.9497
 2211TIP3   OH228123   3.382   3.467   1.105  0.0716 -0.4215  0.5035
 2211TIP3    H128124   3.453   3.403   1.116  0.0684 -0.2798  1.3503
 2211TIP3    H228125   3.427   3.547   1.077  0.0212 -0.9287 -1.1799
 2212TIP3   OH228126   0.965   2.534  14.865 -0.0042 -0.3217 -0.7310
 2212TIP3    H128127   0.873   2.524  14.840 -0.2384 -0.0336  0.0089
 2212TIP3    H228128   0.984   2.627  14.850 -0.1608 -0.1339  0.1944
 2213TIP3   OH228129   0.817   0.238   2.398  0.7099 -0.0630  0.2650
 2213TIP3    H128130   0.734   0.285   2.390 -0.2633 -1.8000 -0.3031
 2213TIP3    H228131   0.800   0.169   2.461  1.5817 -0.7362 -0.2232
 2214TIP3   OH228132   1.486   2.486  11.219  0.1614 -0.3809  0.3973
 2214TIP3    H128133   1.422   2.439  11.163  1.0793 -0.0404 -0.9921
 2214TIP3    H228134   1.569   2.474  11.174  0.4794  2.3597  0.1221
 2215TIP3   OH228135   2.807   4.942  12.269  0.4894  0.2137  0.4355
 2215TIP3    H128136   2.762   4.967  12.189  0.7167 -0.3599  0.1198
 2215TIP3    H228137   2.900   4.942  12.246  0.5135 -0.6057  0.4996
 2216TIP3   OH228138   1.189   2.161  14.656 -0.4702  0.1527 -0.1505
 2216TIP3    H128139   1.260   2.102  14.631 -0.6795  0.1984 -0.8696
 2216TIP3    H228140   1.200   2.237  14.599  0.8751  1.6505  1.9384
 2217TIP3   OH228141   5.258   3.230   1.725  0.3537 -0.5467  0.1347
 2217TIP3    H128142   5.318   3.281   1.779 -0.9965  1.5885 -0.2084
 2217TIP3    H228143   5.284   3.139   1.737  1.2470 -0.0109  2.9266
 2218TIP3   OH228144   0.135   5.346  12.376  0.0767  1.0077 -0.8020
 2218TIP3    H128145   0.167   5.389  12.455 -1.7894 -1.4295  1.4392
 2218TIP3    H228146   0.207   5.288  12.349 -0.4026 -0.5838  1.1298
 2219TIP3   OH228147   5.272   6.588   5.413 -0.2376 -0.3848 -0.4536
 2219TIP3    H128148   5.197   6.647   5.409 -0.3228 -0.5630 -2.3798
 2219TIP3    H228149   5.348   6.646   5.418 -0.3787 -0.1248 -1.2049
 2220TIP3   OH228150   0.662   6.479   3.454  0.6864 -0.6486 -0.3370
 2220TIP3    H128151   0.613   6.495   3.373 -0.9362  0.2134  0.7646
 2220TIP3    H228152   0.703   6.563   3.474  2.9356 -1.4122 -1.3641
 2221TIP3   OH228153   2.359   1.356  14.704  0.0756 -0.1991 -0.1237
 2221TIP3    H128154   2.346   1.450  14.719 -1.3622 -0.1204 -1.5757
 2221TIP3    H228155   2.441   1.336  14.748  0.6805  1.8503 -0.2137
 2222TIP3   OH228156   5.199   5.050  16.529 -0.1368 -0.3024 -0.0052
 2222TIP3    H128157   5.189   5.025  16.621 -0.0070  3.0157  1.0436
 2222TIP3    H228158   5.140   5.125  16.518  0.4306 -0.1312 -2.4398
 2223TIP3   OH228159   2.201   0.003  14.061  0.2312  0.0008  0.3425
 2223TIP3    H128160   2.243   0.052  13.991  2.4003 -1.0930  0.7594
 2223TIP3    H228161   2.254   0.023  14.139 -1.3481  0.2025  1.4165
 2224TIP3   OH228162   0.200   3.020  13.949  0.3937  0.0575 -0.3581
 2224TIP3    H128163   0.221   2.973  13.868  0.2242  1.1362 -1.0581
 2224TIP3    H228164   0.104   3.025  13.949  0.2779 -1.4831  0.8423
 2225TIP3   OH228165   4.600   0.902  15.370 -0.3030  0.2871  0.0471
 2225TIP3    H128166   4.527   0.964  15.372 -1.4018 -0.9481  2.0648
 2225TIP3    H228167   4.559   0.817  15.384  1.3531 -0.6862 -0.7925
 2226TIP3   OH228168   1.274   6.793   3.279 -0.0204 -0.6731 -0.5937
 2226TIP3    H128169   1.313   6.827   3.360 -0.5954 -0.1315 -0.5366
 2226TIP3    H228170   1.335   6.821   3.210 -0.4458  0.4510 -0.5391
 2227TIP3   OH228171   5.216   3.701  12.886  0.1468 -0.4441 -0.1290
 2227TIP3    H128172   5.285   3.642  12.919 -0.0021 -1.2556 -1.1996
 2227TIP3    H228173   5.238   3.713  12.794 -0.2612  0.5876 -0.0979
 2228TIP3   OH228174   0.066   0.087  14.730  0.0174 -0.4667 -0.1218
 2228TIP3    H128175   0.031   0.126  14.810  0.1983 -1.3735  0.4205
 2228TIP3    H228176   0.148   0.046  14.758  0.8674  0.5123 -1.0932
 2229TIP3   OH228177   2.021   5.720   6.515  0.5406  0.2273  0.1315
 2229TIP3    H128178   2.031   5.815   6.518  0.7403  0.1920  0.6737
 2229TIP3    H228179   1.932   5.706   6.483  0.7429  0.5914 -0.6159
 2230TIP3   OH228180   0.741   4.403   2.980 -0.2166 -0.4019  0.3544
 2230TIP3    H128181   0.759   4.423   2.888 -0.8474  1.8096  0.6382
 2230TIP3    H228182   0.769   4.313   2.991 -2.0406 -1.4705 -2.5205
 2231TIP3   OH228183   1.204   4.039   0.081 -0.0705 -0.3259 -0.3825
 2231TIP3    H128184   1.295   4.019   0.062  0.3931  2.8007 -2.1720
 2231TIP3    H228185   1.157   4.023  -0.001 -0.5034  1.0053 -0.4243
 2232TIP3   OH228186   2.914   1.749  17.150 -0.1535  0.1571 -0.3459
 2232TIP3    H128187   2.994   1.801  17.157 -0.4517  0.7209 -1.0378
 2232TIP3    H228188   2.856   1.785  17.217  0.5242 -0.9422  0.8847
 2233TIP3   OH228189   3.817   3.587  14.659 -0.3123  0.2543 -0.7284
 2233TIP3    H128190   3.761   3.585  14.737 -1.0008  1.7508 -1.1446
 2233TIP3    H228191   3.760   3.556  14.588  0.2549 -0.9137 -0.6981
 2234TIP3   OH228192   1.047   1.992   5.780 -0.2333  0.0970  0.0092
 2234TIP3    H128193   0.997   1.998   5.861 -0.8046 -0.4621 -0.2968
 2234TIP3    H228194   1.082   2.080   5.767  0.7223 -0.0422  1.3926
 2235TIP3   OH228195   2.032   5.969  15.693 -0.2798  0.0568  0.3306
 2235TIP3    H128196   2.027   5.921  15.775 -0.5276 -3.4242 -1.5097
 2235TIP3    H228197   2.112   5.937  15.651 -0.1823  1.7070 -0.8386
 2236TIP3   OH228198   4.095   6.074  16.874  0.1562 -0.1324  0.4265
 2236TIP3    H128199   4.002   6.066  16.856  0.2390 -1.3336  0.5046
 2236TIP3    H228200   4.102   6.067  16.969  0.3037  0.3400  0.4590
 2237TIP3   OH228201   0.082   4.125  11.344 -0.4137 -0.3748 -0.3470
 2237TIP3    H128202   0.033   4.191  11.394 -1.8822 -1.9857  0.4559
 2237TIP3    H228203   0.064   4.147  11.253 -0.7614  0.4256 -0.0995
 2238TIP3   OH228204   1.569   0.726   0.580 -0.7806  0.1515 -0.0109
 2238TIP3    H128205   1.588   0.791   0.647  0.8229  0.1008 -0.3824
 2238TIP3    H228206   1.538   0.649   0.628 -0.9510  0.5751  0.5576
 2239TIP3   OH228207   0.748   3.590   1.373 -0.0078  0.4184  0.2167
 2239TIP3    H128208   0.744   3.685   1.362 -0.9628  0.2344 -1.2577
 2239TIP3    H228209   0.723   3.575   1.464  1.2389  1.6341  0.7932
 2240TIP3   OH228210   2.512   1.873   3.907 -0.1107 -0.0020  0.3399
 2240TIP3    H128211   2.433   1.893   3.856 -0.1634 -1.5689 -0.2340
 2240TIP3    H228212   2.520   1.947   3.968 -0.5564  1.4824 -1.3103
 2241TIP3   OH228213   6.502   3.613   0.898 -0.5739  0.0395  0.4218
 2241TIP3    H128214   6.587   3.656   0.902  0.0005 -1.0336  0.2052
 2241TIP3    H228215   6.450   3.656   0.967  1.1284 -1.3078  2.7022
 2242TIP3   OH228216   4.424   0.277  15.457  0.5174  0.7342  0.0235
 2242TIP3    H128217   4.478   0.258  15.381 -0.3453  1.0838 -0.6931
 2242TIP3    H228218   4.358   0.207  15.459  1.0708  0.2125  0.9876
 2243TIP3   OH228219   4.673   5.128   4.621 -0.4090  0.2868  0.1973
 2243TIP3    H128220   4.720   5.211   4.611 -0.1240  0.0652 -0.2744
 2243TIP3    H228221   4.688   5.103   4.712 -0.5789  0.8002  0.3735
 2244TIP3   OH228222   3.528   6.476   4.304  0.3998  0.6545 -0.1437
 2244TIP3    H128223   3.455   6.430   4.346 -0.0207 -0.2501 -1.8110
 2244TIP3    H228224   3.553   6.544   4.368 -0.9766  0.0936  1.0431
 2245TIP3   OH228225   1.726   2.693  11.255 -0.4297  0.4819 -0.0033
 2245TIP3    H128226   1.664   2.753  11.214 -1.2783 -0.3059  0.0951
 2245TIP3    H228227   1.683   2.607  11.250 -0.1270  0.2009  1.6556
 2246TIP3   OH228228   2.406   5.820   5.034  0.2416 -0.0754  0.1269
 2246TIP3    H128229   2.441   5.842   4.948 -0.6094  1.2072  0.0765
 2246TIP3    H228230   2.311   5.828   5.024 -0.1481 -3.0885  0.3422
 2247TIP3   OH228231   3.578   2.660  17.190  0.2110  0.1640 -0.2738
 2247TIP3    H128232   3.645   2.663  17.122  0.5791 -1.8174 -0.0573
 2247TIP3    H228233   3.625   2.673  17.272 -0.2558  2.7302 -0.3383
 2248TIP3   OH228234   0.323   0.553   1.490 -0.4197  0.3788 -0.4094
 2248TIP3    H128235   0.382   0.483   1.520 -0.9488  0.1209  0.0644
 2248TIP3    H228236   0.366   0.634   1.517 -0.0748  0.2086 -0.4475
 2249TIP3   OH228237   4.484   4.822  15.721 -0.3190 -0.4319 -0.4016
 2249TIP3    H128238   4.551   4.883  15.752 -0.4459  0.8026 -2.3668
 2249TIP3    H228239   4.530   4.739  15.709  0.3059 -0.2217  0.4935
 2250TIP3   OH228240   5.617   6.576  15.635 -0.1707 -0.4544  1.3109
 2250TIP3    H128241   5.658   6.578  15.721  0.5754  1.6835  0.9718
 2250TIP3    H228242   5.575   6.662  15.626  1.0834 -0.0039 -1.0250
 2251TIP3   OH228243   3.787   1.114   2.335  0.2364  0.5463  0.4976
 2251TIP3    H128244   3.743   1.035   2.303  0.2666  0.3595  0.9078
 2251TIP3    H228245   3.860   1.127   2.274  0.6510 -0.1523  0.8285
 2252TIP3   OH228246   2.215   3.542   3.903 -0.4664  0.0947  0.1186
 2252TIP3    H128247   2.268   3.465   3.926 -1.0603  0.4241  2.8812
 2252TIP3    H228248   2.274   3.616   3.911 -1.3346  0.5916  4.2643
 2253TIP3   OH228249   2.801   5.388   1.565 -0.3459  0.1096 -0.2255
 2253TIP3    H128250   2.741   5.316   1.549  2.1077 -1.8588 -1.2259
 2253TIP3    H228251   2.851   5.362   1.643  0.9434  0.4314 -0.9047
 2254TIP3   OH228252   4.713   4.498   0.828 -0.2608  0.4381  0.1728
 2254TIP3    H128253   4.629   4.542   0.840 -0.2689  0.7654 -1.0410
 2254TIP3    H228254   4.716   4.477   0.735  0.4832 -0.6371  0.4245
 2255TIP3   OH228255   4.115   4.113  13.969  0.1816 -0.0949  0.2961
 2255TIP3    H128256   4.183   4.055  14.004 -0.4407 -1.2674 -0.3517
 2255TIP3    H228257   4.076   4.155  14.046  1.9752  1.0203  0.6418
 2256TIP3   OH228258   0.115   1.966  14.691  0.3666 -0.0453  0.3991
 2256TIP3    H128259   0.140   1.927  14.607 -1.6946 -0.5444 -0.0488
 2256TIP3    H228260   0.177   1.929  14.754  1.1117 -0.7191 -0.6868
 2257TIP3   OH228261   1.983   1.828   2.508  0.3411 -0.0526  0.0348
 2257TIP3    H128262   1.912   1.873   2.555  0.4749  0.9800 -0.7142
 2257TIP3    H228263   2.063   1.863   2.548  0.4423  0.1611 -0.3461
 2258TIP3   OH228264   2.435   1.834   4.521 -0.3875  0.1174 -0.3311
 2258TIP3    H128265   2.405   1.859   4.433 -1.0302  0.9551  0.1129
 2258TIP3    H228266   2.393   1.897   4.579  0.7861  0.1548  0.4988
 2259TIP3   OH228267   4.859   2.889   3.457  0.1638  0.1700  0.2799
 2259TIP3    H128268   4.765   2.894   3.437 -0.0028 -0.3305  0.8995
 2259TIP3    H228269   4.889   2.980   3.454 -0.5437  0.4442  0.9693
 2260TIP3   OH228270   2.622   4.457  14.433  0.2909  0.6871 -0.2267
 2260TIP3    H128271   2.612   4.443  14.528 -0.2653  2.5477  0.0365
 2260TIP3    H228272   2.543   4.420  14.395  0.6358 -0.3091 -0.0116
 2261TIP3   OH228273   6.018   2.020  11.451 -0.2353  0.3921  0.3696
 2261TIP3    H128274   6.017   1.967  11.531 -0.1388  0.1568  0.2139
 2261TIP3    H228275   6.073   2.095  11.474  0.9502 -0.3687  0.0891
 2262TIP3   OH228276   4.103   1.648   1.908 -0.3689 -0.6578 -0.1182
 2262TIP3    H128277   4.066   1.723   1.861 -1.8760 -0.7039  0.9079
 2262TIP3    H228278   4.028   1.588   1.919  0.3178 -1.3500  0.9267
 2263TIP3   OH228279   5.524   3.226   4.777  0.2811  0.1626  0.2986
 2263TIP3    H128280   5.537   3.200   4.868 -0.3525 -0.8990  0.1023
 2263TIP3    H228281   5.605   3.271   4.753  1.3449 -1.4339  0.7451
 2264TIP3   OH228282   1.393   3.119  12.659  0.2300 -0.2771  0.6129
 2264TIP3    H128283   1.440   3.130  12.577  0.6659  3.6758  1.1962
 2264TIP3    H228284   1.447   3.059  12.710  1.9435  0.1463 -0.6278
 2265TIP3   OH228285   0.791   5.651   5.677  0.4691 -0.1794 -0.0527
 2265TIP3    H128286   0.696   5.659   5.668  0.2370 -2.2697  0.2081
 2265TIP3    H228287   0.819   5.737   5.709 -1.3581  0.3902  0.1260
 2266TIP3   OH228288   4.658   2.885   0.087  0.2077  0.2533 -0.0944
 2266TIP3    H128289   4.750   2.898   0.111  1.1354 -0.2105 -2.9506
 2266TIP3    H228290   4.616   2.968   0.108  1.0677  0.2541  1.8797
 2267TIP3   OH228291   1.147   3.382   5.673 -0.0928  0.2661 -0.4303
 2267TIP3    H128292   1.176   3.446   5.738 -0.7781 -2.3384  2.6850
 2267TIP3    H228293   1.052   3.380   5.682 -0.1097 -0.8720 -0.7812
 2268TIP3   OH228294   3.426   4.595   2.554 -0.5246  0.0903 -0.2329
 2268TIP3    H128295   3.395   4.685   2.556 -0.2223  0.1847  0.9357
 2268TIP3    H228296   3.521   4.602   2.553 -0.4946 -0.2144  0.1501
 2269TIP3   OH228297   0.078   3.841   6.353 -0.3308  0.0994 -0.0308
 2269TIP3    H128298   0.088   3.760   6.403 -0.8689 -0.6953 -1.1804
 2269TIP3    H228299   0.000   3.882   6.390  1.0754  1.1729  1.9573
 2270TIP3   OH228300   3.314   3.793  12.642 -0.5346 -0.4971 -0.2618
 2270TIP3    H128301   3.377   3.728  12.673  0.5743  0.4052 -0.5702
 2270TIP3    H228302   3.355   3.831  12.565 -1.6152 -0.1134 -0.6664
 2271TIP3   OH228303   6.130   3.026   3.593 -0.2150  0.3419  0.2247
 2271TIP3    H128304   6.084   3.110   3.587 -0.4377  0.1798 -0.4570
 2271TIP3    H228305   6.078   2.975   3.656 -0.8037  0.2766 -0.2975
 2272TIP3   OH228306   3.587   6.224   2.265  0.2530  0.1294 -0.1659
 2272TIP3    H128307   3.506   6.196   2.222 -0.4363  0.7743  0.6632
 2272TIP3    H228308   3.656   6.175   2.222 -0.7415 -1.6383  0.1776
 2273TIP3   OH228309   6.129   6.402   0.034  0.0944  0.4920 -0.1383
 2273TIP3    H128310   6.162   6.490   0.050 -0.1794  0.2685  2.0382
 2273TIP3    H228311   6.038   6.414   0.007  0.8086  0.9430 -2.5693
 2274TIP3   OH228312   2.793   4.636  12.963 -0.4779  0.0990 -0.5732
 2274TIP3    H128313   2.726   4.705  12.958 -2.6628 -1.9688 -1.5021
 2274TIP3    H228314   2.814   4.616  12.872  1.6422  0.8306 -0.2973
 2275TIP3   OH228315   0.699   6.753  14.406  0.3542  0.3518 -0.4316
 2275TIP3    H128316   0.738   6.680  14.356  0.6913  0.9000 -0.9840
 2275TIP3    H228317   0.768   6.819  14.408 -0.0694  0.7874 -0.2209
 2276TIP3   OH228318   3.894   4.064  15.964 -0.1434  0.0633  0.0057
 2276TIP3    H128319   3.962   4.094  15.904 -1.0064  1.4963 -0.2993
 2276TIP3    H228320   3.899   3.969  15.961  1.8474  0.1328 -0.0033
 2277TIP3   OH228321   1.922   5.180   1.009 -0.3646 -0.0499  0.0948
 2277TIP3    H128322   1.891   5.089   1.010  0.6809 -0.4728 -1.6791
 2277TIP3    H228323   1.979   5.186   1.086 -1.0809 -0.6469  0.6875
 2278TIP3   OH228324   0.374   2.429  13.673  0.7145  0.1914 -0.3814
 2278TIP3    H128325   0.434   2.502  13.662  0.6639  0.5341  1.2824
 2278TIP3    H228326   0.430   2.352  13.682  0.9785  0.5350  1.3566
 2279TIP3   OH228327   4.395   5.507  14.953  0.5569 -0.1899  0.0776
 2279TIP3    H128328   4.355   5.439  15.007  0.6997 -0.7924 -0.5608
 2279TIP3    H228329   4.381   5.588  15.002  0.3382 -0.6690  0.8253
 2280TIP3   OH228330   2.959   5.904  15.431 -0.2946  0.3239 -0.8061
 2280TIP3    H128331   2.996   5.965  15.367 -2.8383  1.4037 -1.4001
 2280TIP3    H228332   2.958   5.820  15.387  0.5638  0.4503 -1.0893
 2281TIP3   OH228333   1.435   0.240  17.161  0.7523 -0.0667 -0.3445
 2281TIP3    H128334   1.464   0.260  17.072  3.5079 -0.2466  0.4378
 2281TIP3    H228335   1.470   0.153  17.180 -1.0514 -0.6738  0.4460
 2282TIP3   OH228336   4.691   2.436   5.232 -0.5307 -0.2881 -0.1703
 2282TIP3    H128337   4.726   2.438   5.321 -0.3797  0.0153 -0.2367
 2282TIP3    H228338   4.703   2.345   5.204  0.7518 -0.0613 -0.4115
 2283TIP3   OH228339   6.082   1.011   0.491 -0.0969  0.1402  0.3905
 2283TIP3    H128340   6.006   0.967   0.455  0.6357 -0.2107 -0.7843
 2283TIP3    H228341   6.054   1.102   0.505  0.2383  1.0773 -3.6302
 2284TIP3   OH228342   0.096   2.847   2.802 -0.0245 -0.0548  1.1577
 2284TIP3    H128343   0.103   2.941   2.792  0.0864 -0.1709 -0.0996
 2284TIP3    H228344   0.080   2.833   2.895 -1.0502  1.2583  1.2133
 2285TIP3   OH228345   2.371   0.847  11.345  0.1384  0.3829 -0.3395
 2285TIP3    H128346   2.444   0.790  11.371  0.9448  1.3764 -0.3372
 2285TIP3    H228347   2.300   0.822  11.403  1.7923  2.3273  2.8186
 2286TIP3   OH228348   2.721   5.213  17.359 -0.0708 -0.1669 -0.0975
 2286TIP3    H128349   2.712   5.212  17.455 -0.2786  0.3663 -0.1076
 2286TIP3    H228350   2.809   5.180  17.343  0.2507  0.4592  0.3201
 2287TIP3   OH228351   5.034   0.105  16.780  0.2159  0.2143  0.0464
 2287TIP3    H128352   5.093   0.031  16.794  2.1747  1.7191  0.2745
 2287TIP3    H228353   5.092   0.181  16.777 -1.5796  1.6110 -1.5181
 2288TIP3   OH228354   3.049   5.215  14.123  0.6013  0.6119  0.2820
 2288TIP3    H128355   3.132   5.167  14.124  2.2048  3.1345 -0.7754
 2288TIP3    H228356   2.992   5.163  14.066  2.5572  0.3529 -1.5993
 2289TIP3   OH228357   3.900   6.125  12.842 -0.2456  0.2981  0.1079
 2289TIP3    H128358   3.812   6.158  12.823 -0.5326  0.0507  0.9387
 2289TIP3    H228359   3.921   6.161  12.929  1.0277  1.4440 -0.6233
 2290TIP3   OH228360   5.072   3.293   2.553 -0.1948 -0.0461 -0.1037
 2290TIP3    H128361   4.995   3.254   2.512 -0.3924  1.3940 -1.2186
 2290TIP3    H228362   5.040   3.376   2.588  0.8364  0.6020 -0.6495
 2291TIP3   OH228363   3.506   0.506  16.664 -0.2877 -0.4081 -0.1057
 2291TIP3    H128364   3.547   0.591  16.679 -0.7198 -0.5849  2.5811
 2291TIP3    H228365   3.455   0.517  16.584  1.7158  1.0341 -1.2558
 2292TIP3   OH228366   6.376   6.015  10.020  0.0803  0.3738  0.0123
 2292TIP3    H128367   6.419   5.939  10.058  0.4569  0.5444 -0.0691
 2292TIP3    H228368   6.402   6.089  10.076  0.8816  0.6766 -0.7278
 2293TIP3   OH228369   6.076   5.398   0.354  0.2715  0.3235 -0.0296
 2293TIP3    H128370   5.997   5.345   0.343  1.0129 -0.7337 -0.4512
 2293TIP3    H228371   6.060   5.476   0.301 -0.3601 -0.0149 -0.3495
 2294TIP3   OH228372   1.688   2.802   2.247 -0.0628  0.2124  0.0474
 2294TIP3    H128373   1.600   2.797   2.282 -0.0873 -1.2775 -0.1498
 2294TIP3    H228374   1.677   2.790   2.152  0.3315  0.2593 -0.0076
 2295TIP3   OH228375   3.584   0.493   5.095  0.2467  0.7080 -0.1125
 2295TIP3    H128376   3.625   0.462   5.176 -2.0233  0.7168  1.1285
 2295TIP3    H228377   3.528   0.420   5.068 -0.9348  1.6460 -0.2485
 2296TIP3   OH228378   1.112   2.798   4.374  0.5124  0.1886  0.0998
 2296TIP3    H128379   1.041   2.840   4.422  1.0654  0.7560  0.4331
 2296TIP3    H228380   1.155   2.741   4.438  0.9532  0.5834  0.1645
 2297TIP3   OH228381   0.393   0.436  10.780 -0.1082 -0.5206  0.0132
 2297TIP3    H128382   0.447   0.438  10.701 -1.3708  0.7668 -0.8650
 2297TIP3    H228383   0.455   0.441  10.852  0.9611  0.7992 -0.9639
 2298TIP3   OH228384   5.586   6.065   2.766 -0.0495 -0.2403  0.1218
 2298TIP3    H128385   5.651   6.000   2.794  0.4490  1.0942  2.3294
 2298TIP3    H228386   5.608   6.083   2.675  0.3394 -2.4687 -0.2994
 2299TIP3   OH228387   3.725   4.007   4.297 -0.3121 -0.1178  0.0807
 2299TIP3    H128388   3.807   3.968   4.327  0.0048  0.1245 -0.4590
 2299TIP3    H228389   3.661   3.979   4.362 -0.5076 -3.1105 -1.2443
 2300TIP3   OH228390   4.253   1.565   5.501 -0.3203 -0.0748 -0.7275
 2300TIP3    H128391   4.239   1.644   5.449  0.4814 -0.5701 -1.7245
 2300TIP3    H228392   4.298   1.596   5.580 -0.9931  0.5962 -0.5852
 2301TIP3   OH228393   1.859   4.105   5.811  0.2256 -0.0860  0.0632
 2301TIP3    H128394   1.886   4.185   5.856 -1.4983  1.0211 -0.7924
 2301TIP3    H228395   1.857   4.129   5.719 -1.1038 -0.8612 -0.1318
 2302TIP3   OH228396   2.342   4.686   2.265  0.0524  0.6611  0.4163
 2302TIP3    H128397   2.388   4.761   2.227  1.8197 -0.6988 -0.2581
 2302TIP3    H228398   2.395   4.660   2.340 -0.8776  0.4501  1.0166
 2303TIP3   OH228399   1.984   3.949  17.093 -0.0039  0.1813 -0.0160
 2303TIP3    H128400   2.020   3.981  17.010  0.0691 -0.1617 -0.1164
 2303TIP3    H228401   1.891   3.935  17.074  0.2472 -1.0953 -0.4055
 2304TIP3   OH228402   0.017   5.266   0.806 -0.2006  0.3672 -0.3145
 2304TIP3    H128403   0.040   5.223   0.724 -2.1885  0.6758 -1.1060
 2304TIP3    H228404   0.089   5.246   0.866  1.7413  0.8737 -2.3724
 2305TIP3   OH228405   1.078   2.037   0.485 -0.7792 -0.1065  0.2236
 2305TIP3    H128406   1.002   1.982   0.470 -0.3064 -0.8882  0.6441
 2305TIP3    H228407   1.148   1.976   0.510 -0.1478  0.6426  0.3408
 2306TIP3   OH228408   5.724   5.963   1.460  0.0238 -0.0253  0.7840
 2306TIP3    H128409   5.630   5.961   1.474 -0.2297  0.8026 -0.6526
 2306TIP3    H228410   5.735   6.002   1.373  1.7374  1.0946  1.4544
 2307TIP3   OH228411   5.582   1.507   5.567  0.2673  0.2087  0.4252
 2307TIP3    H128412   5.552   1.421   5.536  2.6073 -0.0139 -1.4840
 2307TIP3    H228413   5.502   1.560   5.570 -0.7933 -1.1462 -1.5343
 2308TIP3   OH228414   6.201   0.842  13.455  0.1095  0.2844  0.0543
 2308TIP3    H128415   6.287   0.883  13.455  0.4107 -0.3426  0.2431
 2308TIP3    H228416   6.195   0.797  13.371  0.0495  0.1471  0.1317
 2309TIP3   OH228417   0.665   3.855   4.509  0.2604 -0.3929  0.2699
 2309TIP3    H128418   0.600   3.786   4.519 -0.1469  0.1119  1.1902
 2309TIP3    H228419   0.615   3.937   4.517  1.0106  0.0014  1.1002
 2310TIP3   OH228420   0.121   3.934  11.537  0.1782 -0.0555  0.0520
 2310TIP3    H128421   0.118   3.845  11.503  2.2798 -0.4448  0.7639
 2310TIP3    H228422   0.116   3.989  11.459  0.2588 -0.8230 -0.5077
 2311TIP3   OH228423   1.051   3.944   0.575  0.0934  0.1496  0.4579
 2311TIP3    H128424   0.988   4.015   0.582 -0.0005  0.0337  0.8082
 2311TIP3    H228425   1.047   3.917   0.483 -0.9612 -0.3976  0.6540
 2312TIP3   OH228426   6.370   3.818   1.423 -0.2657 -0.0858  0.1468
 2312TIP3    H128427   6.296   3.847   1.476  0.4030 -1.9130  2.2635
 2312TIP3    H228428   6.430   3.893   1.422 -0.3229  0.0302  2.0125
 2313TIP3   OH228429   2.613   3.886  14.115  0.4089 -0.0102  0.4591
 2313TIP3    H128430   2.595   3.919  14.203  3.8641  1.0359  0.9128
 2313TIP3    H228431   2.648   3.798  14.128 -0.8011 -0.6012 -0.0853
 2314TIP3   OH228432   3.378   2.820  15.040  0.3767 -0.0930  0.4172
 2314TIP3    H128433   3.337   2.808  15.125 -1.3625  0.8809 -0.2329
 2314TIP3    H228434   3.350   2.745  14.988 -2.4876  1.5613 -0.6674
 2315TIP3   OH228435   5.020   0.428  11.376  0.7969 -0.1119  0.2314
 2315TIP3    H128436   5.041   0.488  11.304  0.4284  0.0166  0.2259
 2315TIP3    H228437   5.066   0.347  11.355  0.1575 -0.3013 -0.5029
 2316TIP3   OH228438   5.740   6.443  15.137  0.0766  0.2134 -0.1687
 2316TIP3    H128439   5.773   6.404  15.217  1.6658 -0.3744 -1.0661
 2316TIP3    H228440   5.807   6.424  15.071 -0.6894  1.5605 -1.4058
 2317TIP3   OH228441   2.013   6.280   1.488  0.2015  0.6321 -0.1117
 2317TIP3    H128442   2.034   6.278   1.581  0.6323 -0.9053 -0.2068
 2317TIP3    H228443   2.095   6.255   1.444 -0.6769 -1.4350 -0.7151
 2318TIP3   OH228444   5.813   4.806   4.729  0.1136  0.0705  0.1731
 2318TIP3    H128445   5.878   4.815   4.660  0.1372  0.2045  0.2139
 2318TIP3    H228446   5.760   4.731   4.702  1.4903 -1.3283  1.1029
 2319TIP3   OH228447   1.070   0.221  11.183  0.1726 -0.0741  0.2843
 2319TIP3    H128448   1.091   0.238  11.092  0.0709 -0.8541  0.1095
 2319TIP3    H228449   0.979   0.249  11.193  0.3377  0.4682  0.2732
 2320TIP3   OH228450   3.343   1.068   3.672  0.1648 -0.2294  0.3743
 2320TIP3    H128451   3.289   1.145   3.689 -0.4811 -1.0674  2.4696
 2320TIP3    H228452   3.332   1.051   3.578 -2.9385 -0.0866  0.5879
 2321TIP3   OH228453   5.108   4.506  15.816  0.2720 -0.0326  0.0430
 2321TIP3    H128454   5.072   4.459  15.741 -2.2382 -0.7636  1.5844
 2321TIP3    H228455   5.100   4.598  15.792  3.2579 -0.1746 -2.1273
 2322TIP3   OH228456   0.005   1.977  11.688 -0.1756  0.5735 -0.2992
 2322TIP3    H128457   0.095   1.951  11.666 -0.2833  1.0407 -1.3555
 2322TIP3    H228458   0.012   2.013  11.776  1.1653  2.8507 -1.2449
 2323TIP3   OH228459   4.685   4.006  11.818  0.2054 -0.1329 -0.2150
 2323TIP3    H128460   4.615   3.940  11.812  0.7927 -0.7984  0.0468
 2323TIP3    H228461   4.648   4.084  11.777 -1.2569  0.0160  1.2729
 2324TIP3   OH228462   4.304   4.185   2.030  0.5393  0.3937 -0.2724
 2324TIP3    H128463   4.300   4.093   2.006 -2.2730  0.2503  0.4271
 2324TIP3    H228464   4.385   4.216   1.991  1.5443 -2.3396 -0.5720
 2325TIP3   OH228465   2.077   6.537   4.433  0.2324 -0.0897 -0.1745
 2325TIP3    H128466   1.997   6.517   4.483 -1.1109  2.9451 -0.8342
 2325TIP3    H228467   2.123   6.601   4.487 -0.1045  1.5434 -1.7346
 2326TIP3   OH228468   2.963   3.162  14.238  0.3519 -0.3837 -0.1361
 2326TIP3    H128469   2.981   3.256  14.237  0.0983 -0.3190 -2.0748
 2326TIP3    H228470   3.022   3.127  14.305 -1.0815  1.3867  2.2043
 2327TIP3   OH228471   1.576   5.720  15.103  0.4843  0.2819  0.2063
 2327TIP3    H128472   1.567   5.766  15.020  0.2029 -0.4299 -0.1682
 2327TIP3    H228473   1.486   5.704  15.131  0.5646  1.3899  1.1534
 2328TIP3   OH228474   6.217   1.137  14.834 -0.2815  0.5743  0.0922
 2328TIP3    H128475   6.224   1.151  14.740 -3.5711  0.9157 -0.2334
 2328TIP3    H228476   6.262   1.213  14.873 -0.3999  1.3630 -1.2460
 2329TIP3   OH228477   2.521   0.769   4.857  0.6110  0.3628  0.0630
 2329TIP3    H128478   2.592   0.803   4.803  0.2629 -0.0055 -0.6379
 2329TIP3    H228479   2.475   0.706   4.801  1.8339 -2.0617  1.6173
 2330TIP3   OH228480   3.504   5.171  16.164  0.3627  0.1907  1.3659
 2330TIP3    H128481   3.418   5.205  16.140  0.8023  1.2802  1.2593
 2330TIP3    H228482   3.563   5.246  16.153  1.1458 -0.2321  2.5058
 2331TIP3   OH228483   5.845   2.406  12.792 -0.8726 -0.7506  0.1652
 2331TIP3    H128484   5.789   2.481  12.771 -1.0100 -0.8444  0.1940
 2331TIP3    H228485   5.902   2.437  12.862 -3.1416 -1.6225  2.6028
 2332TIP3   OH228486   2.270   2.745  12.627  0.3223  0.7341 -0.6213
 2332TIP3    H128487   2.237   2.817  12.572 -2.3751 -0.2527 -0.4568
 2332TIP3    H228488   2.244   2.666  12.581 -1.6765 -0.1331  1.7832
 2333TIP3   OH228489   0.410   4.921   5.265  0.0002 -0.3600  0.0779
 2333TIP3    H128490   0.472   4.985   5.232  1.1400 -1.6754 -0.4154
 2333TIP3    H228491   0.330   4.971   5.282  0.5416  0.9898 -1.2128
 2334TIP3   OH228492   5.237   6.239   2.030  0.2811 -0.2450 -0.3546
 2334TIP3    H128493   5.301   6.216   2.098 -1.3167 -1.9802  0.6460
 2334TIP3    H228494   5.244   6.334   2.022  1.8226 -0.2113  0.9014
 2335TIP3   OH228495   3.875   0.878  13.165  0.2336  0.2755  0.2277
 2335TIP3    H128496   3.912   0.848  13.248 -0.3954 -1.0034  0.0670
 2335TIP3    H228497   3.791   0.916  13.189  1.5147  3.1538  0.5897
 2336TIP3   OH228498   4.372   5.249   1.710  0.1695 -0.3000 -0.0339
 2336TIP3    H128499   4.429   5.271   1.783  1.2847 -1.0149 -0.6525
 2336TIP3    H228500   4.429   5.205   1.647 -0.9172 -0.3909 -1.0049
 2337TIP3   OH228501   5.700   4.262  13.214  0.5018  0.1382  0.0111
 2337TIP3    H128502   5.736   4.263  13.303 -2.3081  1.4851  1.2596
 2337TIP3    H228503   5.657   4.177  13.207 -0.3592  0.5214  0.4675
 2338TIP3   OH228504   1.010   5.630  15.105 -0.3029 -0.0035 -0.1022
 2338TIP3    H128505   0.943   5.607  15.170  0.3437  1.7143  1.2544
 2338TIP3    H228506   1.091   5.594  15.141 -0.4926 -2.8415 -2.1567
 2339TIP3   OH228507   1.989   6.526  16.171 -0.2896  0.8159  0.0684
 2339TIP3    H128508   2.080   6.552  16.153 -0.0790 -0.7469 -1.3583
 2339TIP3    H228509   1.997   6.445  16.220 -0.9345  1.1774  0.7814
 2340TIP3   OH228510   1.046   0.163   3.302 -0.5176  0.0863 -0.2104
 2340TIP3    H128511   1.081   0.229   3.361 -1.8304 -0.0739  0.7992
 2340TIP3    H228512   1.114   0.096   3.299  0.2057  0.8013 -0.0848
 2341TIP3   OH228513   2.372   4.575   2.787 -0.0528  0.0251 -0.6861
 2341TIP3    H128514   2.392   4.669   2.782 -1.4410  0.3016 -1.9787
 2341TIP3    H228515   2.317   4.567   2.865  0.9333  0.0805  0.0374
 2342TIP3   OH228516   2.211   1.660   5.902 -0.3428  0.1123 -0.1941
 2342TIP3    H128517   2.202   1.733   5.963 -1.5842 -0.8349  0.8215
 2342TIP3    H228518   2.122   1.625   5.893  0.3360 -1.8037  0.0332
 2343TIP3   OH228519   6.368   3.736  11.692  0.4514 -0.3328  0.0429
 2343TIP3    H128520   6.350   3.687  11.612  2.8173 -1.7509  0.2824
 2343TIP3    H228521   6.442   3.792  11.670  0.4554  0.0310  0.9451
 2344TIP3   OH228522   5.936   4.475  14.589  0.1710 -0.1981 -0.4384
 2344TIP3    H128523   5.952   4.394  14.541 -1.1779 -0.1716 -0.9748
 2344TIP3    H228524   5.879   4.449  14.662  1.6051 -0.1121  0.7574
 2345TIP3   OH228525   5.556   2.299  11.599  0.4211 -0.8619  0.2702
 2345TIP3    H128526   5.588   2.230  11.541  1.2193 -0.2037 -0.1087
 2345TIP3    H228527   5.467   2.317  11.569  0.2699 -1.6088  0.2669
 2346TIP3   OH228528   3.733   5.832   0.543 -0.2445 -0.1631 -0.2042
 2346TIP3    H128529   3.712   5.924   0.556 -0.3547 -0.1214 -0.6485
 2346TIP3    H228530   3.766   5.802   0.627  1.7222  0.7782 -0.5860
 2347TIP3   OH228531   6.412   2.106  16.813  0.4139  0.7416  0.6848
 2347TIP3    H128532   6.413   2.172  16.882  2.0584  0.9335  0.5181
 2347TIP3    H228533   6.336   2.129  16.760 -0.6149  0.8613  2.1477
 2348TIP3   OH228534   1.646   1.582  10.835  0.2387  0.0847 -0.4309
 2348TIP3    H128535   1.624   1.675  10.847 -1.7030 -0.6568  3.5285
 2348TIP3    H228536   1.738   1.577  10.859 -0.3798  0.7029  2.4885
 2349TIP3   OH228537   3.445   1.589  14.618 -0.3674  0.2289  0.3298
 2349TIP3    H128538   3.367   1.630  14.579 -0.5126  1.3915  1.7537
 2349TIP3    H228539   3.511   1.658  14.617  0.3777 -0.4735 -0.0211
 2350TIP3   OH228540   0.762   4.107   5.016  0.0333  0.1771 -0.2769
 2350TIP3    H128541   0.807   4.191   5.003  1.0768  0.0088  1.8143
 2350TIP3    H228542   0.814   4.044   4.967 -0.2163  0.5713 -1.0776
 2351TIP3   OH228543   1.722   3.897   2.106 -0.2503 -0.3768  0.7962
 2351TIP3    H128544   1.683   3.885   2.020 -1.3656  0.6243  1.1293
 2351TIP3    H228545   1.784   3.825   2.115  0.5861  0.0330 -1.2032
 2352TIP3   OH228546   1.299   0.315   2.390  0.1257 -0.4643  0.2537
 2352TIP3    H128547   1.345   0.375   2.332  0.3659 -0.2202  0.6938
 2352TIP3    H228548   1.206   0.332   2.374  0.1819  0.6434  0.9921
 2353TIP3   OH228549   1.675   1.707  13.742 -0.0590  0.0947  0.2845
 2353TIP3    H128550   1.619   1.630  13.750 -0.6270  0.1998 -1.8880
 2353TIP3    H228551   1.625   1.777  13.783  0.3292 -0.6025  2.0078
 2354TIP3   OH228552   5.227   4.605   3.358  0.2894 -0.5517 -0.3710
 2354TIP3    H128553   5.177   4.580   3.436 -0.9661  1.7055 -0.3679
 2354TIP3    H228554   5.268   4.523   3.329  1.1526 -1.4192  2.8417
 2355TIP3   OH228555   2.335   5.086  11.095 -0.3763  0.0379  0.0651
 2355TIP3    H128556   2.271   5.098  11.025  0.7761  0.3399 -0.9739
 2355TIP3    H228557   2.420   5.096  11.051  0.3807 -0.4068  1.3928
 2356TIP3   OH228558   5.435   3.870  11.603 -0.4044  0.6279 -0.0296
 2356TIP3    H128559   5.492   3.866  11.680 -2.1332  0.8367  1.3346
 2356TIP3    H228560   5.364   3.929  11.629 -1.8131 -0.4415 -1.2541
 2357TIP3   OH228561   5.813   3.718   5.306 -0.3369  0.2121 -0.5801
 2357TIP3    H128562   5.815   3.656   5.380 -2.2748  2.5038  1.5990
 2357TIP3    H228563   5.891   3.772   5.318  0.9855 -1.2504 -2.0869
 2358TIP3   OH228564   0.678   0.472   4.970 -0.6726  0.4815  0.1503
 2358TIP3    H128565   0.595   0.493   4.928  0.0281 -0.2278 -1.7234
 2358TIP3    H228566   0.694   0.381   4.947  0.9762  0.8183 -0.1983
 2359TIP3   OH228567   3.591   5.204  11.470 -0.0191  0.6246  0.6862
 2359TIP3    H128568   3.656   5.142  11.504  0.1205  0.1776 -0.3627
 2359TIP3    H228569   3.519   5.149  11.438  0.9638  0.8097 -2.1150
 2360TIP3   OH228570   1.640   5.096   5.220 -0.2330  0.0190  0.2020
 2360TIP3    H128571   1.566   5.081   5.279 -0.2451 -1.4688 -0.1353
 2360TIP3    H228572   1.716   5.065   5.268 -0.0567  0.0431 -0.0589
 2361TIP3   OH228573   0.584   0.978   0.870 -0.2669 -0.4980 -0.4068
 2361TIP3    H128574   0.640   1.053   0.888 -2.0220  0.6068  0.7157
 2361TIP3    H228575   0.615   0.910   0.931 -0.8855  0.5027  1.0749
 2362TIP3   OH228576   5.531   0.330  15.162 -1.3000 -0.3317 -0.2475
 2362TIP3    H128577   5.509   0.368  15.077  0.6354  0.6808 -0.3601
 2362TIP3    H228578   5.563   0.242  15.142 -1.8260 -0.4773 -0.4518
 2363TIP3   OH228579   1.685   5.271   2.601  0.2415  0.5133  0.6619
 2363TIP3    H128580   1.776   5.301   2.606  0.4818 -0.0153 -0.3376
 2363TIP3    H228581   1.683   5.188   2.648  1.5730 -2.3329 -3.7108
 2364TIP3   OH228582   4.893   2.031   0.344  0.5737 -0.3902  0.3052
 2364TIP3    H128583   4.895   1.938   0.367 -0.8139 -0.0338  2.0012
 2364TIP3    H228584   4.959   2.071   0.400 -0.7547  0.0240  1.6468
 2365TIP3   OH228585   4.744   2.801  14.751 -0.6429 -0.7280  0.0004
 2365TIP3    H128586   4.732   2.863  14.822  1.6543 -0.5366  0.2847
 2365TIP3    H228587   4.681   2.732  14.769  1.2718 -1.8008  3.5496
 2366TIP3   OH228588   4.991   3.914   1.269 -0.6690 -0.2882 -0.5329
 2366TIP3    H128589   5.079   3.891   1.239 -0.8219 -0.7482 -0.6413
 2366TIP3    H228590   4.941   3.833   1.261 -0.5853 -0.5985  1.5196
 2367TIP3   OH228591   3.116   4.458   1.249 -0.5845 -0.2709 -0.2718
 2367TIP3    H128592   3.203   4.475   1.285 -0.9924 -1.8074  1.5653
 2367TIP3    H228593   3.065   4.535   1.273 -0.7303 -1.0612  2.2115
 2368TIP3   OH228594   0.078   1.439  12.718  0.5088 -0.2083 -0.3337
 2368TIP3    H128595   0.051   1.432  12.810 -0.9576 -1.1314 -0.8123
 2368TIP3    H228596   0.002   1.473  12.673  0.4958 -1.7204 -1.5341
 2369TIP3   OH228597   5.557   1.245  12.570 -0.5209  0.2612  0.1846
 2369TIP3    H128598   5.608   1.217  12.494  0.6449  0.7394  0.7775
 2369TIP3    H228599   5.473   1.273  12.533  0.3973  1.5189 -1.0618
 2370TIP3   OH228600   2.962   2.585   2.660 -0.0630 -0.4101 -0.2766
 2370TIP3    H128601   2.935   2.546   2.744  0.8798 -0.8233 -0.1537
 2370TIP3    H228602   2.923   2.527   2.594  2.4856 -2.5058 -0.1036
 2371TIP3   OH228603   5.023   1.659   3.755 -0.2090 -0.1818  0.6391
 2371TIP3    H128604   4.964   1.595   3.715  0.0141  0.2891 -0.4679
 2371TIP3    H228605   4.995   1.664   3.846 -2.5751  0.8003 -0.0819
 2372TIP3   OH228606   2.834   4.772  11.386 -0.0474  0.0487 -0.2734
 2372TIP3    H128607   2.762   4.802  11.331 -0.0200  1.8777  0.5993
 2372TIP3    H228608   2.866   4.852  11.430  0.8433 -1.1036  1.2961
 2373TIP3   OH228609   4.755   1.227  15.642 -0.1329  1.0063  0.9922
 2373TIP3    H128610   4.771   1.132  15.641  1.0736  1.1897  0.9008
 2373TIP3    H228611   4.731   1.248  15.552 -0.8887  0.7269  1.1172
 2374TIP3   OH228612   5.905   2.702   5.452  0.2942  0.9438 -0.0920
 2374TIP3    H128613   5.917   2.764   5.380  0.7203  1.0500  0.0702
 2374TIP3    H228614   5.868   2.624   5.411  0.0801  1.1803 -0.3520
 2375TIP3   OH228615   5.517   1.893  15.163 -0.1520 -0.1493 -0.9555
 2375TIP3    H128616   5.560   1.969  15.123 -0.2204  0.6274  0.4063
 2375TIP3    H228617   5.432   1.925  15.192  0.3995 -0.3067  0.9999
 2376TIP3   OH228618   5.920   1.229  14.845  0.2790  0.4729 -0.1470
 2376TIP3    H128619   5.918   1.280  14.764  0.2364 -2.0191 -1.8311
 2376TIP3    H228620   5.955   1.144  14.819 -0.0203 -0.5393  2.4273
 2377TIP3   OH228621   1.660   6.594   4.313 -0.2985  0.7675  0.8285
 2377TIP3    H128622   1.743   6.546   4.307  0.3228  1.7753  1.1491
 2377TIP3    H228623   1.597   6.539   4.266  0.4548 -0.2107  0.9286
 2378TIP3   OH228624   1.489   4.495  17.135 -0.6342  0.0473 -0.6292
 2378TIP3    H128625   1.532   4.416  17.166 -1.4902 -0.7967 -1.5123
 2378TIP3    H228626   1.423   4.514  17.202 -0.4893 -0.0461 -0.4617
 2379TIP3   OH228627   1.400   4.000  13.359  0.9020 -0.0380  0.6004
 2379TIP3    H128628   1.406   4.093  13.378 -0.7941 -0.0622  1.4155
 2379TIP3    H228629   1.319   3.990  13.309  2.8377 -0.6405 -2.7110
 2380TIP3   OH228630   6.640   6.549   0.866  0.3096  0.5020 -0.8120
 2380TIP3    H128631   6.562   6.581   0.911  0.2919  0.3478 -0.7308
 2380TIP3    H228632   6.663   6.619   0.805  0.1013  0.5444 -0.8434
 2381TIP3   OH228633   4.002   1.617   2.649 -0.0151  0.0860 -0.5849
 2381TIP3    H128634   3.980   1.703   2.613  0.7880  0.9999  1.0081
 2381TIP3    H228635   3.987   1.625   2.743  0.1230 -1.5131 -0.3918
 2382TIP3   OH228636   2.096   2.997   5.798  0.4235  0.1901  0.3131
 2382TIP3    H128637   2.096   2.916   5.748 -0.0253  0.6752 -0.5094
 2382TIP3    H228638   2.163   2.985   5.865  0.3409 -0.8618  0.2203
 2383TIP3   OH228639   6.786   5.978   0.381  0.0371 -0.2899  0.1848
 2383TIP3    H128640   6.740   5.910   0.430  0.0534 -0.0498  0.5362
 2383TIP3    H228641   6.720   6.013   0.321  0.5215 -1.9140 -1.3658
 2384TIP3   OH228642   2.332   3.370   4.560  0.4874  0.0810  0.1302
 2384TIP3    H128643   2.344   3.333   4.473  0.4774 -0.6937  0.4467
 2384TIP3    H228644   2.418   3.405   4.583  0.4951  0.2674 -0.1862
 2385TIP3   OH228645   1.876   1.412  16.935 -0.3934 -0.7393 -0.4409
 2385TIP3    H128646   1.938   1.402  16.863  2.3874 -1.1083  1.8300
 2385TIP3    H228647   1.886   1.503  16.963  0.9131 -1.3949  1.3793
 2386TIP3   OH228648   2.518   1.082   6.276  0.1283 -0.1570  0.7722
 2386TIP3    H128649   2.461   1.157   6.294 -0.9323 -0.7665  0.0658
 2386TIP3    H228650   2.481   1.011   6.329 -0.0111 -0.6609  0.0105
 2387TIP3   OH228651   4.754   4.152   3.320  0.2884  0.6228 -0.1051
 2387TIP3    H128652   4.830   4.210   3.314  1.1621 -0.5266 -0.5727
 2387TIP3    H228653   4.735   4.129   3.229 -0.2533  0.4304  0.0528
 2388TIP3   OH228654   1.892   0.415   1.837  0.0661 -0.1131 -0.0666
 2388TIP3    H128655   1.805   0.430   1.801 -0.1805 -0.7876  0.2306
 2388TIP3    H228656   1.943   0.378   1.765 -0.4178 -1.4372  0.2460
 2389TIP3   OH228657   4.212   5.037  12.813  0.1380 -0.3202  0.6290
 2389TIP3    H128658   4.276   5.082  12.868  1.2026 -1.4775  0.3845
 2389TIP3    H228659   4.130   5.085  12.826  1.1731  1.5636  0.5090
 2390TIP3   OH228660   4.546   4.207  12.704  0.2218 -0.1900  0.6978
 2390TIP3    H128661   4.625   4.186  12.753  1.3570  0.7658 -0.6529
 2390TIP3    H228662   4.542   4.302  12.703 -0.5602 -0.2136  0.1661
 2391TIP3   OH228663   1.427   4.747  11.453 -0.0595  0.2536 -0.1788
 2391TIP3    H128664   1.415   4.722  11.545  1.8752  2.8291  0.8855
 2391TIP3    H228665   1.343   4.785  11.427  0.3825  2.9081  1.8128
 2392TIP3   OH228666   2.155   3.170   2.579  0.1314  0.0335  0.1007
 2392TIP3    H128667   2.204   3.239   2.535  2.6764 -0.9803  1.1405
 2392TIP3    H228668   2.063   3.190   2.560  0.9258  1.3040 -3.0845
 2393TIP3   OH228669   5.115   1.214  16.102 -0.6672 -0.1228 -0.2198
 2393TIP3    H128670   5.074   1.185  16.183 -1.1751 -0.4076 -0.5706
 2393TIP3    H228671   5.046   1.207  16.036  0.2381 -1.6979 -1.0611
 2394TIP3   OH228672   3.123   0.228  13.288  0.4362 -0.1105  0.2868
 2394TIP3    H128673   3.179   0.252  13.362 -2.0298  1.9353  1.6618
 2394TIP3    H228674   3.120   0.133  13.289  2.8750 -0.2423  0.8523
 2395TIP3   OH228675   1.185   5.531  10.869  0.0080 -0.0138 -0.6417
 2395TIP3    H128676   1.204   5.453  10.818 -0.7275 -1.0675  0.6545
 2395TIP3    H228677   1.270   5.557  10.906 -0.2659 -2.5510  2.1258
 2396TIP3   OH228678   3.034   0.267  17.182  0.1845 -0.4145 -0.6189
 2396TIP3    H128679   2.975   0.291  17.111 -0.2481  0.6678  0.0805
 2396TIP3    H228680   3.091   0.343  17.193 -0.5002 -0.0861  0.9307
 2397TIP3   OH228681   6.099   3.311  10.743  0.2499  0.1771  0.2774
 2397TIP3    H128682   6.099   3.286  10.835 -1.5067 -0.0306  0.2594
 2397TIP3    H228683   6.006   3.321  10.721  0.7095  3.2359 -0.6762
 2398TIP3   OH228684   1.362   5.984  16.554  0.3759  0.1169  0.4613
 2398TIP3    H128685   1.300   6.006  16.623 -0.8123 -0.7852 -0.2852
 2398TIP3    H228686   1.319   6.011  16.473  3.0839  4.3003  0.1069
 2399TIP3   OH228687   5.845   1.627  12.133  0.1528  0.0535 -1.0188
 2399TIP3    H128688   5.830   1.538  12.166 -2.3629  0.1622 -1.6791
 2399TIP3    H228689   5.798   1.629  12.049 -4.8702  3.5311  1.3963
 2400TIP3   OH228690   5.318   5.130   2.151 -0.3163 -0.3511 -0.2573
 2400TIP3    H128691   5.266   5.188   2.207  0.3535  1.3926 -1.3481
 2400TIP3    H228692   5.407   5.138   2.185 -0.1537 -0.4543 -0.6577
 2401TIP3   OH228693   0.131   0.280   5.926  0.6885  0.5398  0.2234
 2401TIP3    H128694   0.108   0.196   5.886  1.0002  0.8324 -0.5951
 2401TIP3    H228695   0.048   0.313   5.962  0.2819  0.5226 -0.6814
 2402TIP3   OH228696   4.664   0.594  11.280 -0.6926  0.0145 -0.6387
 2402TIP3    H128697   4.611   0.525  11.319  2.1856 -2.2755 -0.4144
 2402TIP3    H228698   4.731   0.613  11.346 -0.5797  2.0185 -1.2830
 2403TIP3   OH228699   4.675   2.139   5.357 -0.5456 -0.1110 -0.3633
 2403TIP3    H128700   4.734   2.098   5.293  1.0551  1.1057  0.2640
 2403TIP3    H228701   4.722   2.133   5.440  0.5081  4.1422 -0.4381
 2404TIP3   OH228702   4.591   0.722  14.889  0.3749 -0.0121 -0.4268
 2404TIP3    H128703   4.684   0.712  14.908  0.6907  2.2629 -0.4594
 2404TIP3    H228704   4.585   0.804  14.840 -1.6486 -0.1380 -0.4868
 2405TIP3   OH228705   1.539   0.790   5.483 -0.1603 -0.0870 -0.1791
 2405TIP3    H128706   1.462   0.739   5.459 -0.8996  0.3858  1.0686
 2405TIP3    H228707   1.504   0.873   5.515  0.6307 -0.7190  2.6921
 2406TIP3   OH228708   3.186   0.320   5.210  0.2864 -0.0227 -0.1389
 2406TIP3    H128709   3.096   0.289   5.225  0.0718  0.7497  0.2407
 2406TIP3    H228710   3.190   0.403   5.257  1.4768 -0.4700  0.5648
 2407TIP3   OH228711   0.488   2.052  11.197  0.1925  0.2942 -0.3078
 2407TIP3    H128712   0.484   2.139  11.157 -0.9043 -0.0096 -0.8985
 2407TIP3    H228713   0.452   1.993  11.131 -1.7908 -0.2117  1.1175
 2408TIP3   OH228714   3.166   4.274   3.325 -0.0990 -0.6569  0.0162
 2408TIP3    H128715   3.081   4.278   3.282 -0.7717 -0.3042  1.3273
 2408TIP3    H228716   3.227   4.310   3.260 -0.7317 -1.9224 -1.3612
 2409TIP3   OH228717   1.888   4.872   3.073 -0.0625  0.1913 -0.3553
 2409TIP3    H128718   1.876   4.835   2.986  3.1093  0.3072 -0.9679
 2409TIP3    H228719   1.852   4.961   3.066 -3.1988 -0.9594 -0.3416
 2410TIP3   OH228720   3.737   5.414   6.482  0.7296 -0.8257 -0.3955
 2410TIP3    H128721   3.689   5.345   6.437  0.0446 -0.0615 -0.8587
 2410TIP3    H228722   3.788   5.368   6.549 -2.3723 -1.5234  1.7030
 2411TIP3   OH228723   1.034   1.665  14.432 -0.2288  0.1733 -0.5103
 2411TIP3    H128724   1.070   1.690  14.347 -0.5279 -0.9989 -0.9886
 2411TIP3    H228725   1.049   1.742  14.488  0.0554  0.9123 -1.5861
 2412TIP3   OH228726   1.730   0.771   5.235 -0.0843 -0.0541 -0.1307
 2412TIP3    H128727   1.693   0.827   5.303 -1.3294 -1.6544  0.5894
 2412TIP3    H228728   1.665   0.772   5.165  0.2906  0.0681 -0.4816
 2413TIP3   OH228729   6.236   4.362   5.851 -0.1126 -0.0982  0.5651
 2413TIP3    H128730   6.270   4.400   5.933 -2.5009 -1.6980  2.4041
 2413TIP3    H228731   6.176   4.429   5.817  0.2135  0.2016  0.5674
 2414TIP3   OH228732   0.391   6.254  13.034  0.1410 -0.5697 -0.1450
 2414TIP3    H128733   0.486   6.258  13.031  0.2812 -2.4823  0.2846
 2414TIP3    H228734   0.367   6.192  12.965 -0.8853  0.6960 -0.9583
 2415TIP3   OH228735   5.553   5.160  12.156 -0.1425 -0.0954  0.5259
 2415TIP3    H128736   5.555   5.151  12.251 -0.7887  2.1278  0.8208
 2415TIP3    H228737   5.642   5.186  12.132 -0.2841  0.6078  0.7221
 2416TIP3   OH228738   1.405   5.708   1.542 -0.4234 -0.1623 -0.7225
 2416TIP3    H128739   1.348   5.659   1.483 -0.8772 -0.3174 -0.1605
 2416TIP3    H228740   1.452   5.641   1.591 -1.3465 -0.0580  0.3393
 2417TIP3   OH228741   4.301   4.982   3.405 -0.5686 -0.4738 -0.2165
 2417TIP3    H128742   4.381   5.020   3.371 -1.0561  0.0888 -0.7620
 2417TIP3    H228743   4.300   5.005   3.497  0.4470 -1.4584  0.0719
 2418TIP3   OH228744   4.713   0.163  15.748 -0.5515 -0.3710 -0.5817
 2418TIP3    H128745   4.726   0.106  15.824 -2.2158 -0.0055  0.0315
 2418TIP3    H228746   4.695   0.249  15.785 -1.4797 -0.2033 -1.3680
 2419TIP3   OH228747   3.552   4.577   3.851 -0.1772  0.5127  0.3676
 2419TIP3    H128748   3.540   4.483   3.860  0.2595  0.3129 -0.9771
 2419TIP3    H228749   3.645   4.591   3.869  0.0357  0.5032 -0.6529
 2420TIP3   OH228750   2.972   0.400   4.238 -0.1232  0.3926 -0.3789
 2420TIP3    H128751   3.021   0.481   4.255 -1.3058  1.7418 -2.8288
 2420TIP3    H228752   2.910   0.394   4.310  1.9949 -0.0956  1.5122
 2421TIP3   OH228753   2.911   2.563  16.685  0.3839 -0.1423  0.2988
 2421TIP3    H128754   3.003   2.544  16.700 -0.0629 -0.9778  2.2038
 2421TIP3    H228755   2.894   2.529  16.597  1.9147  0.1933 -0.1565
 2422TIP3   OH228756   5.651   6.663   1.403  0.3362  0.0633 -0.1020
 2422TIP3    H128757   5.602   6.623   1.475  1.3158  0.6244  0.9079
 2422TIP3    H228758   5.613   6.624   1.325 -0.6406 -0.7058  0.7140
 2423TIP3   OH228759   2.030   4.610  11.165  0.3794  0.3028 -0.3675
 2423TIP3    H128760   2.101   4.669  11.191 -0.5153  1.9446 -1.4273
 2423TIP3    H228761   2.071   4.550  11.102  1.1285  0.3280  0.0802
 2424TIP3   OH228762   4.382   5.281  11.687 -0.1225  1.2995 -0.8462
 2424TIP3    H128763   4.423   5.274  11.774  1.3478  1.6820 -1.4716
 2424TIP3    H228764   4.387   5.192  11.651 -1.3937  0.9828 -0.2701
 2425TIP3   OH228765   5.019   5.320  11.824 -0.4291 -0.3972 -0.2538
 2425TIP3    H128766   5.015   5.313  11.729 -2.1512  0.5791 -0.2800
 2425TIP3    H228767   5.103   5.363  11.841 -0.0234 -0.7308 -1.2937
 2426TIP3   OH228768   5.507   4.285  10.649 -0.1349 -0.3874 -0.1676
 2426TIP3    H128769   5.512   4.363  10.705 -0.3899 -0.5990  0.1529
 2426TIP3    H228770   5.596   4.273  10.617  0.0246 -0.2897  0.2325
 2427TIP3   OH228771   5.603   2.024   4.121  0.2519  0.1033 -0.5423
 2427TIP3    H128772   5.611   2.119   4.132  2.8925 -0.1203  0.2400
 2427TIP3    H228773   5.514   2.010   4.089 -0.9928  2.6386  1.4774
 2428TIP3   OH228774   2.273   1.222   3.747  0.1758  0.2600 -0.0592
 2428TIP3    H128775   2.309   1.140   3.716  0.7130  0.6396 -0.4595
 2428TIP3    H228776   2.307   1.288   3.687 -0.4667  0.7413  0.0951
 2429TIP3   OH228777   3.802   6.072   5.962 -0.0240  0.6328  0.4579
 2429TIP3    H128778   3.850   5.994   5.991 -1.7598 -0.4948  0.4814
 2429TIP3    H228779   3.821   6.138   6.029  1.6584  0.3266  0.3211
 2430TIP3   OH228780   2.808   4.979   3.905  0.9111  0.1795 -0.4865
 2430TIP3    H128781   2.860   4.920   3.850  0.4751  0.4214 -1.1604
 2430TIP3    H228782   2.781   5.049   3.846 -0.4856 -0.1237 -0.2395
 2431TIP3   OH228783   3.717   3.919   1.976 -0.1289  0.5764 -0.4017
 2431TIP3    H128784   3.644   3.864   1.948 -0.7165  1.1407 -0.0107
 2431TIP3    H228785   3.751   3.956   1.894  0.3048 -0.3869 -0.6727
 2432TIP3   OH228786   6.677   1.826  11.377  0.1610 -0.0172 -0.1559
 2432TIP3    H128787   6.686   1.921  11.379  1.3837 -0.1172  1.5906
 2432TIP3    H228788   6.605   1.810  11.316  0.9653  1.9180 -1.7436
 2433TIP3   OH228789   1.552   1.755   0.407 -0.0051 -0.2791  0.3714
 2433TIP3    H128790   1.490   1.827   0.417 -0.7758 -0.7464 -0.8736
 2433TIP3    H228791   1.500   1.683   0.371  1.4668 -0.3534 -1.7659
 2434TIP3   OH228792   4.682   1.914  14.672 -0.8280  0.3427 -0.2546
 2434TIP3    H128793   4.748   1.936  14.607  1.2811 -0.3173  1.5258
 2434TIP3    H228794   4.672   1.819  14.665  0.2894  0.0803  1.0352
 2435TIP3   OH228795   5.120   3.535  16.447 -0.3102 -0.1341  0.5506
 2435TIP3    H128796   5.201   3.485  16.460  0.4444  1.3383  1.8978
 2435TIP3    H228797   5.149   3.616  16.405 -1.4307 -0.5381 -1.0600
 2436TIP3   OH228798   0.010   1.439  15.420 -0.4418  0.5632  0.0131
 2436TIP3    H128799   0.084   1.417  15.477 -0.4830  0.6507  0.1003
 2436TIP3    H228800   0.007   1.535  15.421 -0.2141  0.5765 -0.4256
 2437TIP3   OH228801   3.052   3.043   1.409 -0.4477 -0.0143  0.2412
 2437TIP3    H128802   3.020   3.130   1.387 -0.5331 -0.3679 -1.1290
 2437TIP3    H228803   3.071   3.047   1.503 -0.0191  1.6097  0.1100
 2438TIP3   OH228804   6.558   3.116  14.344  0.1143  0.9568  0.6758
 2438TIP3    H128805   6.631   3.085  14.290  0.5322 -0.6031  2.0623
 2438TIP3    H228806   6.509   3.175  14.286  0.5007 -0.6773 -1.4264
 2439TIP3   OH228807   5.301   3.231   4.501 -0.0691  0.0122 -0.0126
 2439TIP3    H128808   5.344   3.222   4.416  0.7977 -1.4959  0.5453
 2439TIP3    H228809   5.237   3.300   4.488 -0.9552 -1.1432 -2.3042
 2440TIP3   OH228810   4.042   0.415   5.030 -0.0269  0.4965  0.0379
 2440TIP3    H128811   4.093   0.349   4.982 -1.0025 -0.0902 -0.2127
 2440TIP3    H228812   4.026   0.484   4.965 -1.5846 -0.4212 -0.6272
 2441TIP3   OH228813   6.360   4.385  11.437 -0.6308  0.6666 -0.2152
 2441TIP3    H128814   6.283   4.332  11.419  1.6198 -1.9477 -3.4916
 2441TIP3    H228815   6.360   4.451  11.368  0.3258  0.2708 -0.6084
 2442TIP3   OH228816   1.367   1.139  13.047 -0.1854  0.1056  0.2942
 2442TIP3    H128817   1.293   1.198  13.030 -0.5376 -0.3589  0.1736
 2442TIP3    H228818   1.348   1.100  13.132 -0.4702 -0.5761 -0.0719
 2443TIP3   OH228819   1.877   1.670  13.076  0.2979  0.2277 -0.0596
 2443TIP3    H128820   1.797   1.662  13.127  0.5854  1.1353  0.5721
 2443TIP3    H228821   1.936   1.605  13.113  0.4026  0.6783  0.5751
 2444TIP3   OH228822   5.587   1.360  11.146  0.0043  0.1491  0.1292
 2444TIP3    H128823   5.530   1.343  11.071 -1.3948  2.6432  0.5054
 2444TIP3    H228824   5.654   1.419  11.112  0.0405  0.3621  0.5616
 2445TIP3   OH228825   1.843   3.104  15.116  0.1867 -0.7099  0.3343
 2445TIP3    H128826   1.806   3.080  15.031 -0.0286 -1.3575  0.6033
 2445TIP3    H228827   1.877   3.192  15.103 -0.9347 -0.3217 -0.0748
 2446TIP3   OH228828   3.374   3.286   0.565 -0.2447  0.2712 -0.3404
 2446TIP3    H128829   3.436   3.293   0.493  1.9646  0.0677  1.4381
 2446TIP3    H228830   3.326   3.205   0.547  0.4613  0.0763 -1.4328
 2447TIP3   OH228831   0.489   3.508   2.710  0.5941 -0.3847 -0.2099
 2447TIP3    H128832   0.526   3.563   2.641 -0.6721  2.1895  0.9987
 2447TIP3    H228833   0.559   3.499   2.775  0.7121  0.1347 -0.2620
 2448TIP3   OH228834   0.699   4.182   1.531 -0.5345  0.6234  0.2694
 2448TIP3    H128835   0.678   4.195   1.624  1.5395  0.1336  0.8568
 2448TIP3    H228836   0.794   4.185   1.528 -0.5576  0.2440 -1.8147
 2449TIP3   OH228837   0.188   6.563  14.616  0.1849 -0.7466  0.4160
 2449TIP3    H128838   0.215   6.633  14.557  0.4964 -1.0898  0.1472
 2449TIP3    H228839   0.132   6.507  14.562  2.5225 -2.4947 -0.3574
 2450TIP3   OH228840   6.132   3.565  13.706 -0.9235  0.5828  0.0540
 2450TIP3    H128841   6.061   3.569  13.642 -0.2774 -1.2285 -0.8420
 2450TIP3    H228842   6.203   3.615  13.666 -1.1472  1.0503  0.2321
 2451TIP3   OH228843   6.787   2.071  11.355  0.1004 -0.1744 -0.1068
 2451TIP3    H128844   6.802   2.142  11.417 -0.4075  1.7981 -2.1052
 2451TIP3    H228845   6.874   2.037  11.336  0.3921  0.1325  0.6529
 2452TIP3   OH228846   1.455   2.776   2.390  0.0402  0.1334 -0.2979
 2452TIP3    H128847   1.366   2.773   2.354 -0.3972 -4.2013  0.5061
 2452TIP3    H228848   1.443   2.776   2.485  0.7786 -1.2688 -0.1677
 2453TIP3   OH228849   6.677   4.537  17.062 -0.5194  0.2785  0.7913
 2453TIP3    H128850   6.742   4.602  17.090 -1.2078  0.4957  1.9690
 2453TIP3    H228851   6.600   4.589  17.036 -0.1104  0.0507 -1.0356
 2454TIP3   OH228852   2.690   6.742  15.410 -0.1678 -0.1503 -0.6940
 2454TIP3    H128853   2.632   6.817  15.422  0.1480  0.1281 -0.8517
 2454TIP3    H228854   2.694   6.730  15.315 -1.8408 -1.6821 -0.5995
 2455TIP3   OH228855   4.834   6.716  11.738  0.4282  0.7028  0.2986
 2455TIP3    H128856   4.869   6.718  11.827 -0.3964  0.8508  0.6329
 2455TIP3    H228857   4.774   6.642  11.738  0.7178  0.4639 -0.2565
 2456TIP3   OH228858   6.018   5.908  11.950  0.2502  0.1329 -0.1284
 2456TIP3    H128859   6.015   5.873  12.039  1.2122 -1.2297 -0.5987
 2456TIP3    H228860   5.935   5.882  11.911  0.6916 -1.1197 -0.2692
 2457TIP3   OH228861   6.656   6.171   1.850 -0.1320  0.2942 -0.5256
 2457TIP3    H128862   6.648   6.207   1.939  0.4682 -0.2170 -0.2609
 2457TIP3    H228863   6.621   6.240   1.793  0.8191  1.2338 -0.0142
 2458TIP3   OH228864   0.720   5.350   2.849 -0.1286  0.0139 -0.3654
 2458TIP3    H128865   0.723   5.257   2.825 -2.3237 -0.4968  1.0371
 2458TIP3    H228866   0.707   5.349   2.944 -1.0577  1.7345 -0.4408
 2459TIP3   OH228867   6.562   1.565   2.345  0.0673 -0.1310  0.2200
 2459TIP3    H128868   6.589   1.530   2.430 -0.7546 -1.7837 -0.1639
 2459TIP3    H228869   6.492   1.627   2.365 -0.1404 -0.5343  0.7358
 2460TIP3   OH228870   4.218   5.233   3.893  0.6521 -0.1632  0.0477
 2460TIP3    H128871   4.290   5.291   3.866 -0.9804  1.2428 -1.5905
 2460TIP3    H228872   4.216   5.240   3.988  1.3905  1.4471 -0.0188
 2461TIP3   OH228873   2.188   2.504  16.114  0.2127 -0.3203  0.0807
 2461TIP3    H128874   2.182   2.592  16.077 -1.1482  0.1926  1.3984
 2461TIP3    H228875   2.108   2.460  16.086  1.6543 -1.8170 -2.0305
 2462TIP3   OH228876   2.395   2.467   5.086  0.0401  0.2056  0.2286
 2462TIP3    H128877   2.352   2.551   5.073 -0.0910 -0.0730 -1.4151
 2462TIP3    H228878   2.402   2.430   4.998 -0.3024 -1.7048  0.9575
 2463TIP3   OH228879   5.675   4.279  11.797 -0.7030  0.2712 -0.5040
 2463TIP3    H128880   5.673   4.254  11.705  1.2122 -0.7416 -0.3297
 2463TIP3    H228881   5.764   4.257  11.825 -1.4039  0.0484  1.7209
 2464TIP3   OH228882   0.297   3.648   3.668  0.9965  1.0191  0.4459
 2464TIP3    H128883   0.212   3.685   3.690  0.7004  1.0463 -0.7111
 2464TIP3    H228884   0.317   3.683   3.581  1.0901 -0.8564 -0.3244
 2465TIP3   OH228885   6.785   2.261  11.611 -0.1350  0.1379 -0.1563
 2465TIP3    H128886   6.776   2.343  11.660 -1.0762 -0.0883  0.0628
 2465TIP3    H228887   6.719   2.203  11.649  1.1343 -1.0398  0.3330
 2466TIP3   OH228888   4.356   2.627  17.284 -0.5745  0.1335 -0.4064
 2466TIP3    H128889   4.316   2.544  17.309  1.9523 -1.9326 -2.5239
 2466TIP3    H228890   4.405   2.655  17.361 -0.0658 -1.3193 -0.1671
 2467TIP3   OH228891   0.309   5.692  12.988 -0.1138  0.3431  0.7777
 2467TIP3    H128892   0.230   5.698  12.934  0.2770  0.8371  0.2556
 2467TIP3    H228893   0.368   5.758  12.952  0.3136  0.3906  1.5450
 2468TIP3   OH228894   3.600   3.156  12.722 -0.0429 -0.6512 -0.3917
 2468TIP3    H128895   3.661   3.165  12.648  0.6402 -0.9272  0.1349
 2468TIP3    H228896   3.590   3.062  12.733  1.5245 -0.6826  1.2019
 2469TIP3   OH228897   5.653   0.390  16.040  0.0766  0.5036  0.6587
 2469TIP3    H128898   5.676   0.313  15.988  0.8145  0.2418  1.3473
 2469TIP3    H228899   5.681   0.368  16.129  1.8551  2.1749  0.5856
 2470TIP3   OH228900   2.887   4.560   1.084  0.1773 -0.2706  0.2996
 2470TIP3    H128901   2.950   4.576   1.014 -1.5875  2.7093 -0.8066
 2470TIP3    H228902   2.941   4.539   1.161  2.3903  0.3995 -0.9928
 2471TIP3   OH228903   4.366   3.915   0.384 -0.2756 -0.3469  0.1491
 2471TIP3    H128904   4.458   3.903   0.408 -0.6097 -1.5848  0.9255
 2471TIP3    H228905   4.319   3.850   0.437 -1.7032  0.8624  0.4313
 2472TIP3   OH228906   4.857   5.601  13.012  0.1715 -0.1627  0.0765
 2472TIP3    H128907   4.918   5.674  13.014  0.3559 -0.2320 -1.8161
 2472TIP3    H228908   4.907   5.527  13.046  0.9146 -0.0505 -0.7440
 2473TIP3   OH228909   5.772   0.413  11.353  0.0284  0.0958  0.6711
 2473TIP3    H128910   5.750   0.396  11.261  1.0136  0.3097  0.3863
 2473TIP3    H228911   5.688   0.410  11.398 -0.4230 -0.4207 -0.1726
 2474TIP3   OH228912   2.431   0.327   6.588 -0.1121  0.1345  0.5207
 2474TIP3    H128913   2.365   0.362   6.649 -1.1257  0.4512 -0.7099
 2474TIP3    H228914   2.410   0.234   6.582 -1.2609  0.4378 -0.7752
 2475TIP3   OH228915   6.134   4.349   2.323 -0.4777  0.3842 -0.1612
 2475TIP3    H128916   6.088   4.265   2.326 -0.4784  0.3985  2.0064
 2475TIP3    H228917   6.082   4.406   2.379  0.8966  1.0785  0.4430
 2476TIP3   OH228918   0.675   2.376   5.182 -0.2015  0.0991  0.4388
 2476TIP3    H128919   0.646   2.453   5.132  1.7410  1.7046  1.6868
 2476TIP3    H228920   0.678   2.306   5.117 -2.7939  0.8093 -0.5758
 2477TIP3   OH228921   1.753   5.861   5.762 -0.2097 -0.4791 -0.1430
 2477TIP3    H128922   1.724   5.916   5.690  1.2887  2.0955  1.0780
 2477TIP3    H228923   1.712   5.899   5.840  1.4739 -0.5223  0.8287
 2478TIP3   OH228924   5.785   6.091   4.712 -0.1373 -0.0400 -0.0969
 2478TIP3    H128925   5.833   6.147   4.651 -1.2880  1.4510  0.3055
 2478TIP3    H228926   5.823   6.004   4.700  1.0572  0.6291 -1.4373
 2479TIP3   OH228927   2.346   1.413  14.322 -0.2017 -0.2205  0.3131
 2479TIP3    H128928   2.396   1.459  14.389 -2.8749  1.6446  1.2148
 2479TIP3    H228929   2.352   1.321  14.346  2.8198 -0.1341  0.2370
 2480TIP3   OH228930   5.019   0.862  12.932  0.1457  0.2676  0.5353
 2480TIP3    H128931   4.937   0.911  12.927 -0.9973 -1.6715 -1.3414
 2480TIP3    H228932   5.042   0.844  12.841  1.3072 -1.3495  1.1043
 2481TIP3   OH228933   6.151   4.811   0.581  0.1851  0.1251  0.3658
 2481TIP3    H128934   6.089   4.883   0.595  0.2019 -0.0905  1.7349
 2481TIP3    H228935   6.137   4.753   0.656  1.6320 -0.2305  0.3927
 2482TIP3   OH228936   1.594   5.234   4.401  0.2446 -0.6809 -0.0439
 2482TIP3    H128937   1.511   5.193   4.423  0.2031 -0.5897 -0.0290
 2482TIP3    H228938   1.642   5.238   4.484 -0.3413  0.6425  0.2502
 2483TIP3   OH228939   4.780   5.545   4.061 -0.0848  0.0174  0.2113
 2483TIP3    H128940   4.809   5.455   4.071  0.6209  0.0643 -1.2574
 2483TIP3    H228941   4.813   5.572   3.975  0.6278  2.0154  1.0624
 2484TIP3   OH228942   0.734   3.209   4.822  0.1641  0.3539 -0.0475
 2484TIP3    H128943   0.645   3.223   4.856 -0.1038  0.6315 -0.8344
 2484TIP3    H228944   0.721   3.182   4.732  0.8760  0.0228 -0.0560
 2485TIP3   OH228945   0.472   5.691  12.711 -1.1620  0.1626  0.2662
 2485TIP3    H128946   0.498   5.608  12.754 -0.9761  0.0100 -0.1349
 2485TIP3    H228947   0.509   5.684  12.623  0.0537  1.2684  0.6594
 2486TIP3   OH228948   4.062   3.086   0.259 -0.9300 -0.6972 -0.1455
 2486TIP3    H128949   4.026   3.175   0.262 -0.8663 -0.5441 -2.2034
 2486TIP3    H228950   4.078   3.070   0.166  0.6154 -2.2622  0.3405
 2487TIP3   OH228951   5.258   5.944  14.445 -0.4488 -0.2814  0.1230
 2487TIP3    H128952   5.236   5.890  14.369 -1.4907  0.7747 -0.3589
 2487TIP3    H228953   5.227   5.894  14.520 -0.2460 -0.9134 -0.2076
 2488TIP3   OH228954   1.192   2.901   3.212  0.4318  0.1929  0.3506
 2488TIP3    H128955   1.233   2.823   3.250  0.9644  2.0286  4.0034
 2488TIP3    H228956   1.098   2.888   3.225  0.1723 -1.3216 -2.4147
 2489TIP3   OH228957   2.602   1.220   2.970  0.3582 -0.2432 -0.5707
 2489TIP3    H128958   2.653   1.155   2.922  1.9145 -0.0068  0.6977
 2489TIP3    H228959   2.571   1.174   3.048 -0.1972 -0.0007 -0.6427
 2490TIP3   OH228960   2.749   4.397  16.852  0.0786  0.3070 -0.2376
 2490TIP3    H128961   2.759   4.394  16.756 -0.1568  1.6482 -0.3289
 2490TIP3    H228962   2.821   4.453  16.881 -1.0177  1.5633  0.1567
 2491TIP3   OH228963   2.148   5.734  12.625 -0.7484 -0.7476 -0.0030
 2491TIP3    H128964   2.130   5.663  12.563  0.2976 -0.8952 -0.1742
 2491TIP3    H228965   2.095   5.807  12.595 -0.0921 -0.7469 -1.2353
 2492TIP3   OH228966   6.745   2.341  16.699  0.4785 -0.0234 -0.1394
 2492TIP3    H128967   6.756   2.348  16.794 -0.6273  0.7778 -0.0531
 2492TIP3    H228968   6.727   2.248  16.684  2.2131 -0.4515  0.2378
 2493TIP3   OH228969   6.099   2.720  17.285  0.5481  0.2971  0.4549
 2493TIP3    H128970   6.085   2.626  17.278 -0.3367  0.5238 -1.9160
 2493TIP3    H228971   6.013   2.754  17.311  0.7738  0.4882  0.9582
 2494TIP3   OH228972   5.830   4.700  16.724 -0.2205  0.3898  0.3702
 2494TIP3    H128973   5.833   4.741  16.637  0.6435  0.3444  0.3653
 2494TIP3    H228974   5.893   4.751  16.776 -0.5096  0.2278  0.8847
 2495TIP3   OH228975   3.415   5.251  15.801  0.3066  0.2015 -0.1194
 2495TIP3    H128976   3.412   5.155  15.808  0.8340  0.1478 -0.5659
 2495TIP3    H228977   3.399   5.281  15.891  0.7216 -0.3229  0.1421
 2496TIP3   OH228978   1.933   4.204   1.122  0.2101 -0.2841  0.6163
 2496TIP3    H128979   1.867   4.238   1.062 -0.9757 -1.8894  0.9500
 2496TIP3    H228980   2.007   4.264   1.113 -0.8643  0.9131 -0.6042
 2497TIP3   OH228981   4.550   5.619   2.511 -0.5451 -0.5721  0.1242
 2497TIP3    H128982   4.463   5.635   2.473 -0.3811 -1.2200 -0.5491
 2497TIP3    H228983   4.595   5.567   2.445  0.3016 -0.3873  0.5483
 2498TIP3   OH228984   3.407   1.610  14.947 -0.2119 -0.3916  0.4947
 2498TIP3    H128985   3.452   1.595  15.030 -1.2974 -1.0234  0.9950
 2498TIP3    H228986   3.318   1.637  14.972 -0.0485  1.1287 -0.4624
 2499TIP3   OH228987   5.524   6.682  16.136 -0.1345  0.0688  0.8238
 2499TIP3    H128988   5.594   6.628  16.100 -0.2952  0.3559  0.0435
 2499TIP3    H228989   5.562   6.721  16.215  0.2487 -0.5468  0.9508
 2500TIP3   OH228990   1.627   6.788   4.928 -0.4772  0.3336 -0.8085
 2500TIP3    H128991   1.614   6.835   4.846  0.5543  0.1925 -1.0695
 2500TIP3    H228992   1.621   6.856   4.995 -1.6344  0.3997 -0.9620
 2501TIP3   OH228993   6.202   2.680   6.380 -0.0885 -0.2985 -0.6184
 2501TIP3    H128994   6.192   2.594   6.422 -1.1133 -1.2474 -2.6515
 2501TIP3    H228995   6.114   2.701   6.348  0.5727  0.4809 -2.0183
 2502TIP3   OH228996   0.693   5.464   5.246 -0.0214 -0.2014  0.4563
 2502TIP3    H128997   0.656   5.551   5.231 -1.3659 -0.5239  1.6539
 2502TIP3    H228998   0.773   5.462   5.193 -1.4012  0.7502 -1.8216
 2503TIP3   OH228999   0.343   4.378  11.844  0.2556 -0.2383 -0.6602
 2503TIP3    H129000   0.250   4.398  11.833  0.7064  1.2468 -2.3163
 2503TIP3    H229001   0.347   4.325  11.924 -1.8882  0.4696 -0.0055
 2504TIP3   OH229002   3.993   3.565   0.438 -0.0614 -0.1083  0.1637
 2504TIP3    H129003   3.986   3.480   0.482 -0.4103  0.2542  0.8189
 2504TIP3    H229004   4.078   3.562   0.394 -0.6928 -1.3744 -1.0649
 2505TIP3   OH229005   2.800   4.115   3.024  0.2676 -0.7644 -0.4185
 2505TIP3    H129006   2.761   4.064   2.953 -0.9040  0.6733 -0.8601
 2505TIP3    H229007   2.888   4.078   3.035  0.0251 -1.8234 -1.7654
 2506TIP3   OH229008   5.444   6.202  12.441  0.3597 -0.6082 -0.5554
 2506TIP3    H129009   5.530   6.174  12.412  0.7165 -2.7345  2.2011
 2506TIP3    H229010   5.461   6.276  12.500 -0.2608  2.6781 -4.0676
 2507TIP3   OH229011   4.543   3.468   2.216  0.2598 -0.2210 -0.2762
 2507TIP3    H129012   4.614   3.504   2.163  0.8012 -1.2459 -0.2761
 2507TIP3    H229013   4.497   3.408   2.156  0.4155 -0.8173  0.1894
 2508TIP3   OH229014   2.044   3.298  11.526 -0.3373  0.0108 -0.0324
 2508TIP3    H129015   2.087   3.323  11.445 -0.7514 -1.5847 -0.7767
 2508TIP3    H229016   1.952   3.285  11.502 -0.7240  0.7526  0.9653
 2509TIP3   OH229017   3.888   4.633   0.979 -0.2774 -0.1479 -0.5385
 2509TIP3    H129018   3.865   4.596   0.894 -1.1412  0.0767 -0.4145
 2509TIP3    H229019   3.977   4.603   0.996 -0.5597 -1.2355 -0.9472
 2510TIP3   OH229020   3.956   4.540  12.648 -0.1440  0.2102 -0.9343
 2510TIP3    H129021   3.979   4.630  12.627 -1.9989  0.9942  0.1388
 2510TIP3    H229022   3.970   4.533  12.743 -1.0237 -0.2900 -0.8331
 2511TIP3   OH229023   3.411   2.203  17.001 -0.7409 -0.0591 -0.2809
 2511TIP3    H129024   3.390   2.242  16.916 -1.4494 -2.9860 -1.5766
 2511TIP3    H229025   3.480   2.140  16.982 -0.7547 -0.6141  1.3910
 2512TIP3   OH229026   5.421   0.214   5.348  0.1169  0.2020  0.2405
 2512TIP3    H129027   5.500   0.176   5.311 -0.3664 -1.1899  0.5597
 2512TIP3    H229028   5.403   0.290   5.294  0.0840 -1.1010 -1.6702
 2513TIP3   OH229029   3.775   1.649   0.001 -0.3491 -0.5010  0.4679
 2513TIP3    H129030   3.840   1.593   0.043  0.2871  0.2687  0.5471
 2513TIP3    H229031   3.823   1.690  -0.072 -0.5077  0.6988  1.0177
 2514TIP3   OH229032   3.860   0.298   3.753 -0.4790 -0.2592  0.2314
 2514TIP3    H129033   3.883   0.206   3.748 -2.1578 -0.7806  1.2668
 2514TIP3    H229034   3.765   0.300   3.737 -0.2263  1.4750 -1.4671
 2515TIP3   OH229035   1.538   3.479  14.887  0.2606  0.3599 -0.0360
 2515TIP3    H129036   1.625   3.509  14.859  0.8323  0.0229  1.3017
 2515TIP3    H229037   1.478   3.545  14.853  0.9904  0.4062 -1.3067
 2516TIP3   OH229038   6.122   4.145   0.734  0.6445  0.4141 -0.4711
 2516TIP3    H129039   6.122   4.064   0.682 -0.1943  0.9112 -1.2758
 2516TIP3    H229040   6.186   4.201   0.690  0.4878  0.5571 -0.5176
 2517TIP3   OH229041   5.589   3.806  13.431  0.3881  0.5635 -0.3382
 2517TIP3    H129042   5.620   3.761  13.353 -0.3766  0.2845 -0.4903
 2517TIP3    H229043   5.599   3.741  13.501 -0.6309  0.1721 -0.5409
 2518TIP3   OH229044   0.459   5.848   3.806  0.0857  0.9403 -0.6626
 2518TIP3    H129045   0.515   5.847   3.728 -0.8525 -1.0758 -1.3774
 2518TIP3    H229046   0.435   5.757   3.819 -0.5010  1.3585  1.5054
 2519TIP3   OH229047   3.408   0.138  14.667 -0.0077  0.2858  0.6592
 2519TIP3    H129048   3.384   0.231  14.656  0.0131  0.2616  0.3991
 2519TIP3    H229049   3.493   0.130  14.624 -1.0872 -0.3734 -1.5260
 2520TIP3   OH229050   0.023   4.310  17.072 -0.7240 -0.0752 -0.5787
 2520TIP3    H129051  -0.023   4.393  17.083 -1.3723 -0.7092  2.6951
 2520TIP3    H229052  -0.031   4.246  17.119  1.5402 -1.6111  0.1314
 2521TIP3   OH229053   1.235   2.459  15.847 -0.3404 -0.9263  0.3825
 2521TIP3    H129054   1.211   2.507  15.927  0.5443 -1.3111  0.8990
 2521TIP3    H229055   1.164   2.398  15.833 -1.4377  0.4352 -0.2213
 2522TIP3   OH229056   6.551   4.250  13.466  0.2176 -0.1180  0.9244
 2522TIP3    H129057   6.558   4.290  13.379 -1.5323 -1.2552  0.2142
 2522TIP3    H229058   6.515   4.319  13.521 -2.4233 -0.4766 -0.2038
 2523TIP3   OH229059   1.271   1.463  15.179  0.5296 -0.0510  0.3763
 2523TIP3    H129060   1.271   1.557  15.162  0.1058 -0.1353 -0.1369
 2523TIP3    H229061   1.318   1.453  15.261  2.9607  0.3538 -0.8915
 2524TIP3   OH229062   3.097   5.245   0.130  0.1148  0.5610 -0.1180
 2524TIP3    H129063   3.074   5.242   0.223 -1.4573  0.8668 -0.4640
 2524TIP3    H229064   3.090   5.337   0.106 -0.5411  0.3446 -0.7789
 2525TIP3   OH229065   6.520   6.605   1.755  0.4142  0.3784 -0.2952
 2525TIP3    H129066   6.579   6.637   1.822 -0.1175 -0.6406  0.7032
 2525TIP3    H229067   6.439   6.654   1.767 -0.5157 -1.4312  1.4531
 2526TIP3   OH229068   0.249   5.072   1.168  0.5021  0.0919 -0.7491
 2526TIP3    H129069   0.159   5.040   1.159  0.2170  0.0627  1.5895
 2526TIP3    H229070   0.278   5.086   1.078 -1.7952  0.0042 -1.5862
 2527TIP3   OH229071   0.842   6.241   0.056 -0.1581  0.2015 -0.3385
 2527TIP3    H129072   0.815   6.332   0.067  1.3584  0.5480  1.0163
 2527TIP3    H229073   0.814   6.198   0.137  1.6650  0.1831  0.3253
 2528TIP3   OH229074   4.688   5.354  14.007  0.4567 -0.4160  0.4337
 2528TIP3    H129075   4.771   5.401  14.016  0.7766  0.0420 -3.4955
 2528TIP3    H229076   4.711   5.263  14.025  1.5985 -0.1654  0.3474
 2529TIP3   OH229077   5.589   4.328   1.492  0.0773 -0.1746  0.6362
 2529TIP3    H129078   5.621   4.305   1.405  0.0859  1.1291  0.2709
 2529TIP3    H229079   5.527   4.400   1.477  1.5558  1.4379  1.8555
 2530TIP3   OH229080   6.568   2.353   0.250 -0.4367  0.0122  0.1130
 2530TIP3    H129081   6.538   2.410   0.320 -1.4077 -0.3720  0.0282
 2530TIP3    H229082   6.494   2.294   0.233 -0.1094 -0.1076 -1.0142
 2531TIP3   OH229083   0.610   2.374   1.383  0.2221 -0.4674 -0.3788
 2531TIP3    H129084   0.651   2.351   1.299  0.3664 -0.6709 -0.2552
 2531TIP3    H229085   0.541   2.309   1.395  0.0507 -0.2959 -0.4525
 2532TIP3   OH229086   1.874   2.954  11.515  0.0629 -0.0203 -0.3631
 2532TIP3    H129087   1.791   2.968  11.562 -0.0348  0.7217 -0.7517
 2532TIP3    H229088   1.864   3.002  11.433  0.6710 -0.3820 -0.6550
 2533TIP3   OH229089   1.673   0.580  12.039 -0.4215 -0.3103 -0.4740
 2533TIP3    H129090   1.656   0.635  12.115  1.5257  0.4381 -0.5210
 2533TIP3    H229091   1.626   0.499  12.056 -1.6651  0.6027  0.5595
 2534TIP3   OH229092   6.174   3.190  11.020  0.5411  0.0584  0.6826
 2534TIP3    H129093   6.108   3.122  11.031 -0.9809  1.5427  1.1257
 2534TIP3    H229094   6.142   3.263  11.072  1.3402  1.6757 -0.9888
 2535TIP3   OH229095   3.640   4.783   4.315 -0.0845 -0.2511  0.1303
 2535TIP3    H129096   3.550   4.811   4.296 -0.7752 -2.0364  0.5816
 2535TIP3    H229097   3.678   4.856   4.364 -1.3932  0.3843  0.2467
 2536TIP3   OH229098   5.725   2.264   5.012 -0.2768 -0.1843  0.5887
 2536TIP3    H129099   5.714   2.276   4.918 -0.0076 -0.3788  0.5316
 2536TIP3    H229100   5.637   2.279   5.049 -0.4961 -0.6239  0.2550
 2537TIP3   OH229101   2.552   4.250  16.393  0.3053 -0.0575 -0.1176
 2537TIP3    H129102   2.524   4.341  16.409 -0.2991 -0.1877 -0.4025
 2537TIP3    H229103   2.566   4.247  16.298  1.1774 -0.0304  0.0068
 2538TIP3   OH229104   5.162   4.902   2.121  0.5584  0.0980 -0.2831
 2538TIP3    H129105   5.214   4.852   2.183  0.1321 -0.7953 -0.6351
 2538TIP3    H229106   5.202   4.989   2.121  1.1337 -0.1570  0.5392
 2539TIP3   OH229107   4.190   3.943   5.561  0.0381 -0.3463 -0.6634
 2539TIP3    H129108   4.265   3.892   5.591  1.1654  0.8734 -1.3379
 2539TIP3    H229109   4.176   4.009   5.629 -2.4963 -2.4299  1.0842
 2540TIP3   OH229110   2.863   5.678   6.580 -0.5190  0.1256 -0.5873
 2540TIP3    H129111   2.880   5.587   6.554  2.2499 -0.0618  1.3636
 2540TIP3    H229112   2.938   5.727   6.546 -1.7090  1.6388 -1.1563
 2541TIP3   OH229113   0.078   2.804  14.311  0.2862  0.0204  0.3589
 2541TIP3    H129114   0.168   2.779  14.328 -0.1043 -0.4537  1.8943
 2541TIP3    H229115   0.036   2.724  14.282  0.1527  0.0176  0.5544
 2542TIP3   OH229116   6.407   2.265  15.546  0.0296  0.8480  0.2997
 2542TIP3    H129117   6.407   2.332  15.477 -0.6775  1.6518  1.0581
 2542TIP3    H229118   6.330   2.212  15.528  0.7862 -0.0164 -0.5123
 2543TIP3   OH229119   4.053   6.743  15.755 -0.3728 -0.1956  0.0101
 2543TIP3    H129120   3.991   6.740  15.827 -0.3765  0.5348  0.0433
 2543TIP3    H229121   4.092   6.656  15.754 -0.1653 -0.1285  1.0713
 2544TIP3   OH229122   5.582   4.007   3.779  0.5198  0.3820  0.1771
 2544TIP3    H129123   5.531   3.929   3.798 -0.8891  1.2305  0.0279
 2544TIP3    H229124   5.620   4.033   3.863  0.2113  0.0795  0.4093
 2545TIP3   OH229125   0.156   1.937   0.520  0.1197 -0.1983  0.2815
 2545TIP3    H129126   0.250   1.936   0.503  0.3309 -0.9113  1.3545
 2545TIP3    H229127   0.119   1.988   0.448  1.3429  0.2688 -0.0462
 2546TIP3   OH229128   1.767   0.687  13.418  0.0807  0.0295  0.4081
 2546TIP3    H129129   1.832   0.651  13.479 -0.9137 -0.8189  1.0135
 2546TIP3    H229130   1.725   0.757  13.467  0.0321  0.0777  0.2959
 2547TIP3   OH229131   5.921   5.310  14.032 -0.2007 -0.0453 -0.6838
 2547TIP3    H129132   5.847   5.294  14.090 -0.7088 -0.6584 -1.4840
 2547TIP3    H229133   5.925   5.405  14.023 -0.4810  0.0192 -0.1130
 2548TIP3   OH229134   2.141   4.050   1.720  0.1331  0.4057  0.0453
 2548TIP3    H129135   2.079   4.109   1.679  0.5395  0.7249 -0.1157
 2548TIP3    H229136   2.087   3.984   1.763 -0.3063  0.5240 -0.3279
 2549TIP3   OH229137   4.369   3.876  15.728  0.2370 -0.1089  0.0688
 2549TIP3    H129138   4.423   3.823  15.788 -0.8241 -0.9253  0.3319
 2549TIP3    H229139   4.291   3.823  15.713 -0.6294  1.1689 -0.0882
 2550TIP3   OH229140   5.118   3.428  15.389 -0.6422  0.7456 -0.7916
 2550TIP3    H129141   5.199   3.393  15.426 -1.6995 -1.8598 -0.7786
 2550TIP3    H229142   5.107   3.513  15.432  2.2875  1.4311 -1.1709
 2551TIP3   OH229143   2.209   6.685   0.850  0.3990  0.6448  0.2048
 2551TIP3    H129144   2.191   6.627   0.776  0.2474 -1.2716  1.6812
 2551TIP3    H229145   2.132   6.743   0.854  0.4547  0.8534 -1.1612
 2552TIP3   OH229146   6.749   6.578   4.008 -0.7617 -0.4650 -0.2198
 2552TIP3    H129147   6.835   6.580   4.051 -0.4533 -2.2136 -0.6749
 2552TIP3    H229148   6.770   6.570   3.915 -1.4392  1.4019 -0.5779
 2553TIP3   OH229149   3.220   4.854   2.216  0.2471 -0.0588  0.6809
 2553TIP3    H129150   3.305   4.885   2.248  0.0848  0.2812  0.7799
 2553TIP3    H229151   3.240   4.770   2.174  0.8016  0.5310 -0.2691
 2554TIP3   OH229152   2.140   1.800  13.049 -0.3381 -0.0258  0.5035
 2554TIP3    H129153   2.204   1.739  13.013 -0.5733  0.3974 -0.6904
 2554TIP3    H229154   2.062   1.747  13.063 -0.1504 -0.2593  0.6837
 2555TIP3   OH229155   6.469   5.759  11.986 -0.6956  0.2698  0.2966
 2555TIP3    H129156   6.529   5.773  12.059  3.2675 -2.6943 -2.0045
 2555TIP3    H229157   6.417   5.682  12.011  1.6212 -1.6109 -0.3755
 2556TIP3   OH229158   1.521   0.593  16.843 -0.5315 -0.2407  0.0859
 2556TIP3    H129159   1.519   0.671  16.788  0.6603 -0.9607 -1.0391
 2556TIP3    H229160   1.465   0.614  16.918 -0.8090  1.4009 -0.5572
 2557TIP3   OH229161   5.039   3.885   2.734  0.7539  0.0531 -0.0675
 2557TIP3    H129162   5.084   3.860   2.815 -1.0007 -0.3868  0.8304
 2557TIP3    H229163   5.014   3.976   2.748  0.9755  0.1589 -0.3656
 2558TIP3   OH229164   5.982   6.175  14.551 -0.0378  0.3460  0.1726
 2558TIP3    H129165   5.917   6.197  14.484 -0.5786  1.3609  1.0024
 2558TIP3    H229166   6.053   6.134  14.502 -0.9298 -0.0312 -0.8650
 2559TIP3   OH229167   2.992   4.880  13.846  0.0590  0.1931  0.0098
 2559TIP3    H129168   2.911   4.830  13.831 -0.4265  1.4406 -1.9648
 2559TIP3    H229169   2.962   4.966  13.875  0.9099 -0.7895  4.6517
 2560TIP3   OH229170   5.772   1.115  13.050 -0.2531 -0.0467  0.4376
 2560TIP3    H129171   5.786   1.137  13.142 -2.1522  0.6071  0.6095
 2560TIP3    H229172   5.715   1.038  13.052 -3.0907  1.9048 -0.1080
 2561TIP3   OH229173   2.977   3.853   5.575 -0.0714  0.8125 -0.2414
 2561TIP3    H129174   3.005   3.849   5.666  0.8375  0.7866 -0.5119
 2561TIP3    H229175   2.912   3.923   5.573 -1.4741 -0.4021  0.7661
 2562TIP3   OH229176   6.150   1.592  11.638 -0.1223 -0.2315  0.4787
 2562TIP3    H129177   6.183   1.576  11.726  1.0983  1.1375  0.3202
 2562TIP3    H229178   6.206   1.663  11.604 -1.3724  0.1358 -0.9250
 2563TIP3   OH229179   1.632   4.445  16.265  0.2507  1.2928  0.3789
 2563TIP3    H129180   1.579   4.410  16.193  1.7404  0.6587 -0.4330
 2563TIP3    H229181   1.623   4.540  16.257 -0.5142  1.2079  0.0813
 2564TIP3   OH229182   2.552   0.544   0.596 -0.0217 -0.4841  0.3406
 2564TIP3    H129183   2.625   0.544   0.659 -0.8020 -0.5155  1.2600
 2564TIP3    H229184   2.574   0.614   0.535  0.4915 -0.1050  0.9483
 2565TIP3   OH229185   6.013   0.885   5.553  0.1891  0.5815  0.0701
 2565TIP3    H129186   6.029   0.810   5.610 -0.9788  0.7476  0.6307
 2565TIP3    H229187   6.081   0.948   5.578  0.7336 -0.0025  0.0901
 2566TIP3   OH229188   1.955   5.839   2.871  0.3251  0.6506 -0.0325
 2566TIP3    H129189   1.892   5.790   2.819 -0.6622  0.8674  0.9357
 2566TIP3    H229190   2.014   5.772   2.906 -0.8862  0.1245  1.1082
 2567TIP3   OH229191   6.227   6.743  10.456  0.1176  0.4311 -0.4205
 2567TIP3    H129192   6.177   6.666  10.432  0.7828 -0.8666  1.9962
 2567TIP3    H229193   6.167   6.816  10.444 -1.9477 -0.9231  1.0406
 2568TIP3   OH229194   3.977   2.653   4.638 -0.5694 -0.5138 -0.2555
 2568TIP3    H129195   4.048   2.649   4.703 -1.5010  0.0350  0.8443
 2568TIP3    H229196   3.998   2.730   4.585  0.2903 -1.0634 -0.7440
 2569TIP3   OH229197   6.580   5.734   5.311 -0.7845 -0.1755  0.1693
 2569TIP3    H129198   6.567   5.721   5.405  0.4256 -0.3771  0.3216
 2569TIP3    H229199   6.662   5.689   5.292 -0.3285  0.9810 -0.7304
 2570TIP3   OH229200   0.647   1.600  11.769  0.1426  0.0092 -0.1080
 2570TIP3    H129201   0.727   1.584  11.719  0.4000  0.3660  0.1866
 2570TIP3    H229202   0.610   1.512  11.783  1.8103 -0.4767  1.9191
 2571TIP3   OH229203   2.598   4.810   1.356  0.0935 -0.2570  0.3272
 2571TIP3    H129204   2.606   4.715   1.344 -0.4584 -0.2550 -0.1247
 2571TIP3    H229205   2.640   4.828   1.440  0.7140 -0.8205  0.1446
 2572TIP3   OH229206   5.342   6.731  13.463 -0.4563 -0.2765  0.1864
 2572TIP3    H129207   5.273   6.702  13.523  0.2160 -1.1074  0.5858
 2572TIP3    H229208   5.305   6.720  13.376 -0.9483 -0.4003  0.4121
 2573TIP3   OH229209   4.277   4.350   3.920  0.3357  0.4010  0.0916
 2573TIP3    H129210   4.234   4.272   3.955  2.7125 -0.7713  0.5681
 2573TIP3    H229211   4.245   4.422   3.976 -0.1496 -0.5938  1.1386
 2574TIP3   OH229212   1.857   1.090   2.942  0.3108  0.0741 -0.4455
 2574TIP3    H129213   1.786   1.043   2.898  0.5191 -1.2994  0.6076
 2574TIP3    H229214   1.819   1.174   2.967 -0.7480 -0.3826 -0.4807
 2575TIP3   OH229215   3.905   4.044   0.554  0.8315 -0.7635 -0.6500
 2575TIP3    H129216   3.893   4.129   0.597 -0.4802 -0.0676 -2.2779
 2575TIP3    H229217   3.872   3.980   0.618  0.4970  0.0835  0.0418
 2576TIP3   OH229218   1.792   1.113  15.743 -0.1337 -0.0014  0.2580
 2576TIP3    H129219   1.832   1.185  15.793 -3.0852  1.8498  0.2726
 2576TIP3    H229220   1.769   1.152  15.659 -1.7662 -0.8820  0.2399
 2577TIP3   OH229221   6.153   3.138   2.884 -0.3216 -0.1793 -0.0993
 2577TIP3    H129222   6.213   3.103   2.819 -0.9329  0.9565 -1.3299
 2577TIP3    H229223   6.081   3.075   2.886 -0.9524  0.4508 -1.5733
 2578TIP3   OH229224   0.749   6.588  13.015  0.2282 -0.3130  0.3669
 2578TIP3    H129225   0.809   6.626  12.951  1.7113 -0.3050  1.6782
 2578TIP3    H229226   0.806   6.559  13.087 -1.2171 -1.6213  1.0568
 2579TIP3   OH229227   0.841   5.709  15.487 -0.4470  0.0583 -0.0306
 2579TIP3    H129228   0.896   5.705  15.565 -1.2804  0.7146  0.6132
 2579TIP3    H229229   0.778   5.637  15.499 -0.6525  0.2372 -0.0388
 2580TIP3   OH229230   1.827   5.714  15.787 -0.1507  0.2498  0.3601
 2580TIP3    H129231   1.890   5.780  15.817  1.1430 -1.2295  1.0828
 2580TIP3    H229232   1.839   5.710  15.692 -0.9816  1.7295  0.1586
 2581TIP3   OH229233   0.467   3.734  12.221 -0.0042 -0.2170 -0.4116
 2581TIP3    H129234   0.435   3.741  12.311  3.0192 -1.9083  0.9457
 2581TIP3    H229235   0.552   3.780  12.222 -0.8177  1.5847 -3.0324
 2582TIP3   OH229236   3.104   1.040   4.535 -0.3061  0.2688 -0.0718
 2582TIP3    H129237   3.030   0.983   4.515 -0.3393  0.6207 -0.9946
 2582TIP3    H229238   3.163   0.985   4.585 -1.1039 -0.0744  0.5185
 2583TIP3   OH229239   0.915   1.597  12.199  0.1150  0.0572  0.0338
 2583TIP3    H129240   0.822   1.615  12.187 -0.6043 -1.8377  2.1883
 2583TIP3    H229241   0.939   1.542  12.124 -0.3654  0.8718 -0.7343
 2584TIP3   OH229242   3.394   1.760   3.670 -0.0741 -0.0159  0.0611
 2584TIP3    H129243   3.375   1.852   3.690  0.6351  0.0913  0.2486
 2584TIP3    H229244   3.477   1.763   3.623 -0.3146 -0.5194 -0.4108
 2585TIP3   OH229245   6.314   0.134  14.611  0.8827 -0.0163 -0.2459
 2585TIP3    H129246   6.331   0.112  14.703 -1.1647  0.7704  0.3601
 2585TIP3    H229247   6.343   0.056  14.563  0.9428 -0.9049  1.1499
 2586TIP3   OH229248   0.990   4.020  15.181 -0.4582  0.1747 -0.1893
 2586TIP3    H129249   0.945   3.954  15.234 -0.3840 -0.3483 -0.7721
 2586TIP3    H229250   0.940   4.025  15.100  1.2887 -1.4671 -1.4689
 2587TIP3   OH229251   1.783   4.554   2.092 -0.1211 -0.1310 -0.4229
 2587TIP3    H129252   1.859   4.607   2.070  1.2701 -1.7996  0.1387
 2587TIP3    H229253   1.757   4.584   2.180  0.4108 -0.1129 -0.2701
 2588TIP3   OH229254   0.103   3.059   4.730  0.0452  0.6163 -0.1895
 2588TIP3    H129255   0.173   3.032   4.789  0.3365 -0.8616 -1.1531
 2588TIP3    H229256   0.029   3.002   4.752 -0.3627  1.1129 -0.2259
 2589TIP3   OH229257   0.219   5.051   1.436 -0.1562  0.2559 -0.6705
 2589TIP3    H129258   0.206   5.104   1.357 -3.1023 -1.1488 -1.2267
 2589TIP3    H229259   0.208   4.961   1.406 -0.9337 -0.3235  1.2721
 2590TIP3   OH229260   1.266   6.154  14.146 -0.2299  0.2981 -0.1072
 2590TIP3    H129261   1.350   6.173  14.187 -0.7674  0.1352  1.0955
 2590TIP3    H229262   1.288   6.125  14.057  0.9607  0.4566  0.1316
 2591TIP3   OH229263   2.238   6.599   4.648 -0.1874 -0.3362 -0.0361
 2591TIP3    H129264   2.160   6.590   4.703 -1.6533 -0.0110 -1.9090
 2591TIP3    H229265   2.274   6.685   4.671  1.9103 -1.9593  3.4696
 2592TIP3   OH229266   3.671   6.639   5.106  0.5335 -0.6009  0.0304
 2592TIP3    H129267   3.759   6.670   5.128  0.6040  0.3510 -1.4336
 2592TIP3    H229268   3.685   6.554   5.064  0.5858 -1.2787  1.3725
 2593TIP3   OH229269   0.714   5.096   4.022  0.7484 -0.1598  0.4904
 2593TIP3    H129270   0.732   5.056   4.107 -1.1520  0.6753  1.3431
 2593TIP3    H229271   0.746   5.186   4.029 -2.0163  0.8466  1.4650
 2594TIP3   OH229272   2.970   5.527   4.545 -0.0588  0.5522  0.0917
 2594TIP3    H129273   2.970   5.466   4.471 -1.4567  0.4845  0.1218
 2594TIP3    H229274   2.900   5.496   4.602  1.4712  0.1857  1.8370
 2595TIP3   OH229275   5.718   2.685   0.179  0.3452  0.0118  0.4423
 2595TIP3    H129276   5.750   2.615   0.124  2.2153  0.5305  0.7976
 2595TIP3    H229277   5.624   2.670   0.185  0.5000 -1.6159 -0.6343
 2596TIP3   OH229278   3.581   2.688  13.012 -0.4188 -0.7003 -0.0065
 2596TIP3    H129279   3.549   2.677  13.101 -0.2846 -0.6043  0.0536
 2596TIP3    H229280   3.608   2.600  12.986  0.5301 -0.5528  0.4313
 2597TIP3   OH229281   3.360   2.187  12.759 -0.6575 -0.1416  0.4827
 2597TIP3    H129282   3.333   2.163  12.848 -1.6333 -0.2110  0.1776
 2597TIP3    H229283   3.406   2.109  12.727  0.2070  0.0895  1.1160
 2598TIP3   OH229284   0.625   1.300  12.464  0.3359 -0.5843  0.1662
 2598TIP3    H129285   0.615   1.322  12.556  0.2508 -3.2075  0.8694
 2598TIP3    H229286   0.683   1.367  12.429 -0.9416  1.4179  1.6872
 2599TIP3   OH229287   2.616   1.405   0.265  0.1347 -0.7633  0.3259
 2599TIP3    H129288   2.606   1.456   0.185 -1.0258 -0.1332  0.8502
 2599TIP3    H229289   2.580   1.319   0.243  0.1023 -0.6896  0.0853
 2600TIP3   OH229290   0.289   0.499  13.490 -0.3453  0.1272 -0.9333
 2600TIP3    H129291   0.308   0.593  13.492  2.3195 -0.3466  0.8965
 2600TIP3    H229292   0.288   0.476  13.397  0.9935  1.6028 -1.3494
 2601TIP3   OH229293   3.090   5.971   1.526  0.5477 -0.2375 -0.3076
 2601TIP3    H129294   3.160   5.949   1.464 -1.4885 -1.1349 -2.4303
 2601TIP3    H229295   3.101   5.909   1.598  0.9936 -1.4280 -1.3724
 2602TIP3   OH229296   0.124   1.214  11.223  0.2138  0.0779  0.2127
 2602TIP3    H129297   0.170   1.140  11.184  1.6223  0.0561  1.7929
 2602TIP3    H229298   0.034   1.207  11.191  0.3018 -2.3334  0.3291
 2603TIP3   OH229299   0.579   1.474   0.556 -0.0239 -0.8165  0.0003
 2603TIP3    H129300   0.492   1.504   0.529  0.5950 -0.5879 -1.8148
 2603TIP3    H229301   0.563   1.387   0.593 -0.7725 -1.9101 -2.6515
 2604TIP3   OH229302   6.785   5.620   5.577  0.0391 -0.0040 -0.1990
 2604TIP3    H129303   6.803   5.712   5.600  1.3107  0.5004 -2.8065
 2604TIP3    H229304   6.691   5.618   5.560  0.2690  1.3831 -2.0128
 2605TIP3   OH229305   4.463   2.196  11.298  0.3656 -0.1295  0.5734
 2605TIP3    H129306   4.417   2.274  11.268  1.5543  0.0234 -0.9134
 2605TIP3    H229307   4.529   2.178  11.231  0.6650 -1.9436  1.2816
 2606TIP3   OH229308   4.923   6.136  11.193  0.1832 -0.2093  0.0936
 2606TIP3    H129309   4.842   6.086  11.182  0.3376 -0.2172 -1.0623
 2606TIP3    H229310   4.926   6.196  11.119  0.1301  1.3824  1.3326
 2607TIP3   OH229311   3.674   6.445  12.332 -0.0631 -0.3614 -0.1611
 2607TIP3    H129312   3.717   6.437  12.247  1.6635 -0.9227  0.7328
 2607TIP3    H229313   3.618   6.522  12.322  0.6904  0.0491 -1.5655
 2608TIP3   OH229314   0.691   2.141   3.614 -0.1081  0.9752  0.4740
 2608TIP3    H129315   0.783   2.160   3.629  0.1923  0.4575 -0.6041
 2608TIP3    H229316   0.689   2.097   3.529 -0.9504 -2.2084  2.0047
 2609TIP3   OH229317   0.209   1.756   0.217  0.7703  0.3973 -0.2738
 2609TIP3    H129318   0.253   1.837   0.191  1.2632 -0.3331 -1.8994
 2609TIP3    H229319   0.275   1.688   0.203  0.4843 -0.2762  1.3857
 2610TIP3   OH229320   1.088   4.920  17.114 -0.1804  0.6491  0.1256
 2610TIP3    H129321   1.023   4.853  17.096  0.8806 -0.4583  0.3380
 2610TIP3    H229322   1.056   4.998  17.068 -2.0861  0.3865  0.9469
 2611TIP3   OH229323   1.707   6.380   3.386 -0.6120 -0.2056 -0.1930
 2611TIP3    H129324   1.730   6.417   3.301 -0.0903  1.2700  0.5703
 2611TIP3    H229325   1.618   6.412   3.404 -0.4583  0.0415  0.1288
 2612TIP3   OH229326   0.122   6.366   0.469  0.1057 -0.0590 -0.6428
 2612TIP3    H129327   0.183   6.433   0.498  2.3499 -1.4832 -1.7834
 2612TIP3    H229328   0.081   6.334   0.549  1.0391  0.7805  0.1885
 2613TIP3   OH229329   1.207   5.154   1.947  0.0229  0.1481 -0.0970
 2613TIP3    H129330   1.165   5.110   2.021 -0.4218 -1.4927 -1.2708
 2613TIP3    H229331   1.135   5.176   1.889  0.5195 -0.2168 -0.8655
 2614TIP3   OH229332   1.469   1.612   4.628 -0.5013  0.0006 -0.5685
 2614TIP3    H129333   1.455   1.559   4.707  0.2158 -0.5434 -0.7866
 2614TIP3    H229334   1.561   1.639   4.634  0.4035 -2.2607 -2.4698
 2615TIP3   OH229335   5.202   4.717  15.239 -0.1733 -0.1421 -0.3015
 2615TIP3    H129336   5.137   4.754  15.180  0.3994 -0.1436 -0.9512
 2615TIP3    H229337   5.280   4.705  15.184  0.3031 -0.3454  0.4038
 2616TIP3   OH229338   4.571   3.433  12.339  0.4887  0.2028 -0.0374
 2616TIP3    H129339   4.588   3.380  12.417 -0.8615 -1.2556 -0.6842
 2616TIP3    H229340   4.506   3.497  12.367  0.6828  0.2715  0.2573
 2617TIP3   OH229341   3.258   3.392   0.781  0.1641 -0.5157  0.0145
 2617TIP3    H129342   3.310   3.469   0.805 -1.7733  1.2327 -1.0418
 2617TIP3    H229343   3.305   3.355   0.706  2.3837 -1.8448  1.9342
 2618TIP3   OH229344   2.414   2.874   2.977 -0.4450 -0.0161  0.0267
 2618TIP3    H129345   2.324   2.847   2.998 -0.3351 -1.1688 -0.8643
 2618TIP3    H229346   2.466   2.841   3.051 -0.5973 -0.4801 -0.0654
 2619TIP3   OH229347   3.229   1.410   3.604  0.2296  0.1583  0.3264
 2619TIP3    H129348   3.201   1.499   3.625 -0.3220  0.5040 -1.6635
 2619TIP3    H229349   3.148   1.363   3.584  0.7074  0.1220 -1.7580
 2620TIP3   OH229350   2.137   2.354   2.313  0.2604  0.1522  0.4006
 2620TIP3    H129351   2.222   2.316   2.333  0.4066  0.5679  0.5803
 2620TIP3    H229352   2.142   2.444   2.345 -0.6404 -0.1600  1.5073
 2621TIP3   OH229353   2.500   1.893  12.038  0.6111 -0.8136  0.4430
 2621TIP3    H129354   2.473   1.861  12.124  0.4988  0.0619  0.7447
 2621TIP3    H229355   2.422   1.884  11.983  0.3015 -0.1962  0.7741
 2622TIP3   OH229356   6.072   4.143  15.567 -0.4976 -0.3529 -0.0710
 2622TIP3    H129357   6.021   4.091  15.505 -1.9801 -2.1353  2.4670
 2622TIP3    H229358   6.157   4.098  15.571 -0.6303 -0.6276 -0.3002
 2623TIP3   OH229359   3.961   0.944   5.964  0.0795  0.4540  0.2999
 2623TIP3    H129360   3.896   0.985   6.020 -0.1718  0.9542 -0.3434
 2623TIP3    H229361   4.040   0.939   6.019 -0.6200 -0.6341  1.2542
 2624TIP3   OH229362   2.813   4.931  16.760  0.1826 -0.2845 -0.2090
 2624TIP3    H129363   2.842   4.936  16.669  1.6212 -1.2975  0.1718
 2624TIP3    H229364   2.766   4.847  16.766  0.5066 -0.4463  0.0942
 2625TIP3   OH229365   0.127   3.197  13.179 -0.1481  0.2232 -0.1480
 2625TIP3    H129366   0.090   3.224  13.263  0.1602  0.9489 -0.2400
 2625TIP3    H229367   0.166   3.277  13.143  1.8446 -0.5705  0.1122
 2626TIP3   OH229368   2.382   6.701  13.882 -0.6318 -0.1230 -0.7674
 2626TIP3    H129369   2.371   6.705  13.977  0.6818 -1.1984 -0.5413
 2626TIP3    H229370   2.365   6.610  13.859 -0.9427  0.1260 -1.5706
 2627TIP3   OH229371   1.526   5.779  11.191  0.6116  0.3407  0.0058
 2627TIP3    H129372   1.521   5.741  11.279  2.4578  0.8195  0.3493
 2627TIP3    H229373   1.492   5.711  11.133 -2.9063  0.8255  1.2360
 2628TIP3   OH229374   2.984   6.753   4.586 -0.3672  0.4380  0.3977
 2628TIP3    H129375   2.896   6.787   4.606 -0.3803  0.8136 -0.2470
 2628TIP3    H229376   3.010   6.801   4.507 -0.1109 -0.5792 -0.1607
 2629TIP3   OH229377   3.980   4.447  14.929 -0.2903 -0.0918 -0.1034
 2629TIP3    H129378   3.913   4.460  14.996  1.0948  3.0743  0.8373
 2629TIP3    H229379   4.063   4.456  14.975  0.7765 -0.5300 -1.8219
 2630TIP3   OH229380   2.262   0.310   3.365 -0.5420  0.5969  0.1428
 2630TIP3    H129381   2.303   0.224   3.369 -1.2740  0.2512  3.3077
 2630TIP3    H229382   2.333   0.372   3.384 -0.1255  0.6842 -1.5913
 2631TIP3   OH229383   2.912   6.790  16.640 -0.3118  0.3021  0.5469
 2631TIP3    H129384   2.986   6.794  16.701  0.5694  1.1613 -0.5422
 2631TIP3    H229385   2.858   6.866  16.662  1.2978  2.1132 -1.2578
 2632TIP3   OH229386   2.908   6.078   5.822 -0.0369  0.6235  0.5717
 2632TIP3    H129387   2.981   6.130   5.787 -0.7061 -0.2713 -2.4559
 2632TIP3    H229388   2.831   6.108   5.773 -0.7317 -2.0253 -0.1224
 2633TIP3   OH229389   3.273   6.621  11.292 -0.0243  0.4211 -0.1875
 2633TIP3    H129390   3.252   6.634  11.385  0.0938  1.0655 -0.2395
 2633TIP3    H229391   3.192   6.588  11.253 -0.3719  1.0730 -0.0338
 2634TIP3   OH229392   4.665   6.285  15.849 -0.3275 -0.4166 -0.0683
 2634TIP3    H129393   4.689   6.216  15.911  2.8844  1.1932  0.6819
 2634TIP3    H229394   4.723   6.272  15.775 -1.2944  0.1545 -0.9550
 2635TIP3   OH229395   2.272   3.844  13.621 -0.7162  0.2450  0.0394
 2635TIP3    H129396   2.293   3.783  13.551 -1.9803 -0.1656 -0.0020
 2635TIP3    H229397   2.203   3.899  13.585  0.0205  1.3417  0.2784
 2636TIP3   OH229398   1.462   5.769  13.690 -0.8268 -0.4247  0.2948
 2636TIP3    H129399   1.466   5.768  13.785 -1.4965 -0.2718  0.3322
 2636TIP3    H229400   1.401   5.840  13.670 -0.8011 -0.5503 -0.2393
 2637TIP3   OH229401   2.010   4.924  11.745 -0.0550  0.6992  0.2565
 2637TIP3    H129402   2.002   4.837  11.705 -0.7942  1.0125 -0.3046
 2637TIP3    H229403   2.068   4.972  11.687 -0.3077  0.8336  0.1122
 2638TIP3   OH229404   5.190   1.516  16.622  0.2675  0.1789  0.5002
 2638TIP3    H129405   5.111   1.533  16.673 -0.1697  1.2609 -0.4947
 2638TIP3    H229406   5.239   1.598  16.627  0.2051  0.3129 -0.8069
 2639TIP3   OH229407   1.096   6.157   2.891 -0.4201  0.0644  0.3911
 2639TIP3    H129408   1.029   6.225   2.885 -1.1751 -0.8106 -2.3439
 2639TIP3    H229409   1.175   6.204   2.920 -1.2636  1.8221 -0.0482
 2640TIP3   OH229410   2.946   6.062   6.384  0.4334  0.0460 -0.3569
 2640TIP3    H129411   3.013   6.123   6.416  0.9672 -0.2666 -0.8780
 2640TIP3    H229412   2.888   6.117   6.331  0.9003  0.1122 -0.8069
 2641TIP3   OH229413   2.502   5.608   1.985  0.9556  0.3921  0.0936
 2641TIP3    H129414   2.452   5.566   2.055  0.4298 -0.2771 -0.6655
 2641TIP3    H229415   2.588   5.626   2.024  1.5328 -2.2334  0.2215
 2642TIP3   OH229416   2.323   2.425   2.095 -0.7282 -0.1577 -0.3440
 2642TIP3    H129417   2.284   2.508   2.067 -1.4311  1.1624  3.8146
 2642TIP3    H229418   2.252   2.380   2.141  0.5932 -1.4353  0.5231
 2643TIP3   OH229419   5.993   3.851   5.532  1.0106  0.4356 -0.4368
 2643TIP3    H129420   6.004   3.940   5.566 -1.1201  1.1242 -1.3766
 2643TIP3    H229421   6.036   3.853   5.446 -0.9644  1.3425 -1.4932
 2644TIP3   OH229422   1.655   4.425  10.389 -0.3247 -0.2412 -0.6840
 2644TIP3    H129423   1.607   4.478  10.325 -0.1162  0.5724 -0.1874
 2644TIP3    H229424   1.668   4.340  10.346 -0.2546  0.2602 -1.6841
 2645TIP3   OH229425   4.585   3.193   2.667 -0.3948  0.3334 -0.0639
 2645TIP3    H129426   4.501   3.158   2.696 -0.8938  1.3652 -0.1929
 2645TIP3    H229427   4.565   3.236   2.584  0.3999  0.0253 -0.4244
 2646TIP3   OH229428   6.078   0.666   5.728 -0.2787 -0.1647  0.2502
 2646TIP3    H129429   6.168   0.653   5.758  0.2126  3.1904  0.5489
 2646TIP3    H229430   6.025   0.614   5.789  1.1844  1.1704  2.8216
 2647TIP3   OH229431   6.451   3.305   1.738 -0.3607 -0.5567 -0.1515
 2647TIP3    H129432   6.501   3.226   1.714  1.9336  0.6746  0.2566
 2647TIP3    H229433   6.394   3.321   1.663 -0.7646 -2.4917 -0.3155
 2648TIP3   OH229434   5.882   0.700  17.028 -0.2139  0.3480  0.3286
 2648TIP3    H129435   5.945   0.667  17.092  0.0145 -0.9221 -0.5160
 2648TIP3    H229436   5.797   0.675  17.064 -0.3843  2.8881  1.9449
 2649TIP3   OH229437   4.807   6.710  16.487  0.4222 -0.1535 -0.3584
 2649TIP3    H129438   4.899   6.685  16.497  0.2764 -2.3179 -3.2111
 2649TIP3    H229439   4.759   6.627  16.491 -1.4683  0.9317  1.0977
 2650TIP3   OH229440   1.562   3.166   5.332 -0.2046  0.6690  0.0121
 2650TIP3    H129441   1.649   3.128   5.345 -0.3485  0.2005 -0.3622
 2650TIP3    H229442   1.569   3.255   5.365  0.2802  0.4702  0.4435
 2651TIP3   OH229443   0.745   1.090  15.887  0.0803 -0.5552  0.0179
 2651TIP3    H129444   0.785   1.170  15.920  1.1513 -1.3562  0.7135
 2651TIP3    H229445   0.815   1.048  15.837 -0.5660 -0.9236 -0.5923
 2652TIP3   OH229446   1.826   3.822   4.099 -0.0187 -0.7130  0.4071
 2652TIP3    H129447   1.742   3.816   4.053 -0.1493  0.4031  0.4600
 2652TIP3    H229448   1.805   3.803   4.190  0.1008 -2.1211  0.1678
 2653TIP3   OH229449   3.193   2.002   3.224  0.1510  0.1261  0.0291
 2653TIP3    H129450   3.283   1.969   3.229  0.4269  0.9270  0.5717
 2653TIP3    H229451   3.152   1.973   3.305  0.2956  0.8038  0.3530
 2654TIP3   OH229452   4.424   3.958  16.535  0.3551 -0.0660  0.2753
 2654TIP3    H129453   4.497   3.897  16.528 -1.1639 -1.8772 -0.9838
 2654TIP3    H229454   4.353   3.915  16.488 -0.8002  2.7607 -0.7553
 2655TIP3   OH229455   3.148   3.665   6.593 -0.3960  0.4915  0.4611
 2655TIP3    H129456   3.155   3.583   6.642 -1.8686  0.4318  0.6170
 2655TIP3    H229457   3.233   3.676   6.552  0.1276 -0.6315  1.2047
 2656TIP3   OH229458   6.576   6.322   2.556  0.3733 -1.0033 -0.5402
 2656TIP3    H129459   6.489   6.354   2.533 -0.8171 -1.2110  3.0432
 2656TIP3    H229460   6.635   6.395   2.536 -0.9741  0.0782 -0.6872
 2657TIP3   OH229461   3.476   2.970  13.927 -0.5027  0.6386  0.1211
 2657TIP3    H129462   3.551   2.957  13.986  0.5139 -1.2948 -1.4566
 2657TIP3    H229463   3.516   3.002  13.846 -0.5849 -4.3028 -2.2174
 2658TIP3   OH229464   4.325   0.323   1.307  0.1791 -0.4843  0.1272
 2658TIP3    H129465   4.241   0.327   1.261 -0.4410  0.5723  1.2947
 2658TIP3    H229466   4.389   0.301   1.239 -0.6296  1.4742 -1.3462
 2659TIP3   OH229467   1.478   3.334   5.852 -0.0268  0.8004  0.4778
 2659TIP3    H129468   1.466   3.264   5.916 -0.6854  0.5790  0.1181
 2659TIP3    H229469   1.404   3.393   5.867  0.1746  1.0856  0.3547
 2660TIP3   OH229470   4.430   3.450   3.387 -1.3200  0.1102 -0.2879
 2660TIP3    H129471   4.366   3.405   3.332 -1.5188 -0.9186  0.7301
 2660TIP3    H229472   4.451   3.530   3.340 -2.0123 -0.3954 -1.5009
 2661TIP3   OH229473   3.593   0.517   3.690 -0.5312  0.3149  0.0403
 2661TIP3    H129474   3.552   0.587   3.740 -1.3327 -0.2737  0.2152
 2661TIP3    H229475   3.573   0.537   3.598 -2.8316 -0.9383  0.2041
 2662TIP3   OH229476   0.571   4.784  15.866 -0.3569  0.1636  0.3508
 2662TIP3    H129477   0.644   4.807  15.924 -0.3375  2.4999 -0.4865
 2662TIP3    H229478   0.504   4.849  15.884 -1.3298 -0.5629 -0.5129
 2663TIP3   OH229479   5.202   1.295   2.655  0.4159  0.2453  0.3174
 2663TIP3    H129480   5.114   1.285   2.690  0.5026 -1.8179  0.0990
 2663TIP3    H229481   5.254   1.329   2.728 -0.4119  0.7968  0.6541
 2664TIP3   OH229482   5.405   3.181   1.282 -0.1796  0.0383  0.2768
 2664TIP3    H129483   5.370   3.092   1.282  0.1651 -0.1154  1.3528
 2664TIP3    H229484   5.405   3.207   1.190 -1.1764 -0.7158  0.0439
 2665TIP3   OH229485   2.878   3.318   6.347 -0.2176  0.5062  0.1459
 2665TIP3    H129486   2.798   3.268   6.359 -0.2925  0.5271 -0.2406
 2665TIP3    H229487   2.860   3.373   6.270  1.1479 -1.4964 -1.7371
 2666TIP3   OH229488   4.365   0.415   2.110  0.5024 -0.2483 -0.1601
 2666TIP3    H129489   4.305   0.384   2.042 -0.9646 -0.3321  1.1170
 2666TIP3    H229490   4.447   0.369   2.092  0.0429 -0.5537 -1.6274
 2667TIP3   OH229491   1.445   0.387   2.089 -0.0553  0.1595 -0.8265
 2667TIP3    H129492   1.524   0.440   2.089  0.6348 -0.8396 -0.9683
 2667TIP3    H229493   1.374   0.450   2.096  0.7632  1.0501 -0.3003
 2668TIP3   OH229494   1.909   6.305  15.494  0.2601 -0.2020  0.1246
 2668TIP3    H129495   1.869   6.285  15.579 -0.1577  0.1992  0.0300
 2668TIP3    H229496   1.892   6.228  15.440 -0.5934  0.0515  0.0170
 2669TIP3   OH229497   6.470   4.994   6.308  0.9825  0.4210  0.3463
 2669TIP3    H129498   6.440   4.920   6.361  0.8683 -0.8622 -1.4250
 2669TIP3    H229499   6.560   5.009   6.336  0.7633  0.1210  1.2476
 2670TIP3   OH229500   0.282   4.931  14.039  0.0365 -0.3141  0.2426
 2670TIP3    H129501   0.302   4.851  14.088  0.7651 -0.8661 -0.8786
 2670TIP3    H229502   0.211   4.905  13.980 -1.3494  0.5471  1.4691
 2671TIP3   OH229503   5.809   0.608  13.540 -0.1937 -0.4288  0.0306
 2671TIP3    H129504   5.789   0.682  13.483 -0.4972  0.3631  1.1268
 2671TIP3    H229505   5.904   0.606  13.545 -0.1880  0.0867  0.2297
 2672TIP3   OH229506   4.710   1.104   3.587  0.1055 -0.3300  0.9237
 2672TIP3    H129507   4.709   1.149   3.671  0.2151 -0.6364  1.0937
 2672TIP3    H229508   4.758   1.162   3.529  1.6474 -0.9225  1.5494
 2673TIP3   OH229509   5.842   2.513  11.112  0.3819  0.0161 -0.5174
 2673TIP3    H129510   5.751   2.485  11.125  0.5211 -0.8205 -1.2338
 2673TIP3    H229511   5.895   2.442  11.149  0.7931  1.3345  1.6195
 2674TIP3   OH229512   0.852   3.993   3.482  0.3174 -0.6469  0.3504
 2674TIP3    H129513   0.809   3.978   3.566  0.6445  0.2860  0.6977
 2674TIP3    H229514   0.787   4.041   3.431  0.8521  0.6084  0.8132
 2675TIP3   OH229515   0.230   6.215  13.265  0.1343  0.0880  0.0539
 2675TIP3    H129516   0.161   6.173  13.214 -0.0849  0.7619 -0.2159
 2675TIP3    H229517   0.288   6.255  13.199  1.2813 -1.1913  0.2285
 2676TIP3   OH229518   2.018   0.672   3.257  0.1437  0.3765 -0.3677
 2676TIP3    H129519   1.999   0.695   3.166 -0.2976 -0.5366 -0.5229
 2676TIP3    H229520   1.981   0.584   3.267  1.0988  0.0521  0.4001
 2677TIP3   OH229521   0.330   5.140  13.123 -0.0062 -0.0538  0.0079
 2677TIP3    H129522   0.336   5.053  13.163 -0.9775 -0.0830  0.1278
 2677TIP3    H229523   0.367   5.129  13.036  0.2575 -0.4902  0.1711
 2678TIP3   OH229524   1.627   5.559  15.895  0.0352 -0.2802 -0.3676
 2678TIP3    H129525   1.645   5.532  15.985  1.2811  2.4571  0.3292
 2678TIP3    H229526   1.702   5.613  15.871 -0.1211 -1.1498 -3.2045
 2679TIP3   OH229527   5.541   3.167  14.483 -0.6579 -0.4249  0.2814
 2679TIP3    H129528   5.566   3.259  14.492  0.0848 -0.7106  1.2538
 2679TIP3    H229529   5.449   3.164  14.509 -0.9791  0.1951 -0.7260
 2680TIP3   OH229530   6.486   6.693   1.062  0.4178  0.5065  0.2342
 2680TIP3    H129531   6.577   6.680   1.089  1.1516  1.4928 -1.6069
 2680TIP3    H229532   6.470   6.787   1.075  0.7920  1.0332 -2.4513
 2681TIP3   OH229533   2.024   5.793   5.686  0.6169  0.3799 -0.1308
 2681TIP3    H129534   2.003   5.705   5.655  0.1094  0.2746  0.4986
 2681TIP3    H229535   1.939   5.832   5.707  0.7997  1.1929 -0.8522
 2682TIP3   OH229536   2.063   2.425  16.401 -0.3633  0.5808  0.5830
 2682TIP3    H129537   2.135   2.369  16.371  0.4003 -0.0979  3.3981
 2682TIP3    H229538   2.105   2.507  16.428 -0.9061  0.9147  0.4371
 2683TIP3   OH229539   1.720   0.804   2.162  0.5070 -0.4848  0.6914
 2683TIP3    H129540   1.736   0.776   2.252  0.5742 -1.9281  0.2596
 2683TIP3    H229541   1.807   0.814   2.124  0.5306  1.7289  1.2112
 2684TIP3   OH229542   2.612   5.148  12.557 -0.1922  0.4059 -0.3716
 2684TIP3    H129543   2.632   5.056  12.537  1.9923  0.8183 -0.2139
 2684TIP3    H229544   2.536   5.143  12.615  0.2532 -1.3447  0.1178
 2685TIP3   OH229545   6.140   4.458   1.287 -0.5491 -0.6892 -0.0990
 2685TIP3    H129546   6.053   4.459   1.328 -0.1959 -1.3661  0.7034
 2685TIP3    H229547   6.188   4.390   1.335  1.1399  1.1485  0.9659
 2686TIP3   OH229548   5.234   4.269   3.474  0.1984  0.0423 -0.0350
 2686TIP3    H129549   5.261   4.178   3.465  0.0914 -0.0258  0.3406
 2686TIP3    H229550   5.289   4.304   3.544 -0.1167  0.1276  0.1705
 2687TIP3   OH229551   4.667   5.295   3.186 -0.4918  0.0039  0.3483
 2687TIP3    H129552   4.728   5.272   3.116 -0.7201 -0.1263  0.1955
 2687TIP3    H229553   4.724   5.326   3.257 -0.2883  0.6430 -0.0855
 2688TIP3   OH229554   4.330   6.671  15.882 -0.4039 -0.0319 -0.4677
 2688TIP3    H129555   4.416   6.660  15.923 -0.0298 -2.3045 -1.6947
 2688TIP3    H229556   4.317   6.766  15.879  1.3418  0.3204  1.1565
 2689TIP3   OH229557   2.568   3.127   0.136 -0.2568 -0.2557  0.0860
 2689TIP3    H129558   2.649   3.163   0.100  0.7136 -2.5106 -0.2071
 2689TIP3    H229559   2.501   3.148   0.071 -0.0703  2.0716  0.5704
 2690TIP3   OH229560   2.057   6.298   6.242  0.4037 -0.1730  0.1566
 2690TIP3    H129561   2.053   6.392   6.229  1.5083 -0.3174 -1.5809
 2690TIP3    H229562   2.139   6.271   6.200 -1.0814 -2.1993 -1.7244
 2691TIP3   OH229563   2.182   0.840   1.228  0.2457 -0.3368 -0.3893
 2691TIP3    H129564   2.267   0.850   1.185 -0.3028  1.2449 -1.1864
 2691TIP3    H229565   2.125   0.903   1.184 -1.5115 -1.7220 -0.2502
 2692TIP3   OH229566   4.805   6.357  14.224 -0.3328 -0.6806 -0.3113
 2692TIP3    H129567   4.792   6.267  14.197 -1.8015 -0.3826 -0.6669
 2692TIP3    H229568   4.797   6.408  14.144  1.7920 -0.3007 -0.3426
 2693TIP3   OH229569   0.949   0.007  12.355 -0.3869  0.4510 -0.0549
 2693TIP3    H129570   0.979   0.098  12.356 -0.1808  0.4285 -1.7247
 2693TIP3    H229571   0.997  -0.034  12.427  0.6101  1.3415 -0.1789
 2694TIP3   OH229572   1.962   3.162  15.461  0.3712 -0.2888 -0.5475
 2694TIP3    H129573   1.966   3.081  15.513  2.0061 -1.6694 -2.6743
 2694TIP3    H229574   2.009   3.226  15.514 -0.5462 -0.7941  0.9696
 2695TIP3   OH229575   6.752   2.633   5.384 -0.3953  0.1066 -0.2735
 2695TIP3    H129576   6.792   2.612   5.469 -0.8382  0.7093  0.0906
 2695TIP3    H229577   6.808   2.702   5.349 -0.5818  0.3015 -0.1849
 2696TIP3   OH229578   2.763   3.395   5.479  0.2117  0.0863 -0.1590
 2696TIP3    H129579   2.828   3.373   5.547 -0.6859 -0.1687  0.6319
 2696TIP3    H229580   2.779   3.488   5.460  0.8185  0.0210  0.0153
 2697TIP3   OH229581   2.451   6.326   2.351  0.1034 -0.2698  0.0542
 2697TIP3    H129582   2.422   6.236   2.368  1.7642 -0.7250  0.6621
 2697TIP3    H229583   2.483   6.325   2.261  0.3406 -0.3581  0.1381
 2698TIP3   OH229584   2.386   0.195  12.091 -0.6783 -0.1149 -0.2155
 2698TIP3    H129585   2.309   0.144  12.113 -0.3951 -0.3000  0.3865
 2698TIP3    H229586   2.458   0.131  12.088 -0.5014  0.0924 -0.5002
 2699TIP3   OH229587   5.890   5.930  12.872  0.6975  0.2606  0.3218
 2699TIP3    H129588   5.819   5.953  12.811  1.4486  1.1838 -0.2305
 2699TIP3    H229589   5.856   5.953  12.958  0.5600  1.3165 -0.0042
 2700TIP3   OH229590   1.409   1.232   6.115  0.3715 -0.0758 -0.2289
 2700TIP3    H129591   1.318   1.203   6.115  0.8138 -1.6024  1.2859
 2700TIP3    H229592   1.422   1.271   6.201  1.4051 -0.7512 -0.0675
 2701TIP3   OH229593   4.578   0.011  12.670  0.0008  0.2496 -0.3493
 2701TIP3    H129594   4.596   0.076  12.602  1.2911 -1.2484 -1.5361
 2701TIP3    H229595   4.534  -0.060  12.623  0.3873 -0.5699  0.5075
 2702TIP3   OH229596   1.599   4.117   4.440  0.0118 -0.4862 -0.1308
 2702TIP3    H129597   1.661   4.044   4.442  1.0790  0.4149  1.2441
 2702TIP3    H229598   1.521   4.084   4.484  0.0762 -1.1290 -0.4862
 2703TIP3   OH229599   4.991   6.748  13.785 -0.8426 -0.2166 -0.2849
 2703TIP3    H129600   4.942   6.821  13.824  0.2431  0.5673 -0.3442
 2703TIP3    H229601   4.944   6.670  13.815 -0.9043  0.4120  1.4065
 2704TIP3   OH229602   1.940   4.228   1.592  0.4452 -1.0883 -0.2351
 2704TIP3    H129603   1.993   4.262   1.520 -1.1503  1.0757 -0.4875
 2704TIP3    H229604   1.850   4.240   1.563 -0.3125  0.9697  2.4928
 2705TIP3   OH229605   3.691   4.964  15.869  0.4106 -0.1412 -0.3874
 2705TIP3    H129606   3.756   5.026  15.901  0.6502 -0.9605  0.7970
 2705TIP3    H229607   3.732   4.925  15.791  1.8807 -1.4541  0.9703
 2706TIP3   OH229608   6.409   4.005  16.766  0.1967 -0.2525 -0.3452
 2706TIP3    H129609   6.477   4.008  16.833  1.3207  0.1954 -1.4813
 2706TIP3    H229610   6.410   3.915  16.734  0.6261 -0.1117 -0.7315
 2707TIP3   OH229611   2.410   0.373   5.260 -0.3062  0.6815 -0.3279
 2707TIP3    H129612   2.348   0.381   5.188 -1.1801 -0.8421  0.2081
 2707TIP3    H229613   2.362   0.326   5.327  1.3245 -0.2118  0.2495
 2708TIP3   OH229614   1.027   5.525  10.534  0.0534  0.1964 -0.1168
 2708TIP3    H129615   1.102   5.470  10.553  1.0943  2.4995  3.6014
 2708TIP3    H229616   0.960   5.465  10.501  2.5537 -2.3974 -0.8584
 2709TIP3   OH229617   5.545   3.449  12.049 -0.0614  0.2000  0.0686
 2709TIP3    H129618   5.617   3.399  12.010  1.4496  1.9740  0.4296
 2709TIP3    H229619   5.470   3.431  11.992  1.6584  1.4542 -2.8549
 2710TIP3   OH229620   3.665   0.778  15.663  0.1011 -0.3935  0.5722
 2710TIP3    H129621   3.733   0.750  15.724 -0.6856 -1.1150  1.1440
 2710TIP3    H229622   3.639   0.697  15.618 -0.4960 -0.1621  0.4919
 2711TIP3   OH229623   0.328   2.890   4.618  0.1926 -0.4264  0.4663
 2711TIP3    H129624   0.237   2.917   4.614  0.6335  1.0689 -0.2320
 2711TIP3    H229625   0.346   2.851   4.533  0.4417  0.1222  0.2633
 2712TIP3   OH229626   1.039   6.750   2.083 -0.0391 -0.2572 -0.2175
 2712TIP3    H129627   0.975   6.720   2.019 -0.6495  0.1812  0.1747
 2712TIP3    H229628   1.114   6.692   2.072  0.4460  0.6831 -2.2902
 2713TIP3   OH229629   5.420   0.768  15.421 -0.4488  0.4046  0.3403
 2713TIP3    H129630   5.371   0.845  15.451 -1.2138  0.2111 -0.3782
 2713TIP3    H229631   5.391   0.698  15.480  0.3060  0.6702  1.0441
 2714TIP3   OH229632   5.392   1.315  14.384 -0.6459 -0.0693  0.1365
 2714TIP3    H129633   5.413   1.265  14.463 -2.2260  0.0615  0.6734
 2714TIP3    H229634   5.461   1.381  14.378  1.6387 -2.3796 -0.7126
 2715TIP3   OH229635   3.256   6.563   1.542  0.1192 -0.6872 -0.0171
 2715TIP3    H129636   3.310   6.554   1.621 -0.0840  0.0021  0.2115
 2715TIP3    H229637   3.290   6.641   1.499  1.3156 -1.9650 -1.5037
 2716TIP3   OH229638   4.358   0.538   0.383 -0.4083  0.1881 -0.1437
 2716TIP3    H129639   4.288   0.584   0.429 -1.0509  0.9541 -1.7978
 2716TIP3    H229640   4.314   0.495   0.309  0.6231 -0.6954 -0.2705
 2717TIP3   OH229641   1.420   1.528   2.591  0.2766  0.3209  0.1884
 2717TIP3    H129642   1.439   1.467   2.520  0.6431  0.8238 -0.1531
 2717TIP3    H229643   1.325   1.540   2.587  0.2558  0.1061 -0.0194
 2718TIP3   OH229644   3.677   1.041   4.722  0.0095 -0.7924  0.2960
 2718TIP3    H129645   3.739   1.103   4.683 -1.4180  0.0433 -0.7507
 2718TIP3    H229646   3.728   0.960   4.733  0.4933 -1.2318 -3.6561
 2719TIP3   OH229647   0.005   5.873  11.959 -0.0187  0.6224 -0.6144
 2719TIP3    H129648  -0.050   5.825  12.021  0.4402 -2.7383 -2.5591
 2719TIP3    H229649  -0.041   5.865  11.876  1.1713  1.7642 -1.4182
 2720TIP3   OH229650   6.043   3.531   2.633 -0.2882  0.8641  0.2044
 2720TIP3    H129651   6.002   3.461   2.684 -1.0421  1.2467  0.1452
 2720TIP3    H229652   6.018   3.513   2.543  2.6093 -0.9014 -0.3750
 2721TIP3   OH229653   4.108   3.840  16.698  0.0921 -0.5041  0.1689
 2721TIP3    H129654   4.131   3.748  16.681 -1.6590 -0.7884 -0.8565
 2721TIP3    H229655   4.075   3.840  16.787 -2.6173 -1.4979 -0.7362
 2722TIP3   OH229656   3.466   4.276  15.980 -0.1211 -0.5189  0.1416
 2722TIP3    H129657   3.488   4.256  15.889  0.7286 -0.9354  0.4328
 2722TIP3    H229658   3.514   4.212  16.031  0.1075  0.2617  0.9343
 2723TIP3   OH229659   3.694   0.382  16.033  0.6759  0.5945 -0.0139
 2723TIP3    H129660   3.642   0.409  16.109  0.4783 -2.0760  0.8966
 2723TIP3    H229661   3.630   0.341  15.974  1.0546  1.3845 -0.9953
 2724TIP3   OH229662   5.006   1.935  13.836 -0.0614 -0.1921  0.3702
 2724TIP3    H129663   4.956   1.856  13.815 -0.7819  0.3741 -0.0899
 2724TIP3    H229664   5.070   1.943  13.765 -2.0882  1.3782 -1.4438
 2725TIP3   OH229665   3.674   5.372  13.567 -0.0089 -0.8091  0.0075
 2725TIP3    H129666   3.591   5.398  13.605 -0.1301 -1.9832  0.5817
 2725TIP3    H229667   3.675   5.414  13.481 -1.5557 -1.4397 -0.3397
 2726TIP3   OH229668   4.609   1.457   5.493  0.1523 -0.7653 -0.1301
 2726TIP3    H129669   4.516   1.478   5.493  0.4427  0.6008 -0.7441
 2726TIP3    H229670   4.623   1.412   5.577 -0.8949 -0.2479  0.3478
 2727TIP3   OH229671   3.549   6.800   2.265  0.2863  0.2354  0.2323
 2727TIP3    H129672   3.494   6.799   2.187  1.9646  0.1977 -0.9972
 2727TIP3    H229673   3.490   6.774   2.336 -1.4714  1.0255 -0.8560
 2728TIP3   OH229674   2.360   1.596  12.608  0.1661  0.2509  0.6835
 2728TIP3    H129675   2.332   1.654  12.536 -2.3927 -1.9476 -0.2760
 2728TIP3    H229676   2.455   1.597  12.603  0.2402 -1.4831 -4.3814
 2729TIP3   OH229677   4.421   3.775   5.617  0.2926 -0.2914 -0.0989
 2729TIP3    H129678   4.469   3.698   5.588  2.6173  0.2362  1.9626
 2729TIP3    H229679   4.412   3.764   5.711  1.4546  2.2749  0.3991
 2730TIP3   OH229680   3.274   3.485   2.629 -0.1847  0.3460  0.8434
 2730TIP3    H129681   3.304   3.407   2.677  1.8660  1.2552  1.1100
 2730TIP3    H229682   3.232   3.539   2.695  0.4816  0.5127  1.1323
 2731TIP3   OH229683   6.795   1.480   0.138  0.3004  0.4076 -0.1662
 2731TIP3    H129684   6.818   1.561   0.093  1.4200 -0.3460 -1.0093
 2731TIP3    H229685   6.879   1.444   0.166  0.0798 -1.5748 -1.8021
 2732TIP3   OH229686   3.879   4.749   0.459  0.3085  0.5763 -0.1090
 2732TIP3    H129687   3.907   4.830   0.417  1.1674  1.3756  1.9053
 2732TIP3    H229688   3.799   4.772   0.505  1.0183  0.5357  1.1836
 2733TIP3   OH229689   1.262   2.373   0.476 -0.3205  0.3760  0.0814
 2733TIP3    H129690   1.217   2.410   0.552 -1.6160 -0.8371 -0.0494
 2733TIP3    H229691   1.313   2.301   0.513  1.9284  1.9722  0.2881
 2734TIP3   OH229692   2.523   1.724   2.850  0.2289  0.1589  0.2699
 2734TIP3    H129693   2.496   1.730   2.942  2.0589  2.3505  0.7507
 2734TIP3    H229694   2.544   1.632   2.837 -3.5834 -0.9935  0.8865
 2735TIP3   OH229695   6.638   3.144   4.211 -0.7032 -0.0182 -0.3042
 2735TIP3    H129696   6.551   3.154   4.173 -0.5868  1.2923 -0.2998
 2735TIP3    H229697   6.623   3.143   4.305 -0.6960  0.5313 -0.2945
 2736TIP3   OH229698   5.641   1.997   6.432 -0.7017 -0.2162  0.5228
 2736TIP3    H129699   5.687   1.995   6.516 -0.6278 -1.4977  0.4720
 2736TIP3    H229700   5.651   2.088   6.402  1.9285 -0.4348  0.4575
 2737TIP3   OH229701   1.387   0.511  15.716  0.1070 -0.0429  0.8641
 2737TIP3    H129702   1.386   0.493  15.622  0.2924  1.8639  0.4504
 2737TIP3    H229703   1.422   0.431  15.755 -0.9172 -1.2495 -0.5715
 2738TIP3   OH229704   2.957   1.774   5.986  0.1841 -0.5885 -0.0960
 2738TIP3    H129705   2.932   1.835   6.056 -0.5834  0.1082 -0.9494
 2738TIP3    H229706   3.052   1.766   5.994  0.2185  0.2018  0.4571
 2739TIP3   OH229707   3.932   4.401  12.898  0.3986  0.0534  0.8533
 2739TIP3    H129708   3.980   4.471  12.943  0.1937  0.0577  1.0678
 2739TIP3    H229709   3.842   4.433  12.894  0.4389  0.1138  0.3127
 2740TIP3   OH229710   6.121   1.995   5.008  0.4223 -0.4413 -0.1599
 2740TIP3    H129711   6.054   2.033   4.951  0.1380 -0.1760  0.3479
 2740TIP3    H229712   6.075   1.974   5.089  0.9791 -0.1431  0.2390
 2741TIP3   OH229713   3.666   3.798  15.469  0.0214 -0.0335  0.1776
 2741TIP3    H129714   3.578   3.771  15.442  0.4271  0.1283 -1.3749
 2741TIP3    H229715   3.719   3.719  15.461  0.5881  0.4863 -1.5882
 2742TIP3   OH229716   6.431   6.599  15.097 -0.4177  0.1935  0.1716
 2742TIP3    H129717   6.514   6.647  15.097  0.5209 -1.3479  1.1877
 2742TIP3    H229718   6.365   6.665  15.074  1.1051  1.3832 -1.0340
 2743TIP3   OH229719   3.247   1.454  11.690 -0.1571  0.1445  0.4159
 2743TIP3    H129720   3.195   1.441  11.611  0.9580  0.6971 -0.4443
 2743TIP3    H229721   3.192   1.510  11.745 -0.8409 -0.0193 -0.0768
 2744TIP3   OH229722   1.761   2.689   2.544 -0.4356 -0.1069 -0.1160
 2744TIP3    H129723   1.716   2.772   2.523 -0.3669 -0.2330 -0.7784
 2744TIP3    H229724   1.722   2.625   2.484 -0.1452 -0.4535  0.0653
 2745TIP3   OH229725   3.887   4.752   0.165  0.6930  0.2507 -0.2223
 2745TIP3    H129726   3.875   4.760   0.071  1.2183 -1.6638 -0.4759
 2745TIP3    H229727   3.807   4.709   0.196  0.7101  0.4777  0.1467
 2746TIP3   OH229728   3.284   6.762  14.347  0.1309 -0.2727  0.6159
 2746TIP3    H129729   3.251   6.823  14.413  0.0952 -0.7205  1.0155
 2746TIP3    H229730   3.248   6.795  14.265 -0.9301 -0.4718  0.9834
 2747TIP3   OH229731   6.776   4.847   4.461  0.3572 -0.0883 -0.0682
 2747TIP3    H129732   6.836   4.807   4.398  0.0612  2.1400 -1.9388
 2747TIP3    H229733   6.832   4.904   4.514  0.2370  0.1762 -0.2226
 2748TIP3   OH229734   1.204   5.271   5.426  0.2270  0.4606 -0.2554
 2748TIP3    H129735   1.296   5.256   5.447 -0.7139 -2.1777  2.6833
 2748TIP3    H229736   1.157   5.250   5.507 -3.0186  1.3637 -1.7418
 2749TIP3   OH229737   5.023   4.603  13.793  0.1983 -0.2527  0.0563
 2749TIP3    H129738   4.964   4.676  13.775  2.5580  1.5997 -0.7594
 2749TIP3    H229739   5.020   4.549  13.714 -0.9017 -0.5983  0.3158
 2750TIP3   OH229740   4.157   3.547  13.845 -0.4329 -0.2870 -0.1196
 2750TIP3    H129741   4.153   3.642  13.834  1.6822 -0.1919 -0.6065
 2750TIP3    H229742   4.140   3.512  13.758 -0.7935 -0.3327 -0.0304
 2751TIP3   OH229743   3.966   5.264  11.517  0.1256  0.3949 -0.0683
 2751TIP3    H129744   3.933   5.186  11.561  1.0723 -0.5135 -0.9055
 2751TIP3    H229745   3.888   5.315  11.496 -0.5309 -0.4363  0.2859
 2752TIP3   OH229746   0.149   6.008  16.382 -0.1703 -0.1319 -0.2037
 2752TIP3    H129747   0.110   6.054  16.456 -0.0768 -0.1113 -0.1672
 2752TIP3    H229748   0.198   6.075  16.334 -2.0693  0.3529 -1.5660
 2753TIP3   OH229749   5.969   4.500   0.555 -0.3748 -0.3125 -0.1474
 2753TIP3    H129750   5.981   4.557   0.631  1.2760 -0.9440  0.0910
 2753TIP3    H229751   6.038   4.434   0.563 -2.2392 -2.4296 -0.3677
 2754TIP3   OH229752   6.377   3.705  12.189  0.2919  0.3384  0.0408
 2754TIP3    H129753   6.447   3.769  12.205  2.5955 -2.1503  0.8159
 2754TIP3    H229754   6.385   3.683  12.096  1.0577 -0.4157  0.2665
 2755TIP3   OH229755   4.874   3.660   4.119  0.1287  0.0865 -0.0995
 2755TIP3    H129756   4.895   3.749   4.092  1.5060  0.0566  0.7503
 2755TIP3    H229757   4.953   3.609   4.099 -0.1493 -0.6560  0.6092
 2756TIP3   OH229758   3.605   3.859  14.805  0.0488  0.0047 -0.2952
 2756TIP3    H129759   3.669   3.900  14.747  2.1344 -2.1916  0.2723
 2756TIP3    H229760   3.632   3.767  14.809 -1.8185 -0.5467  1.8126
 2757TIP3   OH229761   0.757   2.562   1.146  0.1377 -0.0527 -0.1236
 2757TIP3    H129762   0.698   2.517   1.085  0.7582 -0.2202 -0.6084
 2757TIP3    H229763   0.708   2.639   1.173  0.0435  0.2973 -1.2301
 2758TIP3   OH229764   2.906   2.636   3.637 -0.1311  0.0381  0.0510
 2758TIP3    H129765   2.925   2.542   3.642  0.3546  0.1444  0.3558
 2758TIP3    H229766   2.827   2.642   3.584  1.0942 -0.3923 -1.9528
 2759TIP3   OH229767   2.837   4.587  12.700  0.1119 -0.5786  0.5711
 2759TIP3    H129768   2.912   4.647  12.701  0.1047 -0.5039 -1.1600
 2759TIP3    H229769   2.876   4.500  12.700  0.3679 -0.5758 -2.6085
 2760TIP3   OH229770   5.162   4.839  15.851 -0.1994  0.7443 -0.0141
 2760TIP3    H129771   5.124   4.916  15.894 -0.9792  0.2036  0.2771
 2760TIP3    H229772   5.159   4.861  15.758 -3.3953 -0.1578 -0.2452
 2761TIP3   OH229773   1.122   2.628  15.267 -0.0061  0.0695 -0.1191
 2761TIP3    H129774   1.105   2.615  15.360 -1.2436  0.9071 -0.1999
 2761TIP3    H229775   1.204   2.678  15.264  0.9713 -1.4446  0.4277
 2762TIP3   OH229776   6.467   1.333  11.907  0.4813 -0.0386 -0.4717
 2762TIP3    H129777   6.496   1.255  11.859 -0.8317  0.2557 -1.8031
 2762TIP3    H229778   6.548   1.379  11.928  1.3563 -2.0924  1.0018
 2763TIP3   OH229779   0.672   6.408   5.584 -0.2146  0.3291 -0.2124
 2763TIP3    H129780   0.663   6.442   5.673  1.1451  0.5132 -0.1306
 2763TIP3    H229781   0.766   6.411   5.566 -0.2279 -1.7353 -0.8676
 2764TIP3   OH229782   2.117   2.558   5.464 -0.1946  0.0532  0.3965
 2764TIP3    H129783   2.044   2.614   5.439  0.6875  1.4328  0.7868
 2764TIP3    H229784   2.091   2.522   5.549 -2.1599 -2.7762 -1.2337
 2765TIP3   OH229785   6.135   1.369  16.393  0.4780 -0.0036 -0.0706
 2765TIP3    H129786   6.161   1.455  16.359  1.7336 -1.1415 -2.1663
 2765TIP3    H229787   6.199   1.349  16.461  0.9017  0.2100 -0.4041
 2766TIP3   OH229788   0.667   5.674  16.393  0.4458 -0.1325 -0.0190
 2766TIP3    H129789   0.740   5.705  16.340 -0.9425 -1.5853 -3.0243
 2766TIP3    H229790   0.708   5.617  16.458  2.1557  0.9395 -0.0904
 2767TIP3   OH229791   1.838   6.284   0.409  0.2435 -0.1655  0.2548
 2767TIP3    H129792   1.867   6.268   0.498 -1.6625 -0.3111  0.8986
 2767TIP3    H229793   1.915   6.318   0.364  0.9604  0.9391  2.2123
 2768TIP3   OH229794   4.338   5.939   3.223 -0.2795  0.3884 -0.0761
 2768TIP3    H129795   4.420   5.986   3.238  0.5623 -0.9619 -0.2272
 2768TIP3    H229796   4.359   5.875   3.155 -1.0474 -0.9373  0.8678
 2769TIP3   OH229797   4.126   4.392   1.977  0.0679  0.4947 -0.3120
 2769TIP3    H129798   4.205   4.354   2.016 -0.1875  0.2323 -0.0445
 2769TIP3    H229799   4.150   4.482   1.957  0.4407  0.4113 -0.2424
 2770TIP3   OH229800   2.602   1.521   6.716 -0.3866 -0.3333  0.0012
 2770TIP3    H129801   2.514   1.543   6.747  0.0836 -0.3711  1.4180
 2770TIP3    H229802   2.661   1.569   6.774  0.5461 -1.1124 -0.2784
 2771TIP3   OH229803   6.049   3.653  14.988  0.1428 -0.2415 -0.0056
 2771TIP3    H129804   6.080   3.700  15.065 -0.2133  0.9920 -0.5743
 2771TIP3    H229805   6.006   3.575  15.022 -0.0999  0.3372  1.0523
 2772TIP3   OH229806   3.680   3.714   5.327 -0.2785 -0.2424 -0.4338
 2772TIP3    H129807   3.636   3.638   5.362  2.7573 -0.5781  3.2414
 2772TIP3    H229808   3.658   3.785   5.387  1.5551  0.2993 -0.3344
 2773TIP3   OH229809   1.471   4.997  11.764  0.2876  0.9584 -0.0320
 2773TIP3    H129810   1.552   4.991  11.713  0.8485  1.2456  0.8041
 2773TIP3    H229811   1.406   5.031  11.702  0.5133 -0.3463 -1.0223
 2774TIP3   OH229812   5.057   3.175   4.364 -0.1628 -0.0323  0.0198
 2774TIP3    H129813   5.131   3.197   4.420 -0.6969 -1.5580  1.4074
 2774TIP3    H229814   5.087   3.097   4.316 -0.2537  0.3937 -0.7554
 2775TIP3   OH229815   3.593   0.070   4.975 -0.1372 -0.0242 -0.2536
 2775TIP3    H129816   3.601  -0.011   5.025  1.7882 -0.7086 -1.5596
 2775TIP3    H229817   3.511   0.108   5.005  0.3575 -0.9270  2.6067
 2776TIP3   OH229818   1.213   0.474   5.188  0.5261 -0.3216 -0.3558
 2776TIP3    H129819   1.296   0.433   5.162  0.3094 -1.3671  0.5193
 2776TIP3    H229820   1.146   0.412   5.159  0.1169 -0.0166 -0.0683
 2777TIP3   OH229821   4.058   4.225   5.450  0.3975  0.5124 -0.3235
 2777TIP3    H129822   3.965   4.237   5.429 -0.0154 -0.3217  0.9482
 2777TIP3    H229823   4.082   4.144   5.404  0.0364 -0.1864  0.6869
 2778TIP3   OH229824   1.402   4.571  15.323 -0.0817  0.6021  0.0939
 2778TIP3    H129825   1.484   4.619  15.308  1.6629 -2.8831 -3.2536
 2778TIP3    H229826   1.426   4.504  15.387 -1.0374  0.9502  0.8428
 2779TIP3   OH229827   0.363   0.914   3.539 -0.2435 -0.3321 -0.0020
 2779TIP3    H129828   0.434   0.852   3.523  0.8293  1.3855 -2.4238
 2779TIP3    H229829   0.285   0.869   3.506  0.1266 -1.2234  0.2963
 2780TIP3   OH229830   5.956   4.190  16.704 -0.0825  0.3790 -0.2968
 2780TIP3    H129831   6.005   4.131  16.762  1.0018  1.5464  0.0357
 2780TIP3    H229832   5.998   4.179  16.619 -0.0253  0.4857 -0.2827
 2781TIP3   OH229833   5.755   5.861  11.704  0.2345 -0.7521 -0.1488
 2781TIP3    H129834   5.708   5.893  11.627 -0.0606  0.7146  0.5952
 2781TIP3    H229835   5.710   5.901  11.778  1.1482 -1.2833  0.7234
 2782TIP3   OH229836   4.021   5.565  14.099 -0.2300 -0.2636 -0.0872
 2782TIP3    H129837   3.969   5.530  14.026 -0.4706  0.4791 -0.2827
 2782TIP3    H229838   4.067   5.640  14.061 -0.3137  0.0955  0.5128
 2783TIP3   OH229839   0.273   1.158   4.108 -0.1435  0.4664 -1.0055
 2783TIP3    H129840   0.286   1.231   4.168 -2.1403 -1.0594  1.4796
 2783TIP3    H229841   0.182   1.132   4.121  0.2650 -1.9678 -2.3975
 2784TIP3   OH229842   5.710   3.935   2.924  0.3716 -0.2487  0.1806
 2784TIP3    H129843   5.701   4.030   2.918  0.1960 -0.2563  0.2923
 2784TIP3    H229844   5.639   3.901   2.870  1.5983 -0.3289 -1.4299
 2785TIP3   OH229845   0.095   6.383   5.925 -1.1184  0.0435 -0.2789
 2785TIP3    H129846   0.077   6.428   6.007 -1.1581  0.0724 -0.3031
 2785TIP3    H229847   0.178   6.339   5.940 -0.9204  0.3824 -0.3585
 2786TIP3   OH229848   0.689   6.125  13.556 -0.3155 -0.4797  0.6033
 2786TIP3    H129849   0.656   6.050  13.507 -1.1464 -0.1109  0.5760
 2786TIP3    H229850   0.615   6.154  13.609  0.5058 -0.7352  1.9284
 2787TIP3   OH229851   3.472   2.982   3.901 -0.2226 -0.0070  0.2938
 2787TIP3    H129852   3.419   3.038   3.958  1.0225  0.7810  0.6976
 2787TIP3    H229853   3.455   3.015   3.813 -0.4648  0.1984  0.4157
 2788TIP3   OH229854   1.020   5.684  13.465  0.1728 -0.0709  0.6887
 2788TIP3    H129855   1.047   5.663  13.376  0.5992 -0.4800  0.9100
 2788TIP3    H229856   0.995   5.600  13.503  0.1486  0.0791  1.0090
 2789TIP3   OH229857   0.652   3.383   4.261 -0.2268  0.2509  0.1119
 2789TIP3    H129858   0.679   3.305   4.212  0.7460  0.3221  0.5152
 2789TIP3    H229859   0.567   3.360   4.299  0.3338 -0.8288  0.7256
 2790TIP3   OH229860   6.019   3.455   0.514  0.1571  0.2638 -0.6160
 2790TIP3    H129861   6.040   3.400   0.589  0.9563 -1.6174 -2.1367
 2790TIP3    H229862   6.089   3.521   0.513 -0.0769  0.5514  0.4881
 2791TIP3   OH229863   4.897   5.722  17.250  0.0847 -0.0986  0.2610
 2791TIP3    H129864   4.833   5.678  17.194 -1.6778  1.0230  1.3080
 2791TIP3    H229865   4.934   5.651  17.303 -1.1087 -0.6382  0.4052
 2792TIP3   OH229866   3.984   2.568  16.132 -0.0718  0.2617  0.3495
 2792TIP3    H129867   3.942   2.531  16.209  0.8661 -2.6120 -0.3874
 2792TIP3    H229868   3.960   2.508  16.061  2.2366  0.5807 -0.7933
 2793TIP3   OH229869   1.583   2.663   5.533 -0.0189 -0.0197 -0.4236
 2793TIP3    H129870   1.525   2.735   5.559 -0.1754 -0.0804 -0.6000
 2793TIP3    H229871   1.620   2.631   5.615 -2.5132 -1.9531  0.0615
 2794TIP3   OH229872   4.889   6.781   1.986 -0.2566 -0.2598  0.0248
 2794TIP3    H129873   4.831   6.781   1.910 -1.1973  0.0648  0.7243
 2794TIP3    H229874   4.952   6.851   1.967  1.3174 -2.0217 -1.7320
 2795TIP3   OH229875   5.976   2.335   5.789  0.5444 -0.2873  0.3863
 2795TIP3    H129876   5.887   2.366   5.772  0.3132  1.2934  3.6504
 2795TIP3    H229877   6.017   2.328   5.703 -2.8341 -1.5885 -1.2895
 2796TIP3   OH229878   2.339   6.710   6.267  0.0123 -0.6532 -0.7869
 2796TIP3    H129879   2.403   6.646   6.237  2.0612  0.4794  0.8896
 2796TIP3    H229880   2.260   6.659   6.285  0.8809 -2.3308 -1.5632
 2797TIP3   OH229881   3.090   2.258   1.691  0.5487 -0.0420 -0.2502
 2797TIP3    H129882   3.084   2.347   1.656  1.4293  0.6327  1.1800
 2797TIP3    H229883   3.108   2.271   1.784  1.2723 -1.7311 -0.1226
 2798TIP3   OH229884   1.248   1.055   3.356  0.9101 -0.0761 -0.1452
 2798TIP3    H129885   1.174   1.056   3.417 -0.5819 -2.7580 -1.7140
 2798TIP3    H229886   1.319   1.015   3.405  0.2646 -0.6200  0.3670
 2799TIP3   OH229887   5.544   1.550  16.077  0.0219 -0.2580 -0.2288
 2799TIP3    H129888   5.616   1.605  16.044 -1.1147  1.8248  0.5653
 2799TIP3    H229889   5.470   1.611  16.086 -1.2096 -1.8745  1.0613
 2800TIP3   OH229890   2.309   3.061  12.836 -0.1361 -0.0209 -0.8038
 2800TIP3    H129891   2.330   2.993  12.900 -2.2704 -1.7810 -1.8434
 2800TIP3    H229892   2.392   3.077  12.791  0.3826 -2.2966 -0.7968
 2801TIP3   OH229893   0.350   5.730  14.821  0.3434 -0.0708 -0.1831
 2801TIP3    H129894   0.334   5.802  14.761 -1.4721  0.1789  0.5531
 2801TIP3    H229895   0.326   5.652  14.771 -0.7324  0.0999  0.0547
 2802TIP3   OH229896   0.356   0.034   2.040 -0.6925  0.3153  0.1014
 2802TIP3    H129897   0.284  -0.005   1.990 -0.7737  0.9009 -0.2523
 2802TIP3    H229898   0.313   0.083   2.109 -0.6833  1.3879 -0.6332
 2803TIP3   OH229899   1.902   0.498  11.920  0.3973 -0.7546  0.1402
 2803TIP3    H129900   1.822   0.534  11.958  1.8259  2.5779  0.3438
 2803TIP3    H229901   1.940   0.444  11.990  0.0149  0.4511  1.3041
 2804TIP3   OH229902   1.961   3.863   1.816 -0.6196  0.3488  0.1322
 2804TIP3    H129903   1.973   3.777   1.775  0.9908  0.1680  0.9034
 2804TIP3    H229904   1.951   3.844   1.909 -1.1893  0.9588  0.2042
 2805TIP3   OH229905   3.217   3.993   6.992 -0.3244  0.1565  0.0290
 2805TIP3    H129906   3.168   3.949   6.922  0.1382  0.5614 -0.5654
 2805TIP3    H229907   3.272   3.924   7.029 -1.1538 -0.2457  0.5427
 2806TIP3   OH229908   5.784   2.650  14.902 -0.0347  0.1373  0.4621
 2806TIP3    H129909   5.802   2.573  14.957  0.9063 -0.9981 -1.3463
 2806TIP3    H229910   5.856   2.711  14.922 -0.1716  0.0952  1.1022
 2807TIP3   OH229911   2.238   0.208  13.332 -0.0130 -0.0607  0.1219
 2807TIP3    H129912   2.301   0.139  13.354  0.3694 -0.6529 -2.4537
 2807TIP3    H229913   2.154   0.173  13.360  0.2602 -1.3280 -0.5538
 2808TIP3   OH229914   5.679   4.707  15.881 -0.1231  0.8333 -0.3847
 2808TIP3    H129915   5.587   4.698  15.906 -0.2839  2.1513 -0.4340
 2808TIP3    H229916   5.721   4.748  15.957  0.5403 -0.1886 -0.1733
 2809TIP3   OH229917   4.299   4.365   0.638 -0.4326 -0.1983  0.3907
 2809TIP3    H129918   4.320   4.329   0.551  0.4542  2.7223 -0.7224
 2809TIP3    H229919   4.220   4.418   0.623  0.0670  0.8014  1.2123
 2810TIP3   OH229920   0.259   5.449  14.259  0.2541  0.6565 -0.3133
 2810TIP3    H129921   0.272   5.534  14.217 -1.3468  0.7217 -0.7685
 2810TIP3    H229922   0.268   5.386  14.187  1.3655  0.4297  0.0096
 2811TIP3   OH229923   4.977   0.135   4.916  0.2081 -0.4845  0.0784
 2811TIP3    H129924   4.913   0.086   4.967  0.0511 -0.9742 -0.5760
 2811TIP3    H229925   5.055   0.079   4.915  0.8380  0.3222  1.2861
 2812TIP3   OH229926   5.098   0.124   1.877  0.6321 -0.5473  0.4400
 2812TIP3    H129927   5.121   0.142   1.786 -0.4982 -2.0249 -0.1698
 2812TIP3    H229928   5.182   0.111   1.921  1.1544 -0.7276 -0.5895
 2813TIP3   OH229929   6.387   1.629  10.889  0.1591 -0.5162 -0.5239
 2813TIP3    H129930   6.440   1.572  10.835 -0.2706 -1.3426 -0.0921
 2813TIP3    H229931   6.443   1.652  10.963  0.4927  0.0125 -0.9376
 2814TIP3   OH229932   4.287   4.335  11.607  1.2739 -0.1753 -0.4062
 2814TIP3    H129933   4.319   4.384  11.532 -1.4377  1.6724 -0.5114
 2814TIP3    H229934   4.255   4.402  11.668 -2.0462 -1.6635 -0.2759
 2815TIP3   OH229935   3.811   5.176   0.661  0.5547  0.4609  0.1095
 2815TIP3    H129936   3.768   5.095   0.692  0.5550 -0.0861 -1.2304
 2815TIP3    H229937   3.900   5.149   0.640 -0.2088  0.0174 -3.1408
 2816TIP3   OH229938   3.877   5.019  11.584  0.3018  0.4126  0.3369
 2816TIP3    H129939   3.872   4.936  11.631 -1.8490  0.3606  0.0853
 2816TIP3    H229940   3.906   4.996  11.496 -2.7030 -0.4765 -0.5117
 2817TIP3   OH229941   5.707   5.026  15.068  0.3742  0.1651  0.1786
 2817TIP3    H129942   5.622   5.024  15.025  1.1036 -0.6772 -1.3248
 2817TIP3    H229943   5.688   5.012  15.160 -1.2097  1.3825  0.0739
 2818TIP3   OH229944   0.819   4.589  14.799  0.2607  0.0513 -0.2260
 2818TIP3    H129945   0.772   4.606  14.880  1.1268 -0.8388  0.4963
 2818TIP3    H229946   0.789   4.502  14.771  1.4117 -0.5320  0.2473
 2819TIP3   OH229947   5.814   0.748  15.603 -0.0582 -0.4549  0.1177
 2819TIP3    H129948   5.730   0.741  15.647  0.2313 -0.5618  0.6662
 2819TIP3    H229949   5.793   0.749  15.510 -0.7481  0.6905  0.2631
 2820TIP3   OH229950   4.335   4.658   1.935 -0.2812  0.0659  0.1039
 2820TIP3    H129951   4.240   4.669   1.927 -0.2677  0.1550  0.0689
 2820TIP3    H229952   4.367   4.745   1.958 -0.3573 -0.2330  1.4719
 2821TIP3   OH229953   6.199   4.437  12.333 -0.2954 -0.0999 -0.3740
 2821TIP3    H129954   6.136   4.457  12.264  0.1587  1.2536 -0.4311
 2821TIP3    H229955   6.157   4.468  12.413 -0.1824 -0.2601 -0.2517
 2822TIP3   OH229956   3.750   6.114  13.715 -0.0220  0.0369 -0.5473
 2822TIP3    H129957   3.682   6.148  13.773  0.1706  0.8442 -0.7744
 2822TIP3    H229958   3.708   6.045  13.665 -0.3231 -0.3392  0.2114
 2823TIP3   OH229959   5.486   4.428   3.253  0.0816  0.9170  0.0481
 2823TIP3    H129960   5.563   4.484   3.250  1.9103 -1.4494 -1.7274
 2823TIP3    H229961   5.445   4.439   3.167 -0.4430  0.7086  0.2685
 2824TIP3   OH229962   4.320   5.478  16.188 -0.2438  0.0615 -0.2302
 2824TIP3    H129963   4.315   5.383  16.196  1.6046 -0.0151  0.2996
 2824TIP3    H229964   4.246   5.501  16.131  1.0065 -1.9929 -2.8769
 2825TIP3   OH229965   5.070   5.289   2.804  0.1185  0.3590  0.1919
 2825TIP3    H129966   5.027   5.371   2.780 -0.9329 -0.4090 -0.6194
 2825TIP3    H229967   5.123   5.267   2.727 -0.8370 -0.5290 -0.2141
 2826TIP3   OH229968   4.682   2.808  12.075  0.2316  0.2719  0.0847
 2826TIP3    H129969   4.680   2.886  12.020  2.1904  0.2587 -0.0563
 2826TIP3    H229970   4.589   2.788  12.091 -0.3263  1.8587 -0.9283
 2827TIP3   OH229971   2.211   5.343  11.783  0.1682  0.3739  0.5670
 2827TIP3    H129972   2.232   5.258  11.743 -1.1451  0.6279 -0.7479
 2827TIP3    H229973   2.149   5.383  11.722 -0.0700  1.8197  1.7184
 2828TIP3   OH229974   3.008   1.452   5.884  0.1367 -0.2557  0.2597
 2828TIP3    H129975   2.927   1.501   5.869  1.2561  1.0133 -2.5274
 2828TIP3    H229976   3.022   1.457   5.978 -3.7575 -1.9017  1.1269
 2829TIP3   OH229977   3.564   6.242   4.124 -0.0775  0.3265  0.2253
 2829TIP3    H129978   3.495   6.304   4.148 -0.6277 -0.0436 -0.3559
 2829TIP3    H229979   3.608   6.281   4.049 -1.3931 -0.6307 -1.1029
 2830TIP3   OH229980   3.074   5.307   2.390  0.3648  0.2875 -0.3163
 2830TIP3    H129981   3.156   5.355   2.391 -1.2747  3.3770 -0.7706
 2830TIP3    H229982   3.070   5.268   2.303  0.2237  2.4015 -1.3179
 2831TIP3   OH229983   4.148   0.893   2.160 -0.2423  0.0941  0.7375
 2831TIP3    H129984   4.162   0.864   2.250 -0.9695  0.1094  0.8561
 2831TIP3    H229985   4.114   0.816   2.115 -0.2464  0.1947  0.5687
 2832TIP3   OH229986   4.467   5.868   2.272  0.6608  0.1075 -0.5545
 2832TIP3    H129987   4.401   5.904   2.332 -0.3898 -3.4327  0.6675
 2832TIP3    H229988   4.547   5.917   2.294 -0.8457  2.5717 -0.0815
 2833TIP3   OH229989   0.078   2.745   3.068  0.2338  0.3221 -0.3687
 2833TIP3    H129990   0.110   2.655   3.056 -0.0744  0.2625 -0.7487
 2833TIP3    H229991   0.013   2.737   3.138 -2.0969 -0.3256 -2.4455
 2834TIP3   OH229992   3.445   1.374   5.042 -0.4102 -0.5827 -0.0150
 2834TIP3    H129993   3.514   1.400   5.104 -0.1111 -0.6961 -0.3030
 2834TIP3    H229994   3.486   1.382   4.956 -0.8242 -0.4413 -0.1988
 2835TIP3   OH229995   0.308   6.210  16.256 -0.0623 -0.3633  0.3797
 2835TIP3    H129996   0.349   6.297  16.255 -0.3830 -0.1960  0.9895
 2835TIP3    H229997   0.372   6.155  16.301  0.3341 -0.5459 -0.4055
 2836TIP3   OH229998   3.029   4.313   3.588  0.2705 -0.4087  0.0411
 2836TIP3    H129999   2.993   4.399   3.605 -1.6602 -1.0092 -0.7488
 2836TIP3    H230000   3.067   4.319   3.500 -1.8481 -0.8953 -0.9688
 2837TIP3   OH230001   3.464   5.490   2.576  0.7419  0.3078  0.1270
 2837TIP3    H130002   3.510   5.412   2.546 -1.9992 -0.6945 -1.8880
 2837TIP3    H230003   3.392   5.457   2.628 -2.2769  1.0437 -3.1714
 2838TIP3   OH230004   4.635   1.955   2.996 -0.5759  0.4533  0.2110
 2838TIP3    H130005   4.695   1.977   2.925  0.9487  0.7440  1.5306
 2838TIP3    H230006   4.618   2.038   3.039 -1.6394  0.3065  0.0958
 2839TIP3   OH230007   1.097   4.915  12.807  0.6859  0.9857 -0.4367
 2839TIP3    H130008   1.036   4.921  12.734 -0.4328  0.5635  0.4351
 2839TIP3    H230009   1.144   4.999  12.806 -1.9250  2.6033  0.5863
 2840TIP3   OH230010   1.827   6.467   2.718 -0.4138 -0.1853  0.8527
 2840TIP3    H130011   1.913   6.443   2.751  1.4138 -0.3411 -3.4128
 2840TIP3    H230012   1.823   6.562   2.730  0.1075 -0.2370  1.5149
 2841TIP3   OH230013   5.700   0.211  13.369  0.1224 -0.3766 -0.0801
 2841TIP3    H130014   5.636   0.195  13.439  0.4165 -2.1367 -0.1766
 2841TIP3    H230015   5.648   0.252  13.299 -0.8019 -1.2693  0.0555
 2842TIP3   OH230016   1.362   2.046  13.030 -0.0826 -0.1877 -0.2220
 2842TIP3    H130017   1.268   2.030  13.020 -0.0588 -0.6466  0.2501
 2842TIP3    H230018   1.398   1.960  13.052  0.1963  0.3137  1.3867
 2843TIP3   OH230019   0.677   2.606  15.348  0.3855  0.2712  0.6707
 2843TIP3    H130020   0.722   2.646  15.273  1.6534 -2.4816 -0.1778
 2843TIP3    H230021   0.696   2.664  15.421  0.5425  2.1594 -0.7889
 2844TIP3   OH230022   3.031   2.253  13.055  0.2801  0.1709  0.2950
 2844TIP3    H130023   2.945   2.273  13.094  0.3121  0.3871  0.2583
 2844TIP3    H230024   3.017   2.266  12.961  0.9663  2.6302  0.4507
 2845TIP3   OH230025   3.069   5.980  14.072 -0.5929 -0.1709 -0.1927
 2845TIP3    H130026   2.997   5.996  14.134 -0.3822 -1.8387  0.5463
 2845TIP3    H230027   3.034   5.915  14.011  0.1604 -0.7497 -0.0231
 2846TIP3   OH230028   6.026   5.548  13.206 -0.4740 -0.2189  0.0587
 2846TIP3    H130029   6.095   5.499  13.162  0.3020  2.1921 -1.6174
 2846TIP3    H230030   6.073   5.613  13.258 -1.4640  0.1391  0.5206
 2847TIP3   OH230031   0.668   4.886  13.177 -0.2618  0.1534 -0.4763
 2847TIP3    H130032   0.680   4.809  13.121 -0.2229  1.3022 -2.1099
 2847TIP3    H230033   0.581   4.874  13.215  1.0900 -2.4244  2.1809
 2848TIP3   OH230034   0.914   2.760   5.303 -0.3566 -0.0522  0.4850
 2848TIP3    H130035   0.937   2.780   5.394  0.8909  1.2891 -0.0741
 2848TIP3    H230036   0.818   2.754   5.303 -0.4057  0.4234  1.7912
 2849TIP3   OH230037   2.997   6.696  16.403  0.3407  0.3873 -0.3623
 2849TIP3    H130038   2.979   6.731  16.490  0.2463 -0.8076  0.1293
 2849TIP3    H230039   2.916   6.652  16.377  0.3248  0.8460 -1.1129
 2850TIP3   OH230040   0.510   0.857   6.488 -0.1427 -0.1221  0.0828
 2850TIP3    H130041   0.484   0.872   6.579  0.7823  2.8861 -0.0376
 2850TIP3    H230042   0.601   0.828   6.493 -0.4372 -1.0883  0.1151
 2851TIP3   OH230043   1.050   4.627  12.563 -0.4509 -0.3535  0.6765
 2851TIP3    H130044   1.036   4.548  12.615  1.1034 -2.9463 -2.5168
 2851TIP3    H230045   0.983   4.625  12.496 -0.5854  1.2770  0.7178
 2852TIP3   OH230046   2.858   4.806   4.985 -0.3878 -0.0178 -0.2199
 2852TIP3    H130047   2.925   4.837   4.923  0.5463  0.3720  0.9348
 2852TIP3    H230048   2.903   4.805   5.069 -1.6096 -0.6052  0.4473
 2853TIP3   OH230049   6.481   0.554  16.197 -0.4668  0.2982 -0.3257
 2853TIP3    H130050   6.468   0.607  16.119  3.2054  1.1110 -0.5689
 2853TIP3    H230051   6.559   0.591  16.239 -0.5260 -1.9944  2.0873
 2854TIP3   OH230052   6.022   3.330  13.415 -0.3483 -0.2086  0.0314
 2854TIP3    H130053   6.013   3.425  13.409 -0.0339 -0.2209 -0.7041
 2854TIP3    H230054   6.113   3.315  13.439 -0.2283 -0.3353 -0.4787
 2855TIP3   OH230055   1.575   3.606   4.822  0.2033  0.5076 -0.3919
 2855TIP3    H130056   1.492   3.646   4.845 -0.3308  0.1790 -1.6851
 2855TIP3    H230057   1.551   3.524   4.778  1.2400 -1.3371  2.2088
 2856TIP3   OH230058   0.037   2.144   2.371 -0.1390  0.3102  0.3780
 2856TIP3    H130059  -0.026   2.162   2.301  1.7956  0.0879 -1.5716
 2856TIP3    H230060   0.082   2.228   2.384  2.7469 -0.6067 -2.2422
 2857TIP3   OH230061   3.880   6.617  10.514  0.0035 -0.6026 -0.1666
 2857TIP3    H130062   3.811   6.625  10.449 -2.5772 -0.6901  2.3571
 2857TIP3    H230063   3.915   6.529  10.502 -1.5923 -1.2373 -0.4199
 2858TIP3   OH230064   3.534   3.450  17.169 -0.0972  0.0479 -0.3858
 2858TIP3    H130065   3.511   3.419  17.257  0.3555  0.6400 -0.0485
 2858TIP3    H230066   3.592   3.525  17.185 -1.4000  1.2711 -1.1419
 2859TIP3   OH230067   5.530   0.841   5.302 -0.1540  0.4163  0.2864
 2859TIP3    H130068   5.520   0.757   5.257  0.2172 -0.4135  1.6835
 2859TIP3    H230069   5.605   0.828   5.360  0.6603  2.1210 -0.3105
 2860TIP3   OH230070   2.080   1.423  16.735 -0.1033 -0.3195  0.0541
 2860TIP3    H130071   2.156   1.395  16.684 -1.3843 -1.7745 -1.1388
 2860TIP3    H230072   2.027   1.473  16.673  0.1631  1.3081  1.0670
 2861TIP3   OH230073   3.955   1.623   2.177  0.9044  0.0635  0.1087
 2861TIP3    H130074   4.005   1.689   2.129  0.0743  1.6611  1.3321
 2861TIP3    H230075   3.867   1.660   2.182 -0.6218 -2.7984 -2.3055
 2862TIP3   OH230076   5.644   3.979   0.224 -0.2700 -0.3894  0.0502
 2862TIP3    H130077   5.692   4.051   0.183 -0.4260  0.4186  1.2494
 2862TIP3    H230078   5.589   3.945   0.153  0.2910  0.2279 -0.7118
 2863TIP3   OH230079   2.642   4.522  13.538  0.3875  0.2956  0.2955
 2863TIP3    H130080   2.637   4.548  13.630 -0.7370  0.7452  0.1207
 2863TIP3    H230081   2.635   4.426  13.540  0.4544  0.2964  0.6837
 2864TIP3   OH230082   5.679   2.172   0.035 -0.5630 -0.3438 -0.1069
 2864TIP3    H130083   5.652   2.228   0.107 -2.2532 -1.6254  0.3100
 2864TIP3    H230084   5.757   2.127   0.067 -1.3423 -0.9542  0.9711
 2865TIP3   OH230085   5.842   6.743  15.863  0.1393  0.5349  0.6162
 2865TIP3    H130086   5.926   6.787  15.850 -0.1301  0.9051  0.1272
 2865TIP3    H230087   5.778   6.813  15.867 -0.2705  0.2023  0.0225
 2866TIP3   OH230088   4.893   0.180   0.242 -0.6233 -0.1427 -0.7760
 2866TIP3    H130089   4.988   0.188   0.253 -0.6362  0.3520 -0.9949
 2866TIP3    H230090   4.863   0.136   0.321 -0.3516  0.7033 -0.1838
 2867TIP3   OH230091   4.327   5.708  11.963  0.6511 -0.3626 -0.6154
 2867TIP3    H130092   4.266   5.738  12.030  0.9820 -0.1480 -0.4031
 2867TIP3    H230093   4.303   5.757  11.885  0.3857 -0.4713 -0.6011
 2868TIP3   OH230094   1.654   6.322   5.654 -0.2347 -0.3266 -0.6477
 2868TIP3    H130095   1.669   6.250   5.594  0.5354  0.0601 -0.9301
 2868TIP3    H230096   1.716   6.390   5.627 -0.5550  0.2266 -0.0353
 2869TIP3   OH230097   1.520   5.767   0.361 -0.0151 -0.1259 -0.5299
 2869TIP3    H130098   1.457   5.804   0.300 -0.1134  0.1029 -0.2917
 2869TIP3    H230099   1.470   5.752   0.441  0.5061  1.2424  0.0821
 2870TIP3   OH230100   2.822   3.201  13.648  0.7766  0.3861  0.5099
 2870TIP3    H130101   2.899   3.163  13.691  0.3213  1.2998  2.1760
 2870TIP3    H230102   2.843   3.294  13.639  0.2246  0.4757  0.1200
 2871TIP3   OH230103   3.967   4.995   6.690 -0.2481  0.0806  0.7888
 2871TIP3    H130104   3.899   4.932   6.667  0.3675 -0.9772  1.7225
 2871TIP3    H230105   4.009   4.957   6.767  1.2056  0.8317  0.4059
 2872TIP3   OH230106   3.370   3.875  17.251 -0.4591  0.5629 -0.1225
 2872TIP3    H130107   3.322   3.954  17.226 -0.3829  0.5276 -0.3842
 2872TIP3    H230108   3.457   3.887  17.215 -0.2302  0.6809  0.4596
 2873TIP3   OH230109   1.328   0.940  12.875 -0.5254  0.2822  0.1189
 2873TIP3    H130110   1.358   0.985  12.796  0.4491 -0.2834  0.1634
 2873TIP3    H230111   1.342   1.003  12.945 -0.6648  0.4950 -0.0414
 2874TIP3   OH230112   6.157   5.176  10.823 -0.4633  0.8028 -0.0309
 2874TIP3    H130113   6.111   5.111  10.769 -1.0328  1.8709 -0.8610
 2874TIP3    H230114   6.241   5.135  10.843 -0.2388  0.3625 -1.7228
 2875TIP3   OH230115   3.245   2.186  15.390  0.3079 -0.2930  0.0749
 2875TIP3    H130116   3.223   2.272  15.426  0.0370  0.7219 -2.3116
 2875TIP3    H230117   3.340   2.189  15.378  0.4482 -0.7699  0.9989
 2876TIP3   OH230118   5.232   2.680   1.555 -0.2115 -0.0751 -0.5187
 2876TIP3    H130119   5.291   2.669   1.479  2.6902 -0.1166  1.5613
 2876TIP3    H230120   5.255   2.608   1.613 -1.7476  0.4571  0.8125
 2877TIP3   OH230121   5.420   3.224  16.148 -0.0423 -0.7479  0.1971
 2877TIP3    H130122   5.414   3.129  16.137  0.0323 -1.0849  2.5453
 2877TIP3    H230123   5.495   3.250  16.094 -1.4700 -1.6091 -2.3412
 2878TIP3   OH230124   6.319   4.667   1.231 -0.6314  0.1248 -0.5253
 2878TIP3    H130125   6.269   4.730   1.285 -1.8056 -0.3930 -0.9837
 2878TIP3    H230126   6.259   4.594   1.218  0.2588 -0.5155 -1.1217
 2879TIP3   OH230127   5.133   4.303  13.300 -0.0449  0.8421 -0.2075
 2879TIP3    H130128   5.114   4.362  13.228  2.2285  2.0509  0.0917
 2879TIP3    H230129   5.203   4.247  13.268 -0.9632 -0.5279  0.1215
 2880TIP3   OH230130   5.098   1.384   4.149  0.5876 -0.3244 -0.4864
 2880TIP3    H130131   5.056   1.323   4.210 -2.4971  1.5807 -0.4824
 2880TIP3    H230132   5.080   1.347   4.062 -1.5651  0.5925 -0.5040
 2881TIP3   OH230133   2.813   5.314   2.198 -0.2835  0.5101 -0.0815
 2881TIP3    H130134   2.758   5.265   2.137  0.3934 -0.3194 -0.0458
 2881TIP3    H230135   2.775   5.294   2.284 -2.2231  2.9355 -0.2673
 2882TIP3   OH230136   2.355   3.683   0.801  0.0130  0.6157  0.4458
 2882TIP3    H130137   2.285   3.633   0.843 -1.8439  1.4130 -1.5234
 2882TIP3    H230138   2.431   3.671   0.859 -0.8119 -2.8990  1.0347
 2883TIP3   OH230139   2.117   3.807   3.297 -0.5615 -0.1899  0.3472
 2883TIP3    H130140   2.091   3.724   3.256 -0.3441 -0.2965  0.4267
 2883TIP3    H230141   2.109   3.792   3.391 -1.3921  0.1627  0.3432
 2884TIP3   OH230142   1.561   5.098   0.686 -0.0300  0.0306  0.4670
 2884TIP3    H130143   1.513   5.137   0.759  0.7253  1.0785  0.4292
 2884TIP3    H230144   1.506   5.114   0.609 -0.0689  0.3927  0.5678
 2885TIP3   OH230145   2.900   1.209  14.644  0.0101  0.0491 -0.1245
 2885TIP3    H130146   2.971   1.267  14.672  0.9127 -1.3706  0.6966
 2885TIP3    H230147   2.938   1.121  14.651 -1.5456 -0.6907 -0.5762
 2886TIP3   OH230148   2.242   3.183  11.958 -0.2411  0.8346 -0.2005
 2886TIP3    H130149   2.196   3.128  12.021 -0.4520  2.4646  1.1455
 2886TIP3    H230150   2.174   3.214  11.899 -0.6402  1.9217  0.7934
 2887TIP3   OH230151   1.148   6.370   4.373 -0.1144  0.6268 -0.4153
 2887TIP3    H130152   1.070   6.367   4.318 -0.1674  0.9514 -0.3581
 2887TIP3    H230153   1.199   6.443   4.338  0.2801  0.2686 -0.6060
 2888TIP3   OH230154   3.177   5.840  12.029  0.3291  0.4833 -0.0111
 2888TIP3    H130155   3.223   5.756  12.034 -0.1469  0.0629 -1.8824
 2888TIP3    H230156   3.090   5.822  12.063 -0.0378 -0.0283 -1.1601
 2889TIP3   OH230157   4.036   4.802  12.650  0.1797  0.2757  0.0841
 2889TIP3    H130158   4.065   4.852  12.573  0.2167  0.5460  0.2707
 2889TIP3    H230159   4.105   4.817  12.714 -0.1912  0.6191  0.4061
 2890TIP3   OH230160   5.913   6.804  16.756 -0.3123 -0.3186 -0.0446
 2890TIP3    H130161   5.958   6.881  16.722  1.2442 -0.8478  0.6878
 2890TIP3    H230162   5.821   6.818  16.736  0.2488  0.4756 -2.2899
 2891TIP3   OH230163   6.744   2.285  12.723 -0.4658 -0.0858 -0.3885
 2891TIP3    H130164   6.764   2.364  12.773  1.4073 -0.2610 -0.7766
 2891TIP3    H230165   6.829   2.241  12.713 -1.3404 -1.7447 -0.8566
 2892TIP3   OH230166   6.449   5.212   3.948  0.3815  0.4544  0.0329
 2892TIP3    H130167   6.358   5.196   3.923 -0.7087  1.8014  2.6392
 2892TIP3    H230168   6.483   5.126   3.973 -1.4981  0.3041  2.5878
 2893TIP3   OH230169   5.494   6.367   0.816 -0.0397  0.0671  0.4222
 2893TIP3    H130170   5.568   6.327   0.862 -0.8777 -1.0827  0.8324
 2893TIP3    H230171   5.504   6.340   0.725  0.4771  0.5791  0.3272
 2894TIP3   OH230172   6.688   0.986  14.138  0.3589 -0.1124 -0.2229
 2894TIP3    H130173   6.606   1.010  14.095 -1.4215  0.7664  3.2756
 2894TIP3    H230174   6.663   0.917  14.200  2.3861 -0.1795  0.5957
 2895TIP3   OH230175   4.275   0.265  12.113 -0.3489  0.1950  0.7650
 2895TIP3    H130176   4.349   0.309  12.154 -0.2664 -0.8070  1.7413
 2895TIP3    H230177   4.305   0.243  12.025 -0.3233  1.8571  0.3295
 2896TIP3   OH230178   5.151   5.763   2.629 -0.3747 -0.0370  0.4087
 2896TIP3    H130179   5.091   5.815   2.575 -1.0635  0.0796  1.2640
 2896TIP3    H230180   5.200   5.828   2.679 -0.8771 -0.1745  1.1002
 2897TIP3   OH230181   3.745   0.793   3.108  0.2011 -0.7797 -0.7449
 2897TIP3    H130182   3.666   0.818   3.061  0.4621  0.5710 -0.4928
 2897TIP3    H230183   3.784   0.875   3.137  2.0722 -1.3502 -1.4303
 2898TIP3   OH230184   2.272   2.035  16.591  0.5523 -0.2983  0.3631
 2898TIP3    H130185   2.306   2.036  16.680  1.7640 -0.1773 -0.0779
 2898TIP3    H230186   2.265   1.942  16.568  2.3044 -0.3407 -0.1411
 2899TIP3   OH230187   4.938   1.661  12.540 -0.0712 -0.0234 -0.5277
 2899TIP3    H130188   4.929   1.604  12.616 -1.7461  0.9697  0.0570
 2899TIP3    H230189   5.024   1.703  12.552  0.9332 -1.9219 -0.6803
 2900TIP3   OH230190   3.807   2.930   0.128  0.1020  0.0017 -0.2033
 2900TIP3    H130191   3.901   2.934   0.108 -0.0563  0.6611 -0.9081
 2900TIP3    H230192   3.801   2.957   0.219  0.5623  0.4894 -0.3067
 2901TIP3   OH230193   5.204   0.582  11.749  0.1193  0.3895 -0.7187
 2901TIP3    H130194   5.214   0.507  11.690 -2.7012 -0.2222 -0.5907
 2901TIP3    H230195   5.195   0.657  11.691  0.5943  0.2912 -0.9291
 2902TIP3   OH230196   1.122   1.734  13.450 -0.4710  0.1672 -0.1204
 2902TIP3    H130197   1.164   1.701  13.530 -0.8769  0.2868  0.1485
 2902TIP3    H230198   1.028   1.733  13.471 -0.4559  3.0191  0.5299
 2903TIP3   OH230199   2.859   2.782  12.057  0.2142  0.9075 -0.9317
 2903TIP3    H130200   2.810   2.854  12.099 -0.2065 -0.7768  1.7369
 2903TIP3    H230201   2.949   2.796  12.085  0.2655  0.8408 -1.0686
 2904TIP3   OH230202   5.343   3.809  16.506  0.4185 -0.3097 -0.1287
 2904TIP3    H130203   5.338   3.756  16.427  0.3779 -0.8279  0.2174
 2904TIP3    H230204   5.433   3.843  16.506  1.1135 -2.0602  0.7047
 2905TIP3   OH230205   3.022   1.662  10.662  0.2446 -0.6448  0.5043
 2905TIP3    H130206   2.941   1.620  10.690  0.5355 -0.4447  1.6761
 2905TIP3    H230207   2.993   1.737  10.609 -0.3773 -0.0027  1.7204
 2906TIP3   OH230208   5.992   2.562   4.699 -0.4127 -0.4848  0.6684
 2906TIP3    H130209   6.009   2.654   4.719 -1.3967 -0.3799  1.0621
 2906TIP3    H230210   5.980   2.559   4.604  0.7341 -0.4009  0.5055
 2907TIP3   OH230211   6.044   6.607   5.688  0.1369  0.3321 -0.0267
 2907TIP3    H130212   5.971   6.576   5.633 -1.4067 -1.5219  2.8391
 2907TIP3    H230213   6.002   6.652   5.761  1.9300  0.2249  1.1272
 2908TIP3   OH230214   5.437   4.060  15.911 -0.1133 -0.5316  0.6841
 2908TIP3    H130215   5.347   4.074  15.881  0.7606  2.9944 -0.7291
 2908TIP3    H230216   5.486   4.037  15.832  0.8506  1.3062  0.6976
 2909TIP3   OH230217   6.049   0.960  15.925 -0.2011  0.0889  0.0755
 2909TIP3    H130218   6.046   0.970  15.830  1.4472 -0.5318 -0.0880
 2909TIP3    H230219   6.125   1.011  15.952  2.0080 -3.0526  0.4506
 2910TIP3   OH230220   3.578   3.952  17.108  0.3286  0.0493  0.1742
 2910TIP3    H130221   3.570   3.938  17.014  0.2265 -1.2869  0.3731
 2910TIP3    H230222   3.657   3.904  17.134  0.2134  0.1913  0.8194
 2911TIP3   OH230223   1.352   1.725  17.148  0.1435 -0.1611  0.4218
 2911TIP3    H130224   1.413   1.798  17.156  0.3860  0.5564 -4.5250
 2911TIP3    H230225   1.402   1.649  17.179  1.1035  1.2299  2.5233
 2912TIP3   OH230226   2.003   4.260   0.635  0.2869 -0.0652  1.1568
 2912TIP3    H130227   2.070   4.292   0.575  0.6531 -3.6418 -0.6315
 2912TIP3    H230228   2.053   4.223   0.708  0.0992  0.0455  1.3401
 2913TIP3   OH230229   3.403   6.297   0.636  0.0003 -0.1259  0.3630
 2913TIP3    H130230   3.348   6.230   0.595 -2.5267  1.7485  0.4702
 2913TIP3    H230231   3.414   6.266   0.726  0.2682 -1.1644 -0.0034
 2914TIP3   OH230232   4.701   4.451   5.364 -0.7892 -0.1083  0.3302
 2914TIP3    H130233   4.664   4.498   5.440  1.0325  0.0773  1.1644
 2914TIP3    H230234   4.639   4.382   5.346 -1.1639 -0.3161  2.1914
 2915TIP3   OH230235   0.330   5.637  15.084 -0.3198 -0.3932  0.3723
 2915TIP3    H130236   0.381   5.708  15.122  1.1514 -2.0610  1.6698
 2915TIP3    H230237   0.338   5.651  14.989  3.2377 -0.9275  0.4451
 2916TIP3   OH230238   6.750   1.290   3.351  0.2889  0.1676 -0.1328
 2916TIP3    H130239   6.722   1.300   3.260  0.6965 -1.2410 -0.4358
 2916TIP3    H230240   6.794   1.205   3.354  0.1744  0.1229  1.4065
 2917TIP3   OH230241   4.974   5.539   0.087 -0.0049  0.5461  0.1050
 2917TIP3    H130242   4.896   5.519   0.138  0.0891 -0.3903 -0.0991
 2917TIP3    H230243   5.034   5.580   0.150 -0.8414  1.7571  0.1389
 2918TIP3   OH230244   4.117   0.867  13.003  0.2759  0.8357 -0.0665
 2918TIP3    H130245   4.023   0.860  13.019  0.2988  1.1216  0.2012
 2918TIP3    H230246   4.139   0.787  12.954 -0.2014  1.0275 -0.6033
 2919TIP3   OH230247   6.026   0.820  14.403  0.8204 -0.4770 -0.1795
 2919TIP3    H130248   5.966   0.893  14.386  1.3207 -0.0391 -0.1078
 2919TIP3    H230249   6.014   0.762  14.328 -0.5002 -0.9607  0.3694
 2920TIP3   OH230250   0.150   0.252  12.567 -0.4286 -0.4353  0.1822
 2920TIP3    H130251   0.118   0.288  12.650 -1.2590 -0.3868 -0.1530
 2920TIP3    H230252   0.127   0.318  12.502  1.1151 -0.0040  0.0339
 2921TIP3   OH230253   4.586   2.632   3.266 -0.4871  0.1138 -0.0911
 2921TIP3    H130254   4.655   2.628   3.200 -0.6172  0.7125 -0.2655
 2921TIP3    H230255   4.524   2.697   3.233  1.0669  2.9658  2.1127
 2922TIP3   OH230256   0.709   6.385  11.821  0.2139  0.0281 -0.6034
 2922TIP3    H130257   0.631   6.356  11.772 -1.5426  0.5170  1.7432
 2922TIP3    H230258   0.682   6.467  11.862  2.8059  1.4741 -1.5614
 2923TIP3   OH230259   1.572   5.464   4.231  0.0341  0.3132  0.0064
 2923TIP3    H130260   1.570   5.412   4.311  0.8151  1.1235  0.5662
 2923TIP3    H230261   1.537   5.406   4.164 -0.3674 -0.4710  0.8793
 2924TIP3   OH230262   1.120   0.426   2.995  0.4666 -0.1432 -0.0335
 2924TIP3    H130263   1.204   0.400   3.034  1.1165 -2.4779 -2.7053
 2924TIP3    H230264   1.126   0.398   2.904 -2.6979  0.9534 -0.6945
 2925TIP3   OH230265   3.156   5.223   3.945  0.2045  0.0127 -0.2688
 2925TIP3    H130266   3.132   5.301   3.896  1.0872 -0.1047 -0.9311
 2925TIP3    H230267   3.185   5.161   3.878 -0.1750 -0.7663  0.2721
 2926TIP3   OH230268   1.067   5.485  15.394 -0.1082  0.2876 -0.3560
 2926TIP3    H130269   1.057   5.579  15.407  1.1738  0.3674  0.3060
 2926TIP3    H230270   1.003   5.446  15.453 -0.5558  0.7385 -0.5354
 2927TIP3   OH230271   2.694   6.256   5.825 -0.1534  0.1341  0.3477
 2927TIP3    H130272   2.716   6.328   5.766 -0.1166 -1.5051 -1.7451
 2927TIP3    H230273   2.759   6.262   5.895  0.1950  1.7746 -0.0745
 2928TIP3   OH230274   4.157   2.131   4.926 -0.1539 -0.2964  0.3132
 2928TIP3    H130275   4.201   2.215   4.915 -2.0776  1.0300  1.9822
 2928TIP3    H230276   4.215   2.081   4.983  0.2032  0.6064  0.7646
 2929TIP3   OH230277   6.537   5.949  15.022  0.0055 -0.3246 -0.0811
 2929TIP3    H130278   6.540   5.909  15.109  0.2735 -1.4458 -0.5829
 2929TIP3    H230279   6.608   6.014  15.023  0.5873 -0.9538  0.2542
 2930TIP3   OH230280   4.398   1.221  13.967  0.2493 -0.3466  0.1968
 2930TIP3    H130281   4.459   1.251  13.899 -0.0013 -0.2894 -0.0061
 2930TIP3    H230282   4.317   1.202  13.919 -0.3873  1.0437  0.6658
 2931TIP3   OH230283   2.609   4.840  15.908  0.4509  0.0436  0.0385
 2931TIP3    H130284   2.643   4.760  15.870  0.4306  0.9030 -1.9189
 2931TIP3    H230285   2.679   4.904  15.896 -0.2347  0.7730 -0.1832
 2932TIP3   OH230286   6.540   3.111  13.978 -0.4678  0.0384  0.2903
 2932TIP3    H130287   6.580   3.196  13.998 -0.7967  0.6229 -1.3733
 2932TIP3    H230288   6.487   3.127  13.900  0.6885 -2.0339 -1.0181
 2933TIP3   OH230289   2.227   1.186   6.435  0.0369 -0.1474  0.3378
 2933TIP3    H130290   2.211   1.197   6.529 -0.4298 -1.1403  0.3921
 2933TIP3    H230291   2.151   1.137   6.404 -0.0764  0.6296 -0.6725
 2934TIP3   OH230292   5.471   3.814   4.635 -0.3230 -0.2465 -0.3883
 2934TIP3    H130293   5.523   3.893   4.622  0.3063 -0.6411 -0.3056
 2934TIP3    H230294   5.524   3.744   4.597 -1.0892 -0.5652 -0.9106
 2935TIP3   OH230295   4.496   0.968  13.564 -0.1306  0.3845 -0.4695
 2935TIP3    H130296   4.427   0.989  13.627 -0.6469 -1.5616 -0.3059
 2935TIP3    H230297   4.452   0.973  13.479  0.1863  1.5565 -0.5793
 2936TIP3   OH230298   2.057   2.091   2.314  0.2070 -0.4328 -0.1632
 2936TIP3    H130299   1.973   2.106   2.357  0.1474 -0.6924 -0.1883
 2936TIP3    H230300   2.109   2.168   2.336  0.0347 -0.3694  0.0255
 2937TIP3   OH230301   2.381   0.658   5.361  0.4559  0.0221  0.5695
 2937TIP3    H130302   2.443   0.602   5.407  0.2192 -1.1892 -0.5183
 2937TIP3    H230303   2.414   0.662   5.271 -0.3068  0.4712  0.2938
 2938TIP3   OH230304   3.170   2.709   3.583  0.1848 -0.7252  0.5811
 2938TIP3    H130305   3.085   2.719   3.627  1.1189  0.6305  2.1818
 2938TIP3    H230306   3.234   2.706   3.653  1.5956 -0.4158 -0.6323
 2939TIP3   OH230307   3.322   1.635  17.251 -0.4249 -0.5499  0.2739
 2939TIP3    H130308   3.316   1.542  17.231 -0.4941 -0.7681  1.2581
 2939TIP3    H230309   3.283   1.644  17.338 -1.9652  0.6506 -0.4779
 2940TIP3   OH230310   6.207   4.435  13.088  0.2168  0.6078  0.5370
 2940TIP3    H130311   6.133   4.430  13.149  0.0612  0.1546  0.3137
 2940TIP3    H230312   6.221   4.529  13.076 -2.6968  0.8590 -2.2158
 2941TIP3   OH230313   2.465   3.820  14.813 -0.2251  0.3670 -0.2193
 2941TIP3    H130314   2.420   3.888  14.863  0.4650  0.9041 -0.3146
 2941TIP3    H230315   2.549   3.859  14.788  0.8710 -1.0391  1.0557
 2942TIP3   OH230316   2.288   1.577  12.232 -0.9212 -0.0988  0.5816
 2942TIP3    H130317   2.245   1.612  12.154  0.5812 -0.7546 -0.5915
 2942TIP3    H230318   2.258   1.486  12.236 -0.4557 -0.2622  0.3624
 2943TIP3   OH230319   6.713   1.781   0.764  0.2816 -0.1565 -0.1580
 2943TIP3    H130320   6.741   1.869   0.787  0.7749 -0.6605  1.3323
 2943TIP3    H230321   6.622   1.790   0.736 -0.0348  0.6917  1.0770
 2944TIP3   OH230322   1.001   5.107  15.022  0.4627 -0.2513  0.2590
 2944TIP3    H130323   0.910   5.127  14.999 -0.1872 -1.8639  1.2651
 2944TIP3    H230324   1.025   5.174  15.085  0.2464  0.6453 -0.5830
 2945TIP3   OH230325   4.448   1.454  16.309  0.1272  0.2567 -0.1702
 2945TIP3    H130326   4.466   1.396  16.235  5.1548  0.6808  0.3701
 2945TIP3    H230327   4.465   1.401  16.387  0.2671  1.2180  0.4806
 2946TIP3   OH230328   3.795   1.722  12.092  0.2205  0.2587 -0.0027
 2946TIP3    H130329   3.706   1.709  12.125  0.6259  0.4877  1.2066
 2946TIP3    H230330   3.850   1.664  12.144  0.7878  0.0557 -0.7941
 2947TIP3   OH230331   0.873   0.071   4.376  0.4973 -0.3365 -0.4155
 2947TIP3    H130332   0.872   0.022   4.458  1.5510  0.0734 -0.1374
 2947TIP3    H230333   0.896   0.006   4.310 -0.0793 -0.6101 -0.3539
 2948TIP3   OH230334   3.200   0.169  11.847  0.0751 -0.9002 -0.6072
 2948TIP3    H130335   3.293   0.160  11.827  0.2208 -0.4592 -0.1414
 2948TIP3    H230336   3.195   0.241  11.910 -0.5610 -1.0404 -0.4847
 2949TIP3   OH230337   4.614   3.504   5.560 -0.4191  0.6224 -0.5450
 2949TIP3    H130338   4.543   3.522   5.499 -0.8417  0.5388 -0.0854
 2949TIP3    H230339   4.578   3.440   5.622 -0.0258  0.7597 -0.1626
 2950TIP3   OH230340   1.534   0.101   5.830  0.3862 -0.1111  0.1953
 2950TIP3    H130341   1.571   0.013   5.835  1.9274  0.5402  1.3089
 2950TIP3    H230342   1.444   0.088   5.802  0.1837 -2.1405  1.5709
 2951TIP3   OH230343   6.563   0.830   0.716 -0.0136 -0.0540  0.2773
 2951TIP3    H130344   6.592   0.745   0.748 -1.3821 -0.1988  1.2433
 2951TIP3    H230345   6.620   0.893   0.761  0.7947 -0.4250 -0.2009
 2952TIP3   OH230346   5.793   4.620  13.004 -0.0219 -0.5472  0.4458
 2952TIP3    H130347   5.746   4.570  12.938 -0.5954  0.6957 -0.1356
 2952TIP3    H230348   5.859   4.669  12.955 -0.8186  0.8233  0.6623
 2953TIP3   OH230349   6.705   4.445  15.093 -0.0785  0.2662  0.1265
 2953TIP3    H130350   6.635   4.389  15.062  0.7556 -0.1680 -1.0599
 2953TIP3    H230351   6.662   4.508  15.151 -1.0369 -1.5301  1.4465
 2954TIP3   OH230352   1.087   3.090   2.569  0.0778 -0.2611 -0.3493
 2954TIP3    H130353   1.131   3.064   2.489  0.0208 -1.6667  0.0432
 2954TIP3    H230354   1.079   3.185   2.563  1.2058 -0.2148 -1.4116
 2955TIP3   OH230355   0.057   2.114  16.465  0.2802 -0.2185 -0.5319
 2955TIP3    H130356   0.141   2.078  16.494 -0.2436 -0.6605  0.4774
 2955TIP3    H230357  -0.008   2.071  16.521 -0.4715  1.4077 -0.1159
 2956TIP3   OH230358   4.075   1.745   0.068 -0.1338  0.1951 -0.1617
 2956TIP3    H130359   4.146   1.765   0.128  0.2692  0.3153 -0.6673
 2956TIP3    H230360   4.042   1.660   0.096  0.4421 -0.0221 -0.1329
 2957TIP3   OH230361   2.852   3.087   5.637  0.0485  0.2149 -0.2893
 2957TIP3    H130362   2.910   3.024   5.594  0.7002  0.0158  0.8570
 2957TIP3    H230363   2.908   3.161   5.659 -0.1878  0.1354  0.5907
 2958TIP3   OH230364   3.295   4.706   5.837  0.6083  0.3398 -0.0646
 2958TIP3    H130365   3.224   4.644   5.828 -0.5826  1.6698 -0.2151
 2958TIP3    H230366   3.373   4.659   5.807 -0.2957 -0.9559 -0.4326
 2959TIP3   OH230367   1.138   4.889  13.295  0.1097 -0.2650 -0.0937
 2959TIP3    H130368   1.185   4.959  13.248 -0.5134 -0.3441 -0.8618
 2959TIP3    H230369   1.105   4.832  13.225 -2.6575  0.7458  0.2407
 2960TIP3   OH230370   6.708   1.449  11.901  0.2296 -0.1263 -0.2898
 2960TIP3    H130371   6.769   1.394  11.852  0.5243 -0.1961  0.1457
 2960TIP3    H230372   6.759   1.479  11.977 -0.0293  0.4766 -0.3486
 2961TIP3   OH230373   4.531   5.203  17.205 -0.4805 -1.0823  0.6862
 2961TIP3    H130374   4.456   5.262  17.212  0.1400  0.5581 -3.7529
 2961TIP3    H230375   4.505   5.139  17.139  1.9782 -0.4297 -1.0066
 2962TIP3   OH230376   4.578   0.879   1.177 -0.0294  0.0814 -0.2333
 2962TIP3    H130377   4.576   0.906   1.269  0.9652  2.0131 -0.7276
 2962TIP3    H230378   4.489   0.852   1.158 -0.2060 -0.5690  1.3518
 2963TIP3   OH230379   5.151   2.255  12.540  0.3975 -0.1389  0.0532
 2963TIP3    H130380   5.079   2.234  12.479 -0.8789  1.4226  0.9500
 2963TIP3    H230381   5.167   2.174  12.587 -0.4495 -0.6541 -0.5193
 2964TIP3   OH230382   4.940   4.873   6.165  0.3314  0.3192  0.2001
 2964TIP3    H130383   5.031   4.901   6.173 -0.1982  2.0875  0.4525
 2964TIP3    H230384   4.931   4.847   6.074  1.1692 -0.1845  0.2542
 2965TIP3   OH230385   0.928   3.634   4.720  0.0177  0.0144 -0.2429
 2965TIP3    H130386   0.971   3.599   4.798 -0.0211  0.4928 -0.0031
 2965TIP3    H230387   0.890   3.557   4.677  1.5803 -0.4984 -0.7586
 2966TIP3   OH230388   5.979   6.447  10.933  0.0799  0.5823 -0.2146
 2966TIP3    H130389   5.972   6.541  10.950  1.1199  0.3568  1.7183
 2966TIP3    H230390   6.018   6.411  11.012 -1.0806 -1.6237 -0.5694
 2967TIP3   OH230391   5.810   6.376  15.408  0.5557  0.5830 -0.6396
 2967TIP3    H130392   5.763   6.442  15.458  0.8960 -0.0408  0.5381
 2967TIP3    H230393   5.901   6.405  15.409  1.1496 -1.0907  1.9977
 2968TIP3   OH230394   3.495   0.983  16.778  0.3344 -0.0395 -0.0879
 2968TIP3    H130395   3.448   0.967  16.859  0.6119  0.1985  0.1203
 2968TIP3    H230396   3.436   0.951  16.709  0.6262 -1.4202  0.2728
 2969TIP3   OH230397   6.301   3.573  14.369 -0.4441 -0.2928 -0.4139
 2969TIP3    H130398   6.371   3.549  14.429  0.2296 -0.5858 -1.3008
 2969TIP3    H230399   6.225   3.523  14.400 -0.6727  1.0618  1.3808
 2970TIP3   OH230400   4.837   2.402  12.752  0.3020 -0.1544  0.2417
 2970TIP3    H130401   4.792   2.435  12.830  0.4504 -0.6039  0.5196
 2970TIP3    H230402   4.928   2.392  12.779  0.4759  0.2642 -0.1725
 2971TIP3   OH230403   5.880   0.545   6.246 -0.0350  0.3803 -0.2762
 2971TIP3    H130404   5.938   0.470   6.255  0.0223  0.4318 -0.2138
 2971TIP3    H230405   5.815   0.535   6.316  1.5695  1.8303  1.5249
 2972TIP3   OH230406   6.197   4.750   3.998  0.2030  0.5871  0.2597
 2972TIP3    H130407   6.183   4.776   4.089 -2.1908  0.3699  0.0196
 2972TIP3    H230408   6.287   4.718   3.996  0.8106  1.9836  2.1972
 2973TIP3   OH230409   4.701   4.600  16.790 -0.2573  0.5644  0.3679
 2973TIP3    H130410   4.726   4.620  16.699 -1.2712 -1.0960 -0.3194
 2973TIP3    H230411   4.785   4.589  16.835  0.2798  0.2122 -0.6653
 2974TIP3   OH230412   5.854   1.752   2.852  0.2986  0.0939  0.0820
 2974TIP3    H130413   5.905   1.680   2.816 -0.5953 -0.2844 -0.4583
 2974TIP3    H230414   5.894   1.770   2.937  1.2039 -0.3109 -0.2409
 2975TIP3   OH230415   1.721   2.334   6.747 -0.3646  0.0874  0.0618
 2975TIP3    H130416   1.799   2.311   6.798 -1.3550 -0.6953  1.2748
 2975TIP3    H230417   1.734   2.291   6.663  0.6664  0.2475  0.1286
 2976TIP3   OH230418   5.885   5.796   4.915  0.0896 -0.0374 -0.1017
 2976TIP3    H130419   5.817   5.842   4.964 -0.4678  0.0092 -0.9097
 2976TIP3    H230420   5.920   5.732   4.978 -1.5358 -0.8974 -0.0286
 2977TIP3   OH230421   4.932   1.767   2.952 -0.0061  0.3968 -0.1954
 2977TIP3    H130422   4.877   1.842   2.930  0.0506  0.7126  0.7297
 2977TIP3    H230423   5.021   1.802   2.956  0.3529 -0.1881 -2.0860
 2978TIP3   OH230424   3.696   6.021  12.637  0.2913  0.5706  0.6636
 2978TIP3    H130425   3.771   6.057  12.590  0.6807 -1.7239 -0.6550
 2978TIP3    H230426   3.622   6.075  12.610  1.2587  2.2352  1.1915
 2979TIP3   OH230427   0.548   2.475  14.301 -0.2782 -0.0129 -0.2687
 2979TIP3    H130428   0.643   2.480  14.288 -0.1960 -0.0399  0.3119
 2979TIP3    H230429   0.518   2.566  14.295 -0.0594  0.1303  0.6928
 2980TIP3   OH230430   6.156   2.394  12.417 -0.1420  0.1279  0.3364
 2980TIP3    H130431   6.075   2.421  12.459 -1.4959 -0.9128 -1.4640
 2980TIP3    H230432   6.128   2.350  12.336  2.2193 -0.0979 -0.4394
 2981TIP3   OH230433   2.665   2.395   4.893 -0.3405  0.0333 -0.4943
 2981TIP3    H130434   2.706   2.430   4.972  2.6770 -1.2925 -1.3548
 2981TIP3    H230435   2.591   2.454   4.876 -0.1499  1.2537  2.3989
 2982TIP3   OH230436   4.651   0.517  14.541 -0.4893  0.5454  0.2979
 2982TIP3    H130437   4.675   0.610  14.542 -1.9147  1.0086  3.3846
 2982TIP3    H230438   4.571   0.514  14.489  1.1866  0.4183 -2.4807
 2983TIP3   OH230439   3.176   5.560   5.208 -0.3020 -0.7524  0.7779
 2983TIP3    H130440   3.112   5.599   5.148 -0.6032 -0.7137  1.1202
 2983TIP3    H230441   3.129   5.486   5.247 -0.7716  0.3676  2.4004
 2984TIP3   OH230442   3.061   2.301   2.233 -0.0693  0.1051 -0.3170
 2984TIP3    H130443   3.154   2.312   2.213 -0.3676  0.5258 -1.5808
 2984TIP3    H230444   3.055   2.317   2.327  0.9757  1.2140 -0.4024
 2985TIP3   OH230445   0.908   4.493   0.559  1.1641 -0.6842  0.0322
 2985TIP3    H130446   0.834   4.463   0.508  0.4932 -0.5199  0.8881
 2985TIP3    H230447   0.983   4.483   0.501  0.5549 -1.3642 -0.6528
 2986TIP3   OH230448   1.276   6.715  14.752 -0.4921  0.0751 -0.2372
 2986TIP3    H130449   1.269   6.624  14.779 -2.4575  0.1255 -0.4115
 2986TIP3    H230450   1.295   6.710  14.658  0.5738 -0.1194 -0.0279
 2987TIP3   OH230451   3.627   4.551   3.416 -0.3442 -0.0430 -0.0636
 2987TIP3    H130452   3.629   4.642   3.386  2.2446 -0.1389 -0.3959
 2987TIP3    H230453   3.661   4.556   3.506  2.4140 -0.8700 -0.9607
 2988TIP3   OH230454   4.376   5.957  14.645  0.0934 -0.4398 -0.2129
 2988TIP3    H130455   4.428   6.036  14.658 -0.3291 -0.4825  2.4938
 2988TIP3    H230456   4.330   5.971  14.562  3.0358  0.3146 -1.8381
 2989TIP3   OH230457   6.784   6.318  12.828 -0.2995 -0.4123  0.2049
 2989TIP3    H130458   6.800   6.287  12.739 -1.2311 -2.5757  0.7415
 2989TIP3    H230459   6.691   6.301  12.844 -0.4287  1.0062  1.2196
 2990TIP3   OH230460   3.859   6.587   2.727 -0.4170  0.0408  0.4142
 2990TIP3    H130461   3.797   6.577   2.656 -0.0866  2.8690 -0.3951
 2990TIP3    H230462   3.805   6.595   2.806 -0.7910 -2.5713  0.5323
 2991TIP3   OH230463   2.410   2.306  11.371  0.1514  0.0453  0.5510
 2991TIP3    H130464   2.372   2.352  11.296 -1.2398 -0.2909  1.0200
 2991TIP3    H230465   2.462   2.373  11.415 -1.0894  0.9669  0.6919
 2992TIP3   OH230466   1.021   3.927  14.603  0.5076  0.1476 -0.0530
 2992TIP3    H130467   0.943   3.964  14.563 -1.3183 -0.6847  2.4593
 2992TIP3    H230468   1.001   3.835  14.615  1.4074  0.1261  1.6412
 2993TIP3   OH230469   6.589   6.097   0.773  0.3168  0.0653  0.7601
 2993TIP3    H130470   6.599   6.002   0.788 -2.6883 -0.3723  0.4279
 2993TIP3    H230471   6.513   6.122   0.825 -0.3519  1.8370 -0.9467
 2994TIP3   OH230472   5.687   0.354  11.100  0.3686  0.0887  0.6015
 2994TIP3    H130473   5.591   0.360  11.098  0.3717  0.1118  0.4996
 2994TIP3    H230474   5.716   0.424  11.041  0.4729  0.7112  1.3700
 2995TIP3   OH230475   0.647   6.419  13.965 -0.4285 -0.1293  0.2360
 2995TIP3    H130476   0.666   6.417  14.059 -1.3271  0.6682  0.4552
 2995TIP3    H230477   0.581   6.488  13.956 -1.0573 -0.8377 -0.8414
 2996TIP3   OH230478   6.527   2.135  15.246  0.2954 -0.3918 -0.1333
 2996TIP3    H130479   6.472   2.097  15.315  0.7871  1.1470  1.1674
 2996TIP3    H230480   6.474   2.203  15.207  0.5742 -0.2060 -0.1943
 2997TIP3   OH230481   6.604   3.833   0.202 -0.0286  0.0331  0.5661
 2997TIP3    H130482   6.607   3.835   0.298 -1.2084  0.7775  0.6068
 2997TIP3    H230483   6.596   3.925   0.176 -2.4597 -0.2867 -0.0916
 2998TIP3   OH230484   2.973   5.662  15.317  0.3756  0.2294 -1.1662
 2998TIP3    H130485   3.046   5.600  15.312  0.3260 -0.4291  2.8538
 2998TIP3    H230486   2.895   5.608  15.301  0.4186 -0.6372  1.1710
 2999TIP3   OH230487   0.591   2.928   3.479 -0.2060 -0.6688 -0.0136
 2999TIP3    H130488   0.685   2.914   3.468 -0.6442 -2.4232 -2.2193
 2999TIP3    H230489   0.552   2.841   3.473 -1.9464 -0.1358  1.9705
 3000TIP3   OH230490   4.734   0.078   2.871 -0.1395  0.1377  0.2065
 3000TIP3    H130491   4.759  -0.013   2.880  0.3137  0.1948 -0.3842
 3000TIP3    H230492   4.772   0.105   2.787 -0.3294  0.8451  0.3406
 3001TIP3   OH230493   3.798   5.193  11.166 -0.4963 -0.1834  0.0590
 3001TIP3    H130494   3.742   5.119  11.189 -0.5602  0.0887  0.8196
 3001TIP3    H230495   3.744   5.247  11.109 -0.6374 -0.4611 -0.0681
 3002TIP3   OH230496   4.911   6.190  15.682 -0.1710 -0.3811 -0.0214
 3002TIP3    H130497   4.973   6.206  15.611 -0.3086  0.3308  0.0153
 3002TIP3    H230498   4.963   6.151  15.752  0.5424  1.5126  0.5603
 3003TIP3   OH230499   0.633   5.824  10.517  0.3821 -0.4279 -0.6764
 3003TIP3    H130500   0.545   5.856  10.496 -0.0092 -0.0667  1.2952
 3003TIP3    H230501   0.619   5.757  10.584  1.4264 -2.6316 -2.5569
 3004TIP3   OH230502   0.121   6.079   1.813 -0.3770  0.2710 -0.5783
 3004TIP3    H130503   0.037   6.125   1.814 -1.3253 -1.3651  0.7603
 3004TIP3    H230504   0.117   6.024   1.735 -0.6837  0.0006 -0.3772
 3005TIP3   OH230505   4.023   3.349   1.290 -0.5810 -0.0442  0.0222
 3005TIP3    H130506   4.078   3.324   1.216 -0.9390  3.3415 -1.6186
 3005TIP3    H230507   4.081   3.345   1.366  0.1489 -2.4053 -0.5803
 3006TIP3   OH230508   6.328   4.947  15.690  0.5170 -0.6077 -0.4963
 3006TIP3    H130509   6.251   5.005  15.686  0.2605 -0.9123 -0.0467
 3006TIP3    H230510   6.395   5.000  15.733 -0.2518 -1.2078  1.5426
 3007TIP3   OH230511   0.540   5.273  16.261  0.3327 -0.3173  0.9201
 3007TIP3    H130512   0.532   5.366  16.282 -2.3247  0.3966 -2.3441
 3007TIP3    H230513   0.451   5.240  16.262  0.4805 -1.4118 -3.0112
 3008TIP3   OH230514   5.842   6.241   1.378 -0.3173  0.1518  0.0643
 3008TIP3    H130515   5.764   6.271   1.331 -0.9811 -0.0471  0.9938
 3008TIP3    H230516   5.896   6.319   1.389 -0.6920  0.4262 -0.0379
 3009TIP3   OH230517   4.711   3.422  11.836 -0.3984 -0.6156 -0.5947
 3009TIP3    H130518   4.709   3.440  11.930 -0.7811 -2.4458 -0.2120
 3009TIP3    H230519   4.704   3.508  11.795 -2.5381  0.0661  1.0319
 3010TIP3   OH230520   2.053   4.644  11.621  0.0921  0.0462 -0.2181
 3010TIP3    H130521   2.120   4.660  11.556 -0.1664 -1.1865 -0.8120
 3010TIP3    H230522   2.091   4.579  11.680  0.4405  1.3757  1.0656
 3011TIP3   OH230523   2.262   2.493   4.268 -0.0387 -0.2246  0.2991
 3011TIP3    H130524   2.271   2.439   4.347  1.0729 -0.0797  0.2855
 3011TIP3    H230525   2.193   2.451   4.218 -2.1913  0.7493  2.2115
 3012TIP3   OH230526   4.669   2.012  13.842  0.1715  0.1960 -0.3538
 3012TIP3    H130527   4.746   1.989  13.790  0.5341  0.5352  0.0279
 3012TIP3    H230528   4.689   2.098  13.879 -0.4400  0.3418 -0.3430
 3013TIP3   OH230529   4.583   0.905   2.438  0.5137  0.3278  0.1280
 3013TIP3    H130530   4.574   0.839   2.369  0.8835  0.8202 -0.4034
 3013TIP3    H230531   4.555   0.861   2.518 -2.1061  0.3842 -0.6573
 3014TIP3   OH230532   2.408   4.596  17.260 -0.3871 -0.7992  0.6649
 3014TIP3    H130533   2.366   4.622  17.179 -1.1565  0.5625  1.4556
 3014TIP3    H230534   2.361   4.645  17.328  1.5306 -0.3446  1.7258
 3015TIP3   OH230535   6.640   4.066   3.201 -0.6207  0.5332  0.0564
 3015TIP3    H130536   6.567   4.016   3.238 -0.6853  0.6773  0.1218
 3015TIP3    H230537   6.598   4.131   3.144 -0.4991 -0.0412 -0.6983
 3016TIP3   OH230538   2.192   5.760  13.909  0.1302  0.6704  0.3963
 3016TIP3    H130539   2.214   5.794  13.996  1.0471 -2.4467  1.5149
 3016TIP3    H230540   2.115   5.705  13.924 -1.9629  2.8492 -1.5311
 3017TIP3   OH230541   4.223   4.388   2.833  0.2386  0.3497  0.4990
 3017TIP3    H130542   4.219   4.297   2.803  2.0720  0.6887 -0.9533
 3017TIP3    H230543   4.279   4.385   2.910 -0.1389  0.1855  0.7702
 3018TIP3   OH230544   0.373   4.482  15.821 -0.9544  0.5826  0.1988
 3018TIP3    H130545   0.423   4.444  15.894  0.5253  1.4208 -0.3417
 3018TIP3    H230546   0.383   4.418  15.750  0.2805  1.2395 -0.2419
 3019TIP3   OH230547   4.046   0.468  15.846  0.1279  0.4132  0.0422
 3019TIP3    H130548   4.005   0.531  15.786  0.6631  0.1432 -0.6147
 3019TIP3    H230549   4.045   0.385  15.798 -0.9798 -0.2083  1.0788
 3020TIP3   OH230550   0.321   0.604  12.008 -0.2910  0.4972  0.5899
 3020TIP3    H130551   0.329   0.688  12.054 -1.8010  1.4621 -0.7758
 3020TIP3    H230552   0.233   0.573  12.031  0.3210 -0.8292  1.2196
 3021TIP3   OH230553   5.368   6.134   4.102 -0.1083 -0.2112  0.1880
 3021TIP3    H130554   5.282   6.160   4.134 -0.3614 -1.1828  0.3340
 3021TIP3    H230555   5.393   6.203   4.041 -0.4706  0.6798  1.0287
 3022TIP3   OH230556   6.396   5.766   4.182 -0.1447 -0.3316  0.4112
 3022TIP3    H130557   6.368   5.714   4.106  0.4716 -0.9801  0.6163
 3022TIP3    H230558   6.475   5.811   4.154 -1.2629  1.3899 -0.1196
 3023TIP3   OH230559   5.354   4.883   4.519  0.2017  0.1166  0.3108
 3023TIP3    H130560   5.273   4.833   4.514  0.3146  0.0382 -1.1666
 3023TIP3    H230561   5.382   4.875   4.610 -0.5880 -1.2106  0.4564
 3024TIP3   OH230562   1.475   0.063  15.159 -0.0918  0.7925 -0.0397
 3024TIP3    H130563   1.480   0.139  15.216 -2.0786  0.6393  0.4221
 3024TIP3    H230564   1.425   0.093  15.083  1.4162  0.6444 -1.1425
 3025TIP3   OH230565   4.084   6.578  12.944  0.0155 -0.6749  0.2844
 3025TIP3    H130566   4.025   6.554  12.873  1.7237 -0.7133 -1.2112
 3025TIP3    H230567   4.027   6.590  13.020 -2.0837  0.6331 -1.3658
 3026TIP3   OH230568   1.135   4.428   2.936  0.0367 -0.2445 -0.2500
 3026TIP3    H130569   1.094   4.346   2.962 -0.0550  0.7886  3.6049
 3026TIP3    H230570   1.069   4.495   2.958  1.8857  1.1133  1.4859
 3027TIP3   OH230571   4.356   4.769   0.143  0.5812  0.1372 -0.1194
 3027TIP3    H130572   4.376   4.733   0.229  0.7445  1.3285  0.3580
 3027TIP3    H230573   4.411   4.847   0.136  1.0273 -0.2701 -1.5580
 3028TIP3   OH230574   3.197   3.265  12.498 -0.1925 -0.1741 -0.1133
 3028TIP3    H130575   3.209   3.187  12.443 -2.1549 -0.7333  0.1578
 3028TIP3    H230576   3.236   3.241  12.582  0.8442 -0.1484 -0.5702
 3029TIP3   OH230577   5.795   5.425  13.367  0.1664 -0.2946 -0.3697
 3029TIP3    H130578   5.875   5.468  13.336  1.3557 -1.7096  0.5495
 3029TIP3    H230579   5.758   5.486  13.431  0.6341  0.2816 -0.6374
 3030TIP3   OH230580   3.148   3.716   4.576  0.3175 -0.4930  0.1011
 3030TIP3    H130581   3.169   3.626   4.603  0.2463 -0.1371  1.4288
 3030TIP3    H230582   3.229   3.764   4.592  0.1985 -0.2192 -0.1242
 3031TIP3   OH230583   2.368   5.612   3.500  0.5690 -0.3604  0.1508
 3031TIP3    H130584   2.442   5.642   3.447 -0.4745  1.5292 -0.3283
 3031TIP3    H230585   2.368   5.670   3.576 -1.7520  1.3024 -0.9950
 3032TIP3   OH230586   3.549   0.826  14.355  0.0131 -0.1975 -0.3946
 3032TIP3    H130587   3.562   0.921  14.363 -1.8954  0.0785  0.0068
 3032TIP3    H230588   3.609   0.799  14.286  0.9969  1.2041 -0.1359
 3033TIP3   OH230589   4.003   6.799  11.125 -0.1263 -0.8178  0.0268
 3033TIP3    H130590   3.915   6.837  11.127 -0.8915 -2.5082  1.2563
 3033TIP3    H230591   4.017   6.775  11.034 -1.5623 -1.8428  0.0485
 3034TIP3   OH230592   4.791   4.020  12.574 -0.7602 -0.1924  0.1589
 3034TIP3    H130593   4.753   4.071  12.645 -0.4041 -0.5259  0.5878
 3034TIP3    H230594   4.716   4.001  12.516 -1.1071 -0.1908  0.6024
 3035TIP3   OH230595   5.829   1.301   0.636  0.4465 -0.1104 -0.0619
 3035TIP3    H130596   5.813   1.208   0.623 -0.2453  0.0819 -0.6499
 3035TIP3    H230597   5.779   1.324   0.714  0.8331 -0.2870  0.2380
 3036TIP3   OH230598   6.559   0.448   4.542 -0.0777  0.2270  0.8567
 3036TIP3    H130599   6.489   0.400   4.498 -1.9881  2.0691  1.7181
 3036TIP3    H230600   6.522   0.472   4.627  1.6485  1.1576  1.3847
 3037TIP3   OH230601   2.722   3.844   0.019 -0.5411 -0.1308 -0.0327
 3037TIP3    H130602   2.677   3.875  -0.060 -0.1077 -1.7210 -0.9514
 3037TIP3    H230603   2.683   3.758   0.037  0.7524 -0.6766  0.2848
 3038TIP3   OH230604   6.480   0.560   6.130 -0.6024 -0.0612  0.7649
 3038TIP3    H130605   6.428   0.640   6.120  0.0821  0.3055  0.0570
 3038TIP3    H230606   6.416   0.493   6.155 -1.2272  0.6345  1.0701
 3039TIP3   OH230607   6.423   0.053   5.362 -0.1789 -0.3307 -0.0268
 3039TIP3    H130608   6.450   0.006   5.282  0.5432 -0.1277  0.0880
 3039TIP3    H230609   6.435   0.145   5.341 -0.7056 -0.2382  0.0669
 3040TIP3   OH230610   0.591   0.380   0.544  0.3998 -0.1187 -0.8057
 3040TIP3    H130611   0.589   0.470   0.577 -0.2330  0.6615 -2.7996
 3040TIP3    H230612   0.557   0.387   0.455 -2.0963 -2.7187 -0.1905
 3041TIP3   OH230613   5.497   6.134  15.355  0.2165 -0.2348 -0.1203
 3041TIP3    H130614   5.496   6.062  15.419 -0.6586  0.5088  0.7328
 3041TIP3    H230615   5.479   6.091  15.271  2.3994 -1.3749 -0.0835
 3042TIP3   OH230616   5.748   5.054  13.742  0.1712 -0.0593 -0.9083
 3042TIP3    H130617   5.679   5.083  13.682 -0.3375  1.4999  0.3546
 3042TIP3    H230618   5.828   5.095  13.708 -0.4569  2.6009  0.5669
 3043TIP3   OH230619   0.188   2.235   3.048  0.1736  0.2726  0.0747
 3043TIP3    H130620   0.202   2.218   2.955 -0.8898  1.4454 -0.3340
 3043TIP3    H230621   0.094   2.222   3.062 -0.3449  3.3632  0.1726
 3044TIP3   OH230622   4.926   1.287   2.810  0.5239  0.2867 -0.0062
 3044TIP3    H130623   4.870   1.248   2.742  2.1104  2.4416 -2.7667
 3044TIP3    H230624   4.900   1.379   2.812  1.6266  0.5896  1.1893
 3045TIP3   OH230625   6.124   6.787  15.742 -0.0317 -0.0965 -0.0180
 3045TIP3    H130626   6.164   6.699  15.743 -0.0184 -0.0996 -0.6447
 3045TIP3    H230627   6.144   6.823  15.828  2.4200  0.3800 -0.7026
 3046TIP3   OH230628   6.760   1.254  13.203  0.2737 -0.2126 -0.0821
 3046TIP3    H130629   6.796   1.221  13.285  1.7358  0.7233 -0.3173
 3046TIP3    H230630   6.673   1.214  13.198  0.1910 -0.3761  1.8548
 3047TIP3   OH230631   1.422   5.135  13.628 -0.1729 -0.3144 -0.5234
 3047TIP3    H130632   1.436   5.076  13.554 -1.1689 -0.3401 -0.6976
 3047TIP3    H230633   1.431   5.080  13.705  0.1689 -0.4273 -0.6404
 3048TIP3   OH230634   6.528   4.389   2.778  0.2735 -0.2163  0.0993
 3048TIP3    H130635   6.475   4.447   2.723  1.6239 -0.2358 -1.3137
 3048TIP3    H230636   6.616   4.427   2.775  0.7246 -1.1603  0.9038
 3049TIP3   OH230637   6.406   4.308  11.704 -0.8090 -0.2800  0.1163
 3049TIP3    H130638   6.344   4.238  11.722  0.0516 -0.6011  2.0796
 3049TIP3    H230639   6.372   4.351  11.625 -3.0052 -0.9981  0.6084
 3050TIP3   OH230640   0.214   3.591  15.896 -0.0266  0.2506 -0.0787
 3050TIP3    H130641   0.179   3.526  15.956  1.5085 -0.6847 -0.1553
 3050TIP3    H230642   0.195   3.557  15.809 -0.8745  0.8476 -0.1415
 3051TIP3   OH230643   4.878   2.699  14.263 -0.2574  0.2887 -0.2273
 3051TIP3    H130644   4.860   2.605  14.257  2.2370 -0.2593 -0.1990
 3051TIP3    H230645   4.899   2.713  14.355 -0.4501  0.8478 -0.2657
 3052TIP3   OH230646   0.182   6.477   1.498  0.0248  0.4759  0.2064
 3052TIP3    H130647   0.089   6.491   1.484 -0.0310  0.6096  0.6945
 3052TIP3    H230648   0.212   6.433   1.418 -0.3142  1.0434 -0.2377
 3053TIP3   OH230649   3.713   5.673   0.035 -0.9981  0.0177 -0.4290
 3053TIP3    H130650   3.718   5.596   0.092 -3.2487  0.3064  0.2522
 3053TIP3    H230651   3.633   5.660  -0.016 -0.6875  1.2742 -1.2784
 3054TIP3   OH230652   1.854   1.167   0.597  0.4715  0.2640  0.0372
 3054TIP3    H130653   1.842   1.163   0.692  0.5170 -0.3883  0.0213
 3054TIP3    H230654   1.808   1.246   0.571 -1.6064 -0.7981  0.3050
 3055TIP3   OH230655   3.276   1.579   5.080 -0.0533 -0.0229  0.8104
 3055TIP3    H130656   3.328   1.499   5.070 -0.7302 -0.4173  0.3250
 3055TIP3    H230657   3.332   1.648   5.045 -0.1230 -0.5527 -0.4038
 3056TIP3   OH230658   2.740   3.716  13.238  0.5192  0.5295  0.3778
 3056TIP3    H130659   2.652   3.750  13.255  0.4248  0.9291 -0.7932
 3056TIP3    H230660   2.784   3.788  13.191  0.9516 -0.2352 -0.4195
 3057TIP3   OH230661   2.021   0.601   2.748 -0.7822 -0.4479 -0.4733
 3057TIP3    H130662   2.065   0.640   2.672 -0.9261  0.5155 -0.0825
 3057TIP3    H230663   1.934   0.578   2.716 -0.6087 -0.6965 -0.7769
 3058TIP3   OH230664   5.504   2.188  13.764 -0.1890 -0.3739 -0.7712
 3058TIP3    H130665   5.559   2.112  13.783 -0.7611 -0.9214 -1.2903
 3058TIP3    H230666   5.556   2.239  13.702  0.1195 -0.4292 -0.5618
 3059TIP3   OH230667   0.645   0.964   3.138 -0.0877  0.2505  0.0093
 3059TIP3    H130668   0.709   0.971   3.209  1.1290 -0.1267 -1.0087
 3059TIP3    H230669   0.619   0.872   3.139 -0.4090  0.3445  0.2524
 3060TIP3   OH230670   2.589   6.037  13.254  0.1442  0.2035  0.0814
 3060TIP3    H130671   2.597   5.941  13.250 -0.5029  0.1560 -0.3901
 3060TIP3    H230672   2.599   6.058  13.346  2.1795 -0.1227 -0.0342
 3061TIP3   OH230673   1.821   5.702  15.288  0.0150 -0.0475  0.5243
 3061TIP3    H130674   1.807   5.784  15.336  0.8420 -0.3788  1.3692
 3061TIP3    H230675   1.779   5.716  15.203 -0.2961  1.0601  0.8451
 3062TIP3   OH230676   1.961   0.834   1.723 -0.2342 -0.0105 -0.1743
 3062TIP3    H130677   1.885   0.843   1.665  0.1222  1.2863 -0.4762
 3062TIP3    H230678   1.923   0.825   1.810 -0.7475  0.3950 -0.3513
 3063TIP3   OH230679   4.846   1.954   3.763  0.1167 -0.3648 -0.2890
 3063TIP3    H130680   4.831   1.882   3.701  0.6060 -0.3865 -0.3866
 3063TIP3    H230681   4.797   2.027   3.726 -0.9601 -0.8294  0.1753
 3064TIP3   OH230682   1.392   2.854   4.395 -0.4749 -0.4108  0.6235
 3064TIP3    H130683   1.401   2.946   4.369 -0.4832 -0.4038  0.6461
 3064TIP3    H230684   1.298   2.840   4.401 -0.4673 -0.3552  0.8623
 3065TIP3   OH230685   2.873   5.028   2.453  0.5888 -0.1745  0.1112
 3065TIP3    H130686   2.832   5.104   2.411  0.2231  0.6348  1.8336
 3065TIP3    H230687   2.926   4.988   2.385  0.2204  1.2240 -1.0334
 3066TIP3   OH230688   1.151   6.492  13.493 -0.3309 -0.7439 -0.4282
 3066TIP3    H130689   1.184   6.579  13.518  2.2001 -1.3900 -1.2217
 3066TIP3    H230690   1.139   6.446  13.576 -1.2206  0.1883 -0.0216
 3067TIP3   OH230691   0.399   0.149   2.410  0.2494  0.4541  0.0854
 3067TIP3    H130692   0.413   0.055   2.398  0.4900  0.6207 -1.0429
 3067TIP3    H230693   0.331   0.155   2.477  2.8228 -0.4611  3.0723
 3068TIP3   OH230694   2.925   4.105  16.070 -0.2504 -0.3325  0.3486
 3068TIP3    H130695   2.987   4.178  16.070 -0.6214 -0.0158  0.3545
 3068TIP3    H230696   2.901   4.093  16.162 -0.5463 -0.1526  0.2971
 3069TIP3   OH230697   6.480   4.412  15.971 -0.1411 -0.9733 -0.0321
 3069TIP3    H130698   6.441   4.362  16.043  0.4866 -1.3668  0.0474
 3069TIP3    H230699   6.429   4.493  15.968 -1.1037 -1.5655 -0.0925
 3070TIP3   OH230700   4.389   2.623  15.767 -0.0511  0.1536  0.2922
 3070TIP3    H130701   4.434   2.674  15.834  0.4995 -1.3357  1.0755
 3070TIP3    H230702   4.367   2.688  15.700  1.4078  1.2820  0.8443
 3071TIP3   OH230703   0.230   1.885  14.439  0.4246  0.3335 -0.4460
 3071TIP3    H130704   0.312   1.862  14.395 -0.0784 -0.6475 -0.9096
 3071TIP3    H230705   0.198   1.962  14.392 -1.2258 -1.9371 -3.4160
 3072TIP3   OH230706   2.027   1.953   2.815  0.9532  0.2374  0.6875
 3072TIP3    H130707   2.082   1.880   2.844 -1.5577 -2.9108 -1.6990
 3072TIP3    H230708   1.956   1.957   2.880 -0.0513 -0.9724 -0.2983
 3073TIP3   OH230709   4.486   3.310   5.181 -0.6801  0.1664 -0.2856
 3073TIP3    H130710   4.535   3.287   5.102 -0.1031  0.5447 -0.0441
 3073TIP3    H230711   4.468   3.403   5.173  3.3710  1.3877  2.0699
 3074TIP3   OH230712   6.428   4.843  10.743 -0.2447 -0.0096  0.3876
 3074TIP3    H130713   6.434   4.937  10.757  2.2711  0.0970 -0.8968
 3074TIP3    H230714   6.347   4.831  10.692 -0.6571  1.4041  0.6616
 3075TIP3   OH230715   2.279   2.863  11.742  0.3579 -0.1609 -0.1901
 3075TIP3    H130716   2.283   2.803  11.667  0.1486  0.8773 -1.0609
 3075TIP3    H230717   2.202   2.917  11.725 -0.1736 -0.4510  1.2092
 3076TIP3   OH230718   5.318   3.147  14.851  0.1993 -0.0430  0.1179
 3076TIP3    H130719   5.300   3.187  14.767 -0.5886  1.0642  0.7969
 3076TIP3    H230720   5.367   3.067  14.829 -2.2535 -1.1932 -1.5460
 3077TIP3   OH230721   6.221   5.159   1.632  0.0852 -0.2439 -0.4292
 3077TIP3    H130722   6.150   5.205   1.677 -0.5381 -1.2476 -0.3647
 3077TIP3    H230723   6.297   5.217   1.642 -0.6079  0.6389 -0.1172
 3078TIP3   OH230724   3.774   3.714   1.689 -0.0307 -0.1117  0.1435
 3078TIP3    H130725   3.815   3.677   1.768  0.7652 -0.9992 -0.6415
 3078TIP3    H230726   3.817   3.667   1.617  0.6080  1.9724 -0.9050
 3079TIP3   OH230727   1.292   3.770   3.739 -0.1280  0.2003  0.1700
 3079TIP3    H130728   1.209   3.803   3.706 -0.8623  1.4326  2.9888
 3079TIP3    H230729   1.267   3.697   3.797  0.6967  0.6076  1.0698
 3080TIP3   OH230730   0.623   2.345   2.334  0.5053 -0.1654 -0.0967
 3080TIP3    H130731   0.628   2.415   2.268  1.6056  0.7514  0.9212
 3080TIP3    H230732   0.688   2.281   2.307  0.0250 -0.4410 -0.6171
 3081TIP3   OH230733   2.300   6.447   6.467 -0.6694 -0.2622 -0.8502
 3081TIP3    H130734   2.269   6.364   6.503  1.5612 -0.9493 -0.3945
 3081TIP3    H230735   2.306   6.431   6.373  1.5620 -1.2927 -0.5707
 3082TIP3   OH230736   0.348   0.265  17.174 -0.8165  0.0495  0.0215
 3082TIP3    H130737   0.262   0.223  17.184 -0.1820 -1.2917  0.0819
 3082TIP3    H230738   0.341   0.346  17.225 -1.8075 -0.4014  0.6394
 3083TIP3   OH230739   2.878   1.253  12.097 -0.3153  0.1111  0.4574
 3083TIP3    H130740   2.936   1.314  12.143  1.1070  0.2406 -1.3809
 3083TIP3    H230741   2.924   1.169  12.102 -1.3620 -0.4206  1.3826
 3084TIP3   OH230742   0.642   6.392   2.140 -0.2291 -0.1697  0.1726
 3084TIP3    H130743   0.554   6.429   2.144  0.1116  0.6690  0.0803
 3084TIP3    H230744   0.662   6.366   2.231 -0.7696 -0.8603  0.1006
 3085TIP3   OH230745   5.287   4.808   3.201 -0.2838 -0.2419  0.3548
 3085TIP3    H130746   5.234   4.760   3.264  0.4837 -2.7471 -0.7752
 3085TIP3    H230747   5.243   4.795   3.117  0.4814  0.2221 -0.1397
 3086TIP3   OH230748   2.620   0.381   2.022 -0.1082 -0.7871  0.3590
 3086TIP3    H130749   2.646   0.473   2.027  0.5078 -0.9563  0.3187
 3086TIP3    H230750   2.532   0.383   1.984  0.0588 -0.2375 -0.0124
 3087TIP3   OH230751   6.446   3.859  14.960 -0.7804  0.0742  0.0859
 3087TIP3    H130752   6.450   3.921  14.887 -1.2356  1.2263  1.0172
 3087TIP3    H230753   6.487   3.904  15.033 -3.6816  0.5007  1.5968
 3088TIP3   OH230754   0.571   0.929   2.325 -0.9277  0.5697 -0.4886
 3088TIP3    H130755   0.644   0.948   2.383 -0.9275  0.4062 -0.4352
 3088TIP3    H230756   0.509   1.000   2.340 -1.0034  0.4378 -0.1639
 3089TIP3   OH230757   4.040   4.523  13.504  0.1221 -0.1324 -0.3989
 3089TIP3    H130758   3.959   4.471  13.513  1.5846 -2.4266  0.3632
 3089TIP3    H230759   4.050   4.565  13.590 -1.1292  1.6417 -1.0553
 3090TIP3   OH230760   5.207   4.477  12.870  0.0484 -0.2349 -0.1636
 3090TIP3    H130761   5.247   4.397  12.904 -0.3045 -0.9952 -1.4736
 3090TIP3    H230762   5.281   4.531  12.841  0.5264  1.2562  3.3049
 3091TIP3   OH230763   0.597   2.547  16.472 -0.0349  0.3257 -0.2669
 3091TIP3    H130764   0.507   2.577  16.458  0.4958  2.1803  0.0400
 3091TIP3    H230765   0.587   2.462  16.515 -1.7592  1.9892  3.1011
 3092TIP3   OH230766   5.903   1.490   0.026  0.6094  0.3615  0.7728
 3092TIP3    H130767   5.974   1.428   0.042  3.1646  2.9067  0.2622
 3092TIP3    H230768   5.879   1.477  -0.065  0.2667 -0.6250  0.9916
 3093TIP3   OH230769   5.999   1.277   5.003  0.6639  0.3625  0.2067
 3093TIP3    H130770   6.010   1.339   4.931  1.0523  0.7537  0.5955
 3093TIP3    H230771   5.905   1.256   5.003  0.5721  0.7687 -0.0783
 3094TIP3   OH230772   6.454   1.244  17.219  0.6896  0.1439 -0.2546
 3094TIP3    H130773   6.483   1.191  17.293  3.0202 -0.4119 -1.4686
 3094TIP3    H230774   6.379   1.294  17.253 -0.5277 -2.5998  1.4361
 3095TIP3   OH230775   1.005   4.069  11.836 -0.1134 -0.2106  0.8253
 3095TIP3    H130776   0.937   4.097  11.776 -0.6617 -1.6576  0.7328
 3095TIP3    H230777   0.958   4.029  11.909  0.5733  0.7306  1.8271
 3096TIP3   OH230778   1.989   5.867  15.949  0.0382 -0.2085  0.0147
 3096TIP3    H130779   2.079   5.868  15.981  0.7037  1.6466 -1.7023
 3096TIP3    H230780   1.941   5.921  16.011  0.9013  1.7334 -0.9173
 3097TIP3   OH230781   0.576   5.734   1.319  0.1994  0.0409  0.2770
 3097TIP3    H130782   0.600   5.822   1.290 -0.2455  0.0546 -0.0745
 3097TIP3    H230783   0.657   5.683   1.313  0.3327  0.2872 -0.0706
 3098TIP3   OH230784   1.938   5.141  12.160 -0.7857 -0.4447  0.1678
 3098TIP3    H130785   1.847   5.168  12.169 -0.7541 -0.3941  0.3383
 3098TIP3    H230786   1.941   5.095  12.077 -1.4752 -2.4365  1.1756
 3099TIP3   OH230787   4.500   3.469  14.938  0.7939  0.7762  0.2854
 3099TIP3    H130788   4.543   3.397  14.984  0.9557 -0.0542 -1.1115
 3099TIP3    H230789   4.437   3.427  14.880 -0.5451  1.8821  0.8617
 3100TIP3   OH230790   0.404   3.095  14.985 -0.0306 -0.3219  0.2096
 3100TIP3    H130791   0.340   3.033  15.021 -0.8870  1.1568  1.3816
 3100TIP3    H230792   0.456   3.122  15.061  0.2014  0.5207 -0.2400
 3101TIP3   OH230793   2.664   3.270  13.318 -0.0338 -0.3209  0.7329
 3101TIP3    H130794   2.722   3.317  13.378 -2.8048  2.7999  1.2920
 3101TIP3    H230795   2.705   3.282  13.232  0.5108  1.2761  1.1679
 3102TIP3   OH230796   3.727   0.583   1.005  0.1864  0.1565  0.0120
 3102TIP3    H130797   3.650   0.550   0.959 -0.1841 -1.4371  1.6437
 3102TIP3    H230798   3.692   0.626   1.083  0.8700  1.0621 -0.1718
 3103TIP3   OH230799   1.377   0.137  12.027  0.1087  0.7140  0.1621
 3103TIP3    H130800   1.434   0.085  11.971  0.6815  2.6490 -1.1507
 3103TIP3    H230801   1.289   0.101  12.012  0.3764  0.6186 -1.3432
 3104TIP3   OH230802   4.632   2.433  12.574 -0.6486  0.2851  0.2766
 3104TIP3    H130803   4.630   2.524  12.545 -0.1870 -0.4631 -2.3564
 3104TIP3    H230804   4.723   2.418  12.599 -0.3673  0.1481 -0.7870
 3105TIP3   OH230805   2.413   5.198  12.853 -1.3018 -0.0966  0.0165
 3105TIP3    H130806   2.359   5.271  12.825  1.5316  1.4339 -1.9859
 3105TIP3    H230807   2.390   5.126  12.793  0.5153  1.3325 -2.5826
 3106TIP3   OH230808   4.023   5.303   2.755 -0.8322  0.9172 -0.0314
 3106TIP3    H130809   4.054   5.215   2.777 -0.3336  0.7529 -1.2561
 3106TIP3    H230810   3.929   5.294   2.743 -0.8213  0.6061  0.1208
 3107TIP3   OH230811   6.234   5.031  17.154 -0.0029 -0.5415  0.5867
 3107TIP3    H130812   6.255   5.122  17.176  1.1346 -0.0706 -2.0028
 3107TIP3    H230813   6.138   5.028  17.153 -0.1379  1.4442 -1.8552
 3108TIP3   OH230814   0.845   0.830  17.203  0.0779 -0.5320 -0.4768
 3108TIP3    H130815   0.790   0.906  17.182  1.9710  0.7491 -1.0630
 3108TIP3    H230816   0.886   0.852  17.286  1.1985 -0.5310 -1.0004
 3109TIP3   OH230817   1.975   1.955   3.109 -0.3221  0.7246 -0.2423
 3109TIP3    H130818   1.886   1.976   3.136 -0.1139  1.5956 -0.1949
 3109TIP3    H230819   2.018   2.041   3.100  0.5756  0.3091 -0.0307
 3110TIP3   OH230820   3.033   0.569  11.206 -0.7179  0.4967 -0.2082
 3110TIP3    H130821   3.094   0.501  11.177  0.8095  2.1824 -1.1333
 3110TIP3    H230822   2.971   0.578  11.134  0.6173  1.8072 -1.2572
 3111TIP3   OH230823   2.687   2.181   2.299 -0.3007 -0.0825 -0.0385
 3111TIP3    H130824   2.676   2.272   2.270 -0.3653  0.2814  1.1022
 3111TIP3    H230825   2.777   2.159   2.275  0.0856  0.6681  0.6918
 3112TIP3   OH230826   2.478   2.654   0.832  0.2580 -0.2007  0.1676
 3112TIP3    H130827   2.505   2.656   0.740  1.7057 -2.6680  0.4401
 3112TIP3    H230828   2.519   2.731   0.871 -0.6426  1.0595 -1.2843
 3113TIP3   OH230829   4.763   5.580   2.328 -0.4653  0.5273  0.5564
 3113TIP3    H130830   4.800   5.644   2.388 -2.0009  1.0541  0.9906
 3113TIP3    H230831   4.759   5.625   2.244 -0.8072  0.7267  0.6791
 3114TIP3   OH230832   2.216   3.344   1.571 -0.7165 -0.4213 -0.0019
 3114TIP3    H130833   2.259   3.357   1.486 -0.7584 -2.7983 -0.4478
 3114TIP3    H230834   2.126   3.374   1.556 -0.5088 -0.0207 -0.5226
 3115TIP3   OH230835   1.345   6.080  14.685 -0.0129 -0.2305  0.6453
 3115TIP3    H130836   1.352   6.001  14.739 -0.5485 -1.2032 -0.6486
 3115TIP3    H230837   1.277   6.058  14.621  0.6494  0.8578 -0.4531
 3116TIP3   OH230838   3.190   5.041   6.118 -0.2386  0.0278  0.5042
 3116TIP3    H130839   3.165   4.949   6.122 -0.4885 -0.0471 -1.5610
 3116TIP3    H230840   3.268   5.048   6.172  0.6644 -1.7380 -0.4906
 3117TIP3   OH230841   5.758   2.244   3.600  0.2364 -0.3307  0.1311
 3117TIP3    H130842   5.740   2.264   3.692  2.5780 -2.4480  1.1816
 3117TIP3    H230843   5.783   2.329   3.562 -1.9310  0.8023  1.0700
 3118TIP3   OH230844   1.579   1.392  13.505  0.3230  0.1875 -0.2354
 3118TIP3    H130845   1.503   1.361  13.456 -0.5455 -2.6531  2.5806
 3118TIP3    H230846   1.566   1.487  13.512 -2.4931 -0.0807 -0.6847
 3119TIP3   OH230847   2.628   0.450  16.606 -0.1864 -0.5419  0.0471
 3119TIP3    H130848   2.580   0.424  16.527  0.3566 -0.6342 -0.2564
 3119TIP3    H230849   2.592   0.395  16.675  0.1182 -1.2615 -0.3587
 3120TIP3   OH230850   3.164   3.231  14.840 -0.1428  0.2247  0.0569
 3120TIP3    H130851   3.230   3.273  14.896 -0.2833  0.4790  0.0349
 3120TIP3    H230852   3.195   3.141  14.829 -0.9466 -0.3293  1.8989
 3121TIP3   OH230853   6.502   5.724  14.839  0.7082  0.2083  0.1618
 3121TIP3    H130854   6.594   5.699  14.829  0.6049  0.1870 -0.8241
 3121TIP3    H230855   6.504   5.799  14.898  1.3708  0.2895  0.0445
 3122TIP3   OH230856   4.374   1.133  14.420  0.0847 -0.0267  0.1425
 3122TIP3    H130857   4.376   1.116  14.325  2.0980  0.0092  0.1459
 3122TIP3    H230858   4.434   1.068  14.457  0.0112  0.5505  1.3065
 3123TIP3   OH230859   5.134   1.464   1.570  0.0411  0.0358  0.3494
 3123TIP3    H130860   5.218   1.430   1.539 -1.6059 -2.0824 -2.2554
 3123TIP3    H230861   5.072   1.393   1.555 -2.6015  2.1949  0.2436
 3124TIP3   OH230862   3.103   1.792  16.664  0.5122  0.0566 -0.0156
 3124TIP3    H130863   3.194   1.819  16.672  0.6161 -0.4855  0.8148
 3124TIP3    H230864   3.101   1.702  16.697 -0.3390  0.1107  0.1258
 3125TIP3   OH230865   0.730   5.066   4.590 -0.2262 -0.4151  0.0264
 3125TIP3    H130866   0.768   4.978   4.596 -0.3659 -0.3996  1.6193
 3125TIP3    H230867   0.792   5.116   4.539 -0.4805 -1.6062 -1.5133
 3126TIP3   OH230868   3.738   3.983  14.103  0.1757 -0.0667 -0.1652
 3126TIP3    H130869   3.656   3.936  14.090  1.2140 -2.5159  1.4693
 3126TIP3    H230870   3.804   3.929  14.059  1.0312  1.6304 -1.0646
 3127TIP3   OH230871   2.431   0.815  13.259  0.1472 -0.4681 -0.7965
 3127TIP3    H130872   2.486   0.788  13.185  0.0360 -0.9483 -0.7082
 3127TIP3    H230873   2.343   0.786  13.235 -0.2051  0.8586 -1.2303
 3128TIP3   OH230874   6.502   0.088  15.647  0.2261 -0.2346 -0.0746
 3128TIP3    H130875   6.456   0.112  15.728 -1.4207 -0.1943 -0.9752
 3128TIP3    H230876   6.538   0.001  15.665 -0.7818 -0.5592  0.4465
 3129TIP3   OH230877   0.766   2.896   0.338  0.3289 -0.7778  0.0005
 3129TIP3    H130878   0.720   2.917   0.257  1.1131 -0.9263 -0.4869
 3129TIP3    H230879   0.772   2.980   0.384  0.3450 -0.5955 -0.3296
 3130TIP3   OH230880   5.175   5.966  16.663 -0.1582  0.2209 -0.1760
 3130TIP3    H130881   5.213   6.045  16.701  0.2713  0.3025 -0.7524
 3130TIP3    H230882   5.169   5.985  16.569 -0.2013 -0.3684 -0.2980
 3131TIP3   OH230883   1.526   2.254  17.082  0.6203 -0.0998 -0.1453
 3131TIP3    H130884   1.546   2.245  17.175 -0.7625 -0.0424  0.1718
 3131TIP3    H230885   1.604   2.218  17.038  1.4235  0.1618  1.0107
 3132TIP3   OH230886   6.268   5.281   4.749  0.6731 -0.7645 -0.3926
 3132TIP3    H130887   6.208   5.207   4.740  0.5945 -0.7761  0.1383
 3132TIP3    H230888   6.246   5.319   4.834  0.1020  0.4177 -1.0468
 3133TIP3   OH230889   2.916   0.408  16.565  0.2911 -0.3083 -0.0810
 3133TIP3    H130890   2.851   0.467  16.527 -0.7420 -0.9365  0.6538
 3133TIP3    H230891   2.872   0.323  16.568  0.6865 -0.4933  1.5499
 3134TIP3   OH230892   6.334   0.377  16.349 -0.6720  0.5295  0.0355
 3134TIP3    H130893   6.391   0.302  16.331 -2.8309 -1.0447 -0.6599
 3134TIP3    H230894   6.358   0.441  16.282  1.7268  0.8448  1.0979
 3135TIP3   OH230895   5.027   1.889   0.100  0.7804  0.1594  0.6636
 3135TIP3    H130896   5.017   1.835   0.021 -0.3252  2.6053 -1.0166
 3135TIP3    H230897   4.939   1.894   0.136  0.4751  2.1829 -0.2393
 3136TIP3   OH230898   1.295   1.257  14.698  0.3825  0.0896  0.2016
 3136TIP3    H130899   1.269   1.349  14.701  1.8511  0.5338  0.0918
 3136TIP3    H230900   1.299   1.236  14.605 -2.3400 -0.8377  0.2289
 3137TIP3   OH230901   0.479   2.940  13.598 -0.9185 -0.1061  0.7428
 3137TIP3    H130902   0.500   2.987  13.517  0.6114 -2.7337 -0.5194
 3137TIP3    H230903   0.515   2.995  13.668  0.7850  0.6214 -0.6281
 3138TIP3   OH230904   5.816   0.997  10.427 -0.6232 -0.3639 -0.4111
 3138TIP3    H130905   5.773   0.967  10.507 -0.1067 -2.9159 -1.0153
 3138TIP3    H230906   5.760   1.068  10.395 -1.9662 -0.6851  1.0952
 3139TIP3   OH230907   5.961   3.790   2.350  0.0989  0.4535  0.3149
 3139TIP3    H130908   5.908   3.723   2.393  0.2702 -0.5179 -0.9331
 3139TIP3    H230909   6.050   3.773   2.380 -0.0071  0.8204  0.8478
 3140TIP3   OH230910   0.858   4.212   3.253  0.0453  0.2437  0.5307
 3140TIP3    H130911   0.791   4.146   3.234  1.5692 -0.9152 -1.0325
 3140TIP3    H230912   0.833   4.288   3.200  0.5337 -0.5867 -0.9481
 3141TIP3   OH230913   5.302   0.471   3.062 -0.8530 -0.3383 -0.0563
 3141TIP3    H130914   5.268   0.415   2.993 -0.9610 -1.1809  0.6608
 3141TIP3    H230915   5.397   0.468   3.051 -0.8295 -1.1060  0.3023
 3142TIP3   OH230916   0.559   5.302  11.484  0.8826  0.1411  0.3452
 3142TIP3    H130917   0.539   5.212  11.509 -0.9913  0.7855  1.3827
 3142TIP3    H230918   0.654   5.308  11.490  1.0956 -1.9012 -0.2703
 3143TIP3   OH230919   0.324   3.916  16.082 -0.2504 -0.2352 -0.0471
 3143TIP3    H130920   0.354   4.007  16.074 -0.4988 -0.1354  0.1241
 3143TIP3    H230921   0.401   3.867  16.111 -0.0788 -0.1035 -0.2845
 3144TIP3   OH230922   3.701   0.765  12.243  0.1168 -0.5128 -0.0747
 3144TIP3    H130923   3.760   0.789  12.314  0.3052  0.5339 -0.5609
 3144TIP3    H230924   3.710   0.670  12.234  0.5135 -0.5733  0.9165
 3145TIP3   OH230925   1.691   3.992  13.377 -0.0966 -0.4431  0.6673
 3145TIP3    H130926   1.596   3.986  13.367 -0.0769  1.9479 -3.4265
 3145TIP3    H230927   1.703   4.045  13.455 -2.0291 -1.6530  1.8671
 3146TIP3   OH230928   6.582   0.673   0.219  0.0775 -0.1160  0.1046
 3146TIP3    H130929   6.550   0.706   0.135 -1.6953  0.0212  0.7834
 3146TIP3    H230930   6.676   0.694   0.219  0.0623  0.1125 -1.7057
 3147TIP3   OH230931   5.674   5.841  12.691  0.0322  0.1480  0.4708
 3147TIP3    H130932   5.725   5.788  12.629  0.9548  1.2653  0.2359
 3147TIP3    H230933   5.638   5.777  12.752  1.2630 -0.7581  0.3098
 3148TIP3   OH230934   3.739   2.288  15.796 -0.7441  0.4204 -0.6721
 3148TIP3    H130935   3.645   2.283  15.812 -0.5853  0.5864  0.3356
 3148TIP3    H230936   3.778   2.305  15.882  0.1848  0.6326 -1.1182
 3149TIP3   OH230937   5.191   5.487   3.175  0.1763 -0.5406  0.3656
 3149TIP3    H130938   5.104   5.488   3.135 -0.7471  1.2313  2.2122
 3149TIP3    H230939   5.214   5.580   3.183  2.0969 -0.9698  0.2717
 3150TIP3   OH230940   4.285   1.378   3.230 -0.4495 -0.2942  0.1011
 3150TIP3    H130941   4.337   1.456   3.251  0.3435 -1.0349  1.0143
 3150TIP3    H230942   4.195   1.402   3.252 -0.1948  0.3201  0.5027
 3151TIP3   OH230943   1.001   0.866  11.451 -0.0885 -0.2243 -0.2173
 3151TIP3    H130944   0.997   0.795  11.386 -1.2041 -0.2768 -0.1029
 3151TIP3    H230945   0.914   0.906  11.449  0.3284  0.7301  0.1917
 3152TIP3   OH230946   5.070   3.554   1.390 -0.4117  0.3597  0.2171
 3152TIP3    H130947   5.123   3.475   1.391  0.9354  1.2343  0.3546
 3152TIP3    H230948   4.993   3.530   1.339  1.0311 -0.4055 -1.7389
 3153TIP3   OH230949   4.223   2.681   2.186  0.4169 -0.2759  0.4593
 3153TIP3    H130950   4.186   2.603   2.229 -0.0904 -0.7937 -0.8595
 3153TIP3    H230951   4.285   2.716   2.250  1.4604 -2.3714  0.7174
 3154TIP3   OH230952   5.113   6.291  13.593  0.1163 -0.4738  0.2789
 3154TIP3    H130953   5.069   6.206  13.606  0.4752 -0.6822  0.1510
 3154TIP3    H230954   5.182   6.272  13.529 -0.0346 -0.0037 -0.0243
 3155TIP3   OH230955   5.736   1.153   5.052  0.8236 -0.3343  0.3696
 3155TIP3    H130956   5.788   1.129   5.129  0.2068 -0.8452  0.6331
 3155TIP3    H230957   5.654   1.187   5.088 -0.1810 -2.1786 -0.0436
 3156TIP3   OH230958   0.321   3.962   6.307  0.2516 -0.2190  0.3876
 3156TIP3    H130959   0.303   3.939   6.216  1.5687  2.2882 -0.6241
 3156TIP3    H230960   0.239   3.945   6.354 -0.3200 -1.9733 -1.1404
 3157TIP3   OH230961   2.339   0.660  15.176  0.5210 -0.1863  0.1807
 3157TIP3    H130962   2.379   0.737  15.217  1.5009 -0.4883 -0.1733
 3157TIP3    H230963   2.305   0.608  15.249  1.1620 -0.1247  0.5299
 3158TIP3   OH230964   2.875   4.105   5.121 -0.1376  0.3111  0.1692
 3158TIP3    H130965   2.809   4.139   5.182 -0.3705 -0.2812  0.2552
 3158TIP3    H230966   2.936   4.057   5.177  0.9075  1.6381  0.2153
 3159TIP3   OH230967   5.133   3.613  12.292 -0.1239  0.1078 -0.2485
 3159TIP3    H130968   5.188   3.650  12.361 -2.0405 -1.2881  2.2152
 3159TIP3    H230969   5.184   3.540  12.257  0.2755 -0.1830  0.8824
 3160TIP3   OH230970   6.248   3.228   6.024  0.8651 -0.3061  0.5408
 3160TIP3    H130971   6.293   3.305   5.989 -2.3496  1.4936 -0.0948
 3160TIP3    H230972   6.224   3.178   5.946 -1.3758  0.7663  0.4454
 3161TIP3   OH230973   3.855   4.297   3.946  0.1376  0.2204  0.8317
 3161TIP3    H130974   3.876   4.268   3.857 -1.5388  0.4489  0.3294
 3161TIP3    H230975   3.793   4.232   3.979 -1.7775  1.8058  0.5942
 3162TIP3   OH230976   3.546   6.261   0.028 -0.5663 -0.5941 -0.4044
 3162TIP3    H130977   3.494   6.181   0.020 -0.5204 -0.5707 -0.9780
 3162TIP3    H230978   3.562   6.269   0.122  2.7315 -3.3981 -0.5028
 3163TIP3   OH230979   4.003   2.659  14.567  0.5431 -0.5418  0.2052
 3163TIP3    H130980   4.035   2.620  14.649 -0.2279 -0.9044  0.3419
 3163TIP3    H230981   3.983   2.584  14.511 -1.5368 -0.4142  0.6880
 3164TIP3   OH230982   1.292   1.857   0.465 -0.2469 -0.2777  0.6195
 3164TIP3    H130983   1.240   1.799   0.409  0.6296 -0.8962  0.4350
 3164TIP3    H230984   1.302   1.809   0.547  0.1320 -0.2068  0.6147
 3165TIP3   OH230985   0.235   1.857   3.199  0.0855 -0.2609  0.2259
 3165TIP3    H130986   0.228   1.767   3.231  0.4960 -0.7887 -1.0906
 3165TIP3    H230987   0.327   1.881   3.215 -0.2907  0.3564  1.6060
 3166TIP3   OH230988   4.044   3.608  16.399 -0.0390  0.5792  0.2975
 3166TIP3    H130989   4.089   3.571  16.476  1.5700  1.7759 -0.0160
 3166TIP3    H230990   4.062   3.546  16.329 -0.3320  0.1838  0.5705
 3167TIP3   OH230991   3.534   4.133  12.002  0.5153  0.1194 -0.1836
 3167TIP3    H130992   3.622   4.163  12.021  0.4215 -0.0518  0.5288
 3167TIP3    H230993   3.497   4.201  11.945  1.1382  0.1277 -0.5857
 3168TIP3   OH230994   2.919   0.118  13.507 -0.3160 -0.2680  0.3590
 3168TIP3    H130995   2.973   0.154  13.577 -1.4695  1.5787  0.3827
 3168TIP3    H230996   2.981   0.082  13.444  0.7814 -0.9515  1.7753
 3169TIP3   OH230997   0.566   2.979   3.976 -0.1908  0.2633 -0.5015
 3169TIP3    H130998   0.475   2.999   3.996 -0.3937 -0.1200 -1.0302
 3169TIP3    H230999   0.587   3.035   3.901  0.1416  0.6603 -0.1221
 3170TIP3   OH231000   1.440   5.520  17.110 -0.1728  0.0974  0.3934
 3170TIP3    H131001   1.528   5.486  17.127 -0.5568 -0.0158  2.3375
 3170TIP3    H231002   1.402   5.533  17.196 -1.3849  2.0037 -0.3709
 3171TIP3   OH231003   1.805   0.774  11.703  0.1192  0.5145 -0.4956
 3171TIP3    H131004   1.889   0.733  11.726 -0.0448  0.6329  0.3394
 3171TIP3    H231005   1.775   0.724  11.628  0.2053 -0.5489  0.1507
 3172TIP3   OH231006   6.590   2.936  11.678  0.4482 -0.3612 -0.3302
 3172TIP3    H131007   6.502   2.901  11.662  0.2319 -0.4955  0.9668
 3172TIP3    H231008   6.643   2.905  11.605 -0.8747  0.9017 -1.9160
 3173TIP3   OH231009   5.061   2.200   5.464  0.7408  0.1093  0.7445
 3173TIP3    H131010   5.125   2.240   5.523  0.4605 -1.3624  2.0802
 3173TIP3    H231011   5.114   2.160   5.395  1.3683 -1.8330  2.2925
 3174TIP3   OH231012   1.562   4.391   3.277 -0.1342  0.2566  0.3078
 3174TIP3    H131013   1.642   4.394   3.330 -0.0449  0.5924  0.1610
 3174TIP3    H231014   1.590   4.426   3.192 -0.3669  0.0906  0.1643
 3175TIP3   OH231015   0.383   1.227   4.876 -0.3959  0.2184  0.1057
 3175TIP3    H131016   0.334   1.308   4.865  0.2471  0.8932  1.8577
 3175TIP3    H231017   0.355   1.193   4.962  0.1513 -0.8381 -0.1161
 3176TIP3   OH231018   5.674   3.674  13.980  0.1071 -0.0350 -0.4463
 3176TIP3    H131019   5.734   3.745  14.000  0.4215 -0.4570  0.1426
 3176TIP3    H231020   5.723   3.594  14.002 -1.5243 -0.3597  2.6872
 3177TIP3   OH231021   4.867   1.988   5.214 -0.0485  0.2575  0.1170
 3177TIP3    H131022   4.887   1.938   5.135 -0.0836 -1.7679  1.3301
 3177TIP3    H231023   4.951   2.024   5.242  0.2742 -0.5026  0.1300
 3178TIP3   OH231024   4.639   5.910   6.284 -0.3403  0.1991 -0.2716
 3178TIP3    H131025   4.660   5.902   6.191 -0.8325  0.1258 -0.3758
 3178TIP3    H231026   4.709   5.964   6.319  0.8141 -1.1804 -0.3434
 3179TIP3   OH231027   1.035   5.496   3.484 -0.0854 -0.2193 -0.2876
 3179TIP3    H131028   1.076   5.558   3.424  0.1776 -0.5193 -0.4221
 3179TIP3    H231029   1.105   5.471   3.544 -0.7343  1.2702  1.1376
 3180TIP3   OH231030   6.157   5.182  15.701 -0.1712  0.0236  0.4404
 3180TIP3    H131031   6.094   5.195  15.631 -1.0534 -1.9139  0.7948
 3180TIP3    H231032   6.228   5.244  15.683 -0.8425  0.2592 -1.5798
 3181TIP3   OH231033   0.454   2.228  14.228 -0.8046 -0.1246  0.6193
 3181TIP3    H131034   0.398   2.263  14.159  0.4657  0.0482 -0.3585
 3181TIP3    H231035   0.479   2.305  14.280 -3.0332 -0.4309  2.3308
 3182TIP3   OH231036   3.628   1.990  16.965  0.2109  0.4489 -0.1517
 3182TIP3    H131037   3.647   1.930  16.893 -1.8701  0.9313 -1.1776
 3182TIP3    H231038   3.560   1.947  17.016  0.5840  0.8009  0.6728
 3183TIP3   OH231039   0.711   2.492   2.089 -0.3615  0.5709 -0.0464
 3183TIP3    H131040   0.641   2.480   2.026 -0.5767  2.1629 -0.1477
 3183TIP3    H231041   0.776   2.545   2.043 -0.3224  1.3893  0.9248
 3184TIP3   OH231042   0.619   2.787   4.614  0.9311 -0.0489  0.1109
 3184TIP3    H131043   0.653   2.701   4.590  1.8461 -0.0581  1.3149
 3184TIP3    H231044   0.594   2.827   4.531  2.1255 -0.7982 -0.6509
 3185TIP3   OH231045   5.399   2.410   0.489 -0.1937 -0.3044  0.2039
 3185TIP3    H131046   5.320   2.449   0.453 -0.3821  0.1994  1.1293
 3185TIP3    H231047   5.423   2.342   0.427 -0.4941  0.5495 -0.8666
 3186TIP3   OH231048   4.431   0.656  11.800  0.1449  0.4529 -0.1079
 3186TIP3    H131049   4.405   0.730  11.745  0.4062  0.3269 -0.4074
 3186TIP3    H231050   4.481   0.599  11.741  1.0092  0.6457  0.4212
 3187TIP3   OH231051   4.950   2.787  12.057 -0.6812  0.7876  0.4964
 3187TIP3    H131052   4.986   2.754  11.974  0.9013 -2.4947  2.2716
 3187TIP3    H231053   4.857   2.796  12.040 -0.5964 -0.9220 -1.3929
 3188TIP3   OH231054   2.614   0.769   3.410  0.4711 -0.2865 -0.0666
 3188TIP3    H131055   2.635   0.863   3.404  2.1858 -0.6099  0.3528
 3188TIP3    H231056   2.691   0.730   3.450 -1.1992 -1.5358  2.1447
 3189TIP3   OH231057   0.931   6.673   5.154  0.0293  0.2694  0.2455
 3189TIP3    H131058   0.990   6.724   5.210  0.8709  1.1473 -1.3818
 3189TIP3    H231059   0.856   6.731   5.139 -0.8362 -0.4685  1.4853
 3190TIP3   OH231060   2.338   6.778  17.119  0.2088  0.4824  0.1751
 3190TIP3    H131061   2.421   6.778  17.168  1.0980 -0.8341 -1.2351
 3190TIP3    H231062   2.363   6.754  17.029 -1.8238 -1.1542 -0.0400
 3191TIP3   OH231063   2.903   3.712  16.519  0.1943 -0.1243 -0.4254
 3191TIP3    H131064   2.991   3.720  16.482  0.4331 -2.1216 -0.4139
 3191TIP3    H231065   2.918   3.706  16.614  0.0256 -0.1407 -0.4009
 3192TIP3   OH231066   4.136   5.292   1.886 -0.1466  0.5004  0.1157
 3192TIP3    H131067   4.207   5.256   1.833  0.5452  3.0927 -0.8718
 3192TIP3    H231068   4.179   5.356   1.943 -1.4427  0.7076  0.8897
 3193TIP3   OH231069   4.510   2.189  15.414  0.1733  0.3483 -0.2101
 3193TIP3    H131070   4.504   2.279  15.382 -1.6135  0.1597 -0.5582
 3193TIP3    H231071   4.419   2.158  15.414  0.6089 -1.0487  1.0883
 3194TIP3   OH231072   4.378   3.081   3.034 -0.1369  0.3924  0.4199
 3194TIP3    H131073   4.453   3.129   3.001 -0.0707 -0.3920 -0.6009
 3194TIP3    H231074   4.314   3.084   2.963 -1.0442  0.9580  1.2310
 3195TIP3   OH231075   1.765   4.950   1.449  0.3486 -0.1097 -0.0802
 3195TIP3    H131076   1.800   4.905   1.526 -2.8300  0.0996  1.6864
 3195TIP3    H231077   1.756   4.881   1.383  2.6293 -0.3964 -0.1689
 3196TIP3   OH231078   3.490   2.681   6.336 -0.0560  0.0489  0.3106
 3196TIP3    H131079   3.441   2.631   6.401  0.6439 -1.1150 -0.0177
 3196TIP3    H231080   3.464   2.772   6.351 -2.9598 -0.5541 -0.3906
 3197TIP3   OH231081   1.578   5.198  17.122 -0.0356 -0.0914  0.3696
 3197TIP3    H131082   1.634   5.263  17.165 -0.9053  1.0354 -0.1396
 3197TIP3    H231083   1.489   5.224  17.144 -0.4271 -0.6511 -0.4948
 3198TIP3   OH231084   3.986   1.891   4.526  0.1734  0.2741 -0.2048
 3198TIP3    H131085   3.961   1.982   4.542 -0.6769  0.4353 -2.1155
 3198TIP3    H231086   4.046   1.896   4.452  1.1126 -0.6435  0.4665
 3199TIP3   OH231087   4.653   6.342  17.026  0.5807  0.2313 -0.5448
 3199TIP3    H131088   4.624   6.356  17.116 -0.4395 -0.4627 -0.7462
 3199TIP3    H231089   4.695   6.424  17.001 -2.3902  1.8546 -0.6652
 3200TIP3   OH231090   2.344   2.998  15.860  0.3526  0.3431 -0.0489
 3200TIP3    H131091   2.279   3.046  15.911  0.1112 -1.2192  1.1848
 3200TIP3    H231092   2.419   3.057  15.856 -0.1009  1.0232  0.9973
 3201TIP3   OH231093   6.658   1.098  11.626  0.4545 -0.6719  0.0396
 3201TIP3    H131094   6.665   1.176  11.571  0.3011  0.3647  1.4312
 3201TIP3    H231095   6.668   1.025  11.566 -0.3279  0.4032 -1.4546
 3202TIP3   OH231096   3.524   1.006  15.718 -0.6856  0.1262  0.6384
 3202TIP3    H131097   3.592   0.938  15.721 -0.5226  0.3123  2.7053
 3202TIP3    H231098   3.442   0.957  15.719 -0.6180 -0.0749 -0.9039
 3203TIP3   OH231099   3.359   4.471  11.619 -0.3167 -0.3950 -0.0763
 3203TIP3    H131100   3.385   4.497  11.531  0.0604  0.4681  0.2780
 3203TIP3    H231101   3.339   4.554  11.663  3.8018 -0.2847  2.0427
 3204TIP3   OH231102   3.229   6.108   5.693  0.3436 -0.0911  0.0886
 3204TIP3    H131103   3.238   6.056   5.773 -0.0120  0.6411  0.6237
 3204TIP3    H231104   3.231   6.199   5.723 -0.6510  0.1944 -0.6276
 3205TIP3   OH231105   3.891   1.955   1.045  0.7606  0.3409  0.0645
 3205TIP3    H131106   3.950   1.880   1.042 -0.8512 -0.9596 -0.6317
 3205TIP3    H231107   3.836   1.946   0.968 -0.6141  1.2905  0.8869
 3206TIP3   OH231108   1.965   1.016   5.951 -0.5566  0.6449  0.3964
 3206TIP3    H131109   1.956   1.014   6.046 -4.0298 -0.7116  0.2033
 3206TIP3    H231110   2.024   0.944   5.930  1.3150  1.7733  1.5028
 3207TIP3   OH231111   2.453   1.290   3.399  0.2430 -0.2928 -0.1780
 3207TIP3    H131112   2.403   1.338   3.465  2.3428  0.4637  0.9481
 3207TIP3    H231113   2.532   1.262   3.445 -0.1765 -3.6205 -1.1754
 3208TIP3   OH231114   1.007   1.433  13.758  0.1119  0.0205 -0.1727
 3208TIP3    H131115   0.917   1.411  13.735 -0.3034  1.0668  0.3791
 3208TIP3    H231116   1.046   1.351  13.787 -0.0019 -0.9066 -2.4225
 3209TIP3   OH231117   2.300   5.553   1.370 -0.6056 -0.5512  1.0747
 3209TIP3    H131118   2.233   5.549   1.438  0.3890 -1.2874  2.0448
 3209TIP3    H231119   2.373   5.600   1.410 -0.5570  0.3537 -0.0089
 3210TIP3   OH231120   0.645   2.019   4.424 -0.0234  0.4860  0.2010
 3210TIP3    H131121   0.586   1.959   4.379 -1.2495  1.4347  0.5092
 3210TIP3    H231122   0.699   1.963   4.480 -0.1652 -0.4523 -0.5735
 3211TIP3   OH231123   6.152   0.005  17.242 -0.5479  0.4148 -0.3529
 3211TIP3    H131124   6.141   0.069  17.172  1.4602 -0.8332 -1.9438
 3211TIP3    H231125   6.150  -0.080  17.197 -1.5028 -0.5809  1.4519
 3212TIP3   OH231126   0.808   2.373  12.459 -0.2270 -0.4975 -0.1354
 3212TIP3    H131127   0.848   2.357  12.545  1.4704  1.8150 -0.4069
 3212TIP3    H231128   0.723   2.413  12.480 -1.5701 -3.3557  0.4127
 3213TIP3   OH231129   0.575   0.396   2.412  0.3026  0.4982 -0.3648
 3213TIP3    H131130   0.516   0.321   2.422  1.0690 -0.0466  0.1652
 3213TIP3    H231131   0.526   0.458   2.358  0.6090 -1.4225 -3.0519
 3214TIP3   OH231132   0.826   5.276  14.895 -0.7975  0.3136  0.3910
 3214TIP3    H131133   0.734   5.291  14.874 -0.6167 -0.2083 -0.8752
 3214TIP3    H231134   0.871   5.282  14.811 -0.0353 -1.9426  0.5779
 3215TIP3   OH231135   0.915   3.111  12.204 -0.3699  0.3869  0.0372
 3215TIP3    H131136   0.987   3.174  12.191 -2.9533  3.2207 -2.1575
 3215TIP3    H231137   0.866   3.147  12.277 -1.1736  0.2377 -0.4198
 3216TIP3   OH231138   1.086   4.488  11.883 -0.0518  0.4043  0.5992
 3216TIP3    H131139   1.146   4.541  11.935  0.1120 -0.1020  0.9308
 3216TIP3    H231140   1.130   4.478  11.798 -0.3713  1.3262  0.3113
 3217TIP3   OH231141   3.279   6.666  14.974 -0.9483  0.0644  0.3081
 3217TIP3    H131142   3.300   6.741  15.030 -0.2587  0.0849  0.0321
 3217TIP3    H231143   3.282   6.590  15.033  0.5201 -0.0140  0.1883
 3218TIP3   OH231144   3.140   5.226  16.547 -0.0758 -0.7980  0.3042
 3218TIP3    H131145   3.209   5.195  16.606  0.8459  0.1689 -0.2127
 3218TIP3    H231146   3.071   5.161  16.554  1.2932 -2.3433  0.1271
 3219TIP3   OH231147   2.069   3.129   0.258  0.7008 -0.1716  0.3934
 3219TIP3    H131148   2.059   3.200   0.322  2.3559  0.2733  0.2100
 3219TIP3    H231149   1.990   3.134   0.204  0.2620  0.7944  1.0891
 3220TIP3   OH231150   0.642   2.926   2.803 -0.5961 -0.3318 -0.7271
 3220TIP3    H131151   0.626   3.013   2.767  0.9299  0.2178 -0.1805
 3220TIP3    H231152   0.565   2.907   2.856 -0.3972  1.2819  0.2132
 3221TIP3   OH231153   1.566   5.338  11.034  0.5843  0.3065 -0.1675
 3221TIP3    H131154   1.629   5.269  11.017 -0.5717 -0.7640 -0.2457
 3221TIP3    H231155   1.519   5.309  11.113  1.9218  2.3627  1.5038
 3222TIP3   OH231156   3.330   4.704   3.906 -0.2238  0.1019  0.0349
 3222TIP3    H131157   3.406   4.679   3.853 -0.1093  0.4851  0.0172
 3222TIP3    H231158   3.367   4.742   3.986 -0.3829  0.9270 -0.2691
 3223TIP3   OH231159   3.097   0.216   0.250  0.5313  0.2418  0.5163
 3223TIP3    H131160   3.083   0.307   0.276  1.4767  0.1474  1.4568
 3223TIP3    H231161   3.030   0.198   0.184 -0.5097  1.2129  1.2857
 3224TIP3   OH231162   4.184   3.600  16.872  0.2711 -0.4201  0.0073
 3224TIP3    H131163   4.225   3.607  16.958  1.3424 -1.3432 -0.4098
 3224TIP3    H231164   4.108   3.544  16.886 -0.1739  0.2900  0.5396
 3225TIP3   OH231165   6.279   6.609  11.059  0.2968 -0.4225 -0.1121
 3225TIP3    H131166   6.268   6.596  11.154 -0.1500  0.1629 -0.0709
 3225TIP3    H231167   6.255   6.701  11.046 -0.2688 -0.6718 -0.8850
 3226TIP3   OH231168   1.866   0.196   0.150 -0.2959 -0.1884 -0.2716
 3226TIP3    H131169   1.784   0.246   0.156  0.2573  1.1215 -2.3173
 3226TIP3    H231170   1.899   0.216   0.062  1.6020 -1.6723  0.0421
 3227TIP3   OH231171   4.821   4.020   3.803  0.2179  0.4440 -0.1400
 3227TIP3    H131172   4.794   4.112   3.806  1.1829  0.7358  0.0094
 3227TIP3    H231173   4.847   4.006   3.711 -0.9674 -0.0020 -0.4235
 3228TIP3   OH231174   4.752   1.324   1.070 -0.6095  0.1724 -0.2535
 3228TIP3    H131175   4.839   1.287   1.085  0.1430  1.8371 -0.3111
 3228TIP3    H231176   4.700   1.250   1.038  1.8045 -0.1659 -4.0710
 3229TIP3   OH231177   2.514   2.018  14.269 -0.1975  0.1853 -0.0428
 3229TIP3    H131178   2.598   2.012  14.313  0.2057  0.4841 -0.7462
 3229TIP3    H231179   2.536   2.015  14.176 -0.9443  0.5381 -0.2345
 3230TIP3   OH231180   4.298   6.556   1.422  0.3126  0.1730  0.4870
 3230TIP3    H131181   4.361   6.628   1.420 -1.4242  1.7735  0.1344
 3230TIP3    H231182   4.315   6.507   1.342  0.8888  0.7886  0.2207
 3231TIP3   OH231183   5.939   2.663   6.313  0.7954 -0.4003 -0.1230
 3231TIP3    H131184   5.944   2.576   6.272  1.2944  0.4437 -1.9281
 3231TIP3    H231185   5.886   2.715   6.253 -1.5379 -0.0072  2.0810
 3232TIP3   OH231186   4.149   3.681  15.805  0.3437 -0.6566 -0.1838
 3232TIP3    H131187   4.122   3.615  15.740 -0.9679  0.0315 -0.3801
 3232TIP3    H231188   4.190   3.630  15.875  0.2808 -1.5822 -0.8014
 3233TIP3   OH231189   3.260   3.601  11.921  0.5429 -0.0363  0.4776
 3233TIP3    H131190   3.301   3.655  11.988  1.2657 -2.7575  2.3928
 3233TIP3    H231191   3.181   3.567  11.964  0.4431 -0.9758 -0.4256
 3234TIP3   OH231192   5.573   2.820   2.275 -0.5905 -0.0699 -0.6972
 3234TIP3    H131193   5.644   2.845   2.334 -0.7555  0.5653 -0.7689
 3234TIP3    H231194   5.529   2.748   2.320 -0.6608  0.3488 -0.0872
 3235TIP3   OH231195   5.565   4.303  11.259 -0.1075 -0.9249  0.8345
 3235TIP3    H131196   5.577   4.395  11.237 -2.7691  0.5226  4.3383
 3235TIP3    H231197   5.653   4.268  11.271  0.9721  1.8028  1.4697
 3236TIP3   OH231198   2.018   2.651   0.352  0.1361  0.3410  0.5491
 3236TIP3    H131199   1.976   2.686   0.431  3.0177 -0.9726  2.8672
 3236TIP3    H231200   2.007   2.556   0.360 -0.7582  0.2289 -1.4808
 3237TIP3   OH231201   3.620   1.888   4.259 -0.0355 -0.8478 -0.0753
 3237TIP3    H131202   3.581   1.890   4.346  1.8579  0.9463  0.8287
 3237TIP3    H231203   3.606   1.798   4.228 -2.8438 -0.8731  1.0307
 3238TIP3   OH231204   0.231   1.022   2.545  0.0912 -0.4862  0.1564
 3238TIP3    H131205   0.153   0.971   2.566 -1.6231  1.9365  0.1235
 3238TIP3    H231206   0.214   1.109   2.583  2.0019  0.6425 -1.3563
 3239TIP3   OH231207   6.755   1.901   2.059  0.2970 -0.1408  0.1869
 3239TIP3    H131208   6.842   1.865   2.076 -0.1072 -2.5502 -2.0730
 3239TIP3    H231209   6.706   1.828   2.021 -2.4094  1.4094  0.4203
 3240TIP3   OH231210   5.156   3.823   4.951  0.0317 -0.1584 -0.1085
 3240TIP3    H131211   5.148   3.898   5.011  1.5346 -1.2582  1.5717
 3240TIP3    H231212   5.165   3.863   4.865 -0.6361  1.5509  0.5619
 3241TIP3   OH231213   4.481   2.797   0.470  0.0018  0.6958 -0.1030
 3241TIP3    H131214   4.456   2.786   0.562 -0.2806  0.0514 -0.2572
 3241TIP3    H231215   4.451   2.885   0.448 -1.8426  0.0904 -0.1786
 3242TIP3   OH231216   3.567   0.702  15.312 -0.2357 -0.1371 -0.1735
 3242TIP3    H131217   3.595   0.753  15.237  1.4937 -1.1147 -0.2367
 3242TIP3    H231218   3.493   0.650  15.280 -1.8888  2.0699 -0.1602
 3243TIP3   OH231219   1.045   3.430  11.799 -0.3329 -0.1420 -0.0563
 3243TIP3    H131220   1.041   3.403  11.890  1.0303 -0.2345 -0.0034
 3243TIP3    H231221   1.085   3.517  11.801 -1.0526  0.2067 -0.5068
 3244TIP3   OH231222   2.756   1.284   2.392  0.2230 -0.6580 -0.8317
 3244TIP3    H131223   2.829   1.235   2.428  0.4718 -0.1989 -0.6995
 3244TIP3    H231224   2.740   1.353   2.456 -0.4997 -0.9116 -0.7281
 3245TIP3   OH231225   0.275   2.033   5.228  0.0926  0.6128  0.4171
 3245TIP3    H131226   0.224   1.953   5.240 -0.1261  0.6346 -0.2933
 3245TIP3    H231227   0.360   2.013   5.266 -0.1939  0.2943  0.8983
 3246TIP3   OH231228   5.735   2.585   4.992  0.0689  0.4708  0.1346
 3246TIP3    H131229   5.787   2.512   5.024  0.1699 -0.8697 -2.7247
 3246TIP3    H231230   5.797   2.657   4.982  0.5725  0.0707  0.3609
 3247TIP3   OH231231   0.280   0.197  16.869  0.3498  0.4927  0.1207
 3247TIP3    H131232   0.354   0.229  16.818 -0.6615  2.0252 -0.4687
 3247TIP3    H231233   0.285   0.244  16.952  0.5230 -0.0745  0.4413
 3248TIP3   OH231234   2.845   5.775   5.815  0.2245 -0.0513 -0.3275
 3248TIP3    H131235   2.784   5.748   5.883  0.3269  0.3143 -0.0871
 3248TIP3    H231236   2.790   5.816   5.748  0.1593 -0.1167 -0.3140
 3249TIP3   OH231237   2.205   0.955  13.578  0.2274 -0.0879  0.2900
 3249TIP3    H131238   2.222   0.989  13.490  3.2786  1.8096  1.4589
 3249TIP3    H231239   2.169   1.029  13.627  0.4882 -0.5022  1.1339
 3250TIP3   OH231240   5.755   0.654   6.522  0.5566  0.1956 -0.6155
 3250TIP3    H131241   5.795   0.718   6.463  0.1521 -0.7298 -1.9343
 3250TIP3    H231242   5.819   0.641   6.592  1.3160  0.8429 -1.1852
 3251TIP3   OH231243   2.587   4.381   3.007  0.1843  0.4722  0.2716
 3251TIP3    H131244   2.605   4.289   3.028 -0.2960  0.4166  0.4556
 3251TIP3    H231245   2.578   4.383   2.912  0.9131  0.4593  0.1977
 3252TIP3   OH231246   4.902   5.578   3.828 -0.6976 -0.2598  0.2907
 3252TIP3    H131247   4.909   5.594   3.733 -1.8461 -0.8991  0.0721
 3252TIP3    H231248   4.942   5.655   3.868  0.3811 -0.2767 -0.7143
 3253TIP3   OH231249   3.075   2.992   1.123  0.2941 -0.0156 -0.0044
 3253TIP3    H131250   3.102   3.077   1.087  2.2171 -0.6864 -0.2840
 3253TIP3    H231251   3.052   3.011   1.214 -1.7242  1.1884 -0.6950
 3254TIP3   OH231252   1.092   0.184   5.493  0.5419 -0.0842  0.2965
 3254TIP3    H131253   1.166   0.223   5.539  0.2754 -0.6926  1.2472
 3254TIP3    H231254   1.057   0.119   5.553  1.1147 -2.0064 -1.3235
 3255TIP3   OH231255   3.218   4.092   5.975  0.1934 -0.2981 -0.2832
 3255TIP3    H131256   3.199   4.185   5.992 -0.0473 -0.3774 -0.1281
 3255TIP3    H231257   3.133   4.052   5.958  0.4542 -0.0712 -2.4808
 3256TIP3   OH231258   4.300   5.123   0.439  0.9917 -0.0185  0.1856
 3256TIP3    H131259   4.381   5.152   0.480  1.5823 -0.6815 -0.4866
 3256TIP3    H231260   4.324   5.106   0.348 -0.3181  1.5830 -0.5192
 3257TIP3   OH231261   4.572   4.904   5.918  0.2241  0.1439 -0.3724
 3257TIP3    H131262   4.626   4.983   5.929  1.2414 -0.7113  1.2439
 3257TIP3    H231263   4.535   4.912   5.831 -0.9815  3.1758  0.3069
 3258TIP3   OH231264   3.995   3.191  11.142  0.0484 -0.3384  0.1510
 3258TIP3    H131265   4.019   3.210  11.232 -0.5028 -0.1188  0.2597
 3258TIP3    H231266   4.019   3.100  11.128  0.4891 -0.2601  0.3995
 3259TIP3   OH231267   2.821   1.772   5.478  0.0560  0.2807 -0.1530
 3259TIP3    H131268   2.786   1.691   5.517  0.6989 -0.0566 -0.2681
 3259TIP3    H231269   2.914   1.770   5.499  0.6392 -0.3993 -2.5206
 3260TIP3   OH231270   5.228   5.362  13.464 -0.2636 -0.1158  0.1179
 3260TIP3    H131271   5.312   5.371  13.420 -1.3447  1.3031 -1.8065
 3260TIP3    H231272   5.241   5.404  13.549  1.3809 -1.3552  0.5303
 3261TIP3   OH231273   5.409   1.936  15.732  0.1766  0.2648 -0.2122
 3261TIP3    H131274   5.400   1.860  15.675  2.1812 -0.1992  0.0179
 3261TIP3    H231275   5.501   1.962  15.724 -0.0489  1.5951  1.0416
 3262TIP3   OH231276   1.495   6.206  14.263 -0.2593 -0.5239  0.2368
 3262TIP3    H131277   1.579   6.187  14.306 -0.9272  1.4771  2.6380
 3262TIP3    H231278   1.462   6.283  14.308 -4.0859 -2.0392  0.3531
 3263TIP3   OH231279   5.509   6.504   2.980  0.6866  0.4405 -0.1190
 3263TIP3    H131280   5.578   6.520   3.044  0.8195  0.9387 -0.3832
 3263TIP3    H231281   5.481   6.414   2.997  0.5050  0.6600  0.8553
 3264TIP3   OH231282   5.336   3.582   2.753  0.0866  0.0617  0.8230
 3264TIP3    H131283   5.243   3.560   2.743 -0.5154  2.5342  0.3351
 3264TIP3    H231284   5.376   3.501   2.785 -1.7942 -1.7889 -1.1580
 3265TIP3   OH231285   3.192   4.852   0.614  0.1204 -0.2497 -0.3499
 3265TIP3    H131286   3.180   4.937   0.657  1.7015 -0.0950 -0.1501
 3265TIP3    H231287   3.130   4.853   0.542 -0.3438  0.8126  0.0431
 3266TIP3   OH231288   1.769   2.068  12.767 -0.2141 -0.5130  0.0251
 3266TIP3    H131289   1.711   1.997  12.795 -0.2404 -0.7133 -0.5184
 3266TIP3    H231290   1.847   2.023  12.734 -0.6835 -0.3472 -1.3635
 3267TIP3   OH231291   6.739   4.534   4.433  0.3295 -0.6659 -0.1662
 3267TIP3    H131292   6.781   4.614   4.466  0.7362 -0.9489  0.0216
 3267TIP3    H231293   6.700   4.560   4.350  2.2738 -0.7701 -1.1557
 3268TIP3   OH231294   5.558   3.175  14.085 -0.2416 -0.0842  0.5047
 3268TIP3    H131295   5.577   3.217  14.001 -1.4301 -1.9688 -0.7786
 3268TIP3    H231296   5.462   3.176  14.091 -0.2159 -1.0040  1.2970
 3269TIP3   OH231297   2.535   0.285  11.726  0.5419 -0.1534  0.4866
 3269TIP3    H131298   2.607   0.308  11.785  0.9213 -0.6071  0.2156
 3269TIP3    H231299   2.576   0.284  11.639  0.0854  0.0969  0.2632
 3270TIP3   OH231300   6.525   3.343  13.188 -0.4163  0.1853  0.4129
 3270TIP3    H131301   6.596   3.376  13.132  0.5689 -0.6213  1.1589
 3270TIP3    H231302   6.473   3.287  13.130 -0.5583  0.9038 -0.1776
 3271TIP3   OH231303   1.329   2.421   2.632  0.1738 -0.4560 -0.0003
 3271TIP3    H131304   1.328   2.449   2.724 -3.7370  0.2383 -0.0764
 3271TIP3    H231305   1.259   2.473   2.591  1.5974 -0.9643 -3.3467
 3272TIP3   OH231306   6.034   3.831  17.288 -0.4840  0.3061  0.2644
 3272TIP3    H131307   6.105   3.770  17.309  0.4213  0.9438 -0.8486
 3272TIP3    H231308   5.965   3.775  17.253 -0.7147 -0.3689  1.7114
 3273TIP3   OH231309   6.646   2.450  11.415  0.0115 -0.2747 -0.0054
 3273TIP3    H131310   6.712   2.390  11.448  0.3022  0.6500  1.1816
 3273TIP3    H231311   6.681   2.537  11.435 -0.5306  0.2894 -1.4191
 3274TIP3   OH231312   5.517   0.972  15.607 -0.1591  0.1805  1.0050
 3274TIP3    H131313   5.424   0.950  15.611  0.0525 -0.6426  1.5633
 3274TIP3    H231314   5.560   0.903  15.657  0.8574 -0.0575 -0.1602
 3275TIP3   OH231315   2.525   1.278  15.324 -0.1680  0.4945 -1.0443
 3275TIP3    H131316   2.601   1.234  15.362 -0.9595 -0.3816 -0.4200
 3275TIP3    H231317   2.463   1.285  15.397 -1.3185 -0.2861 -1.9152
 3276TIP3   OH231318   3.463   3.396   0.052 -0.3319 -1.0253  0.5277
 3276TIP3    H131319   3.409   3.433   0.122  0.1630  0.6078  0.0723
 3276TIP3    H231320   3.413   3.320   0.021 -1.3667 -0.7614  1.4857
 3277TIP3   OH231321   3.841   3.442  10.857 -0.3865 -0.2164  0.0578
 3277TIP3    H131322   3.881   3.529  10.868  1.1127 -0.8796  0.0950
 3277TIP3    H231323   3.838   3.429  10.762  0.5373 -0.6033  0.0665
 3278TIP3   OH231324   0.249   4.704   2.737  0.0373  0.4919 -0.1321
 3278TIP3    H131325   0.212   4.676   2.653 -0.0754  0.3010 -0.0205
 3278TIP3    H231326   0.186   4.767   2.772 -0.7948 -0.6904  0.6001
 3279TIP3   OH231327   1.443   2.972  12.937 -0.3774  0.4729 -0.1599
 3279TIP3    H131328   1.515   2.911  12.927  0.1228  0.8285  1.1064
 3279TIP3    H231329   1.413   2.961  13.027 -4.2041 -2.1472 -1.4880
 3280TIP3   OH231330   2.349   1.219   0.791 -0.1680  0.2052  0.6680
 3280TIP3    H131331   2.347   1.264   0.875  1.1584 -2.3575  2.2092
 3280TIP3    H231332   2.259   1.222   0.759 -0.0696  4.4711  0.1796
 3281TIP3   OH231333   1.381   2.591  11.487  0.3314  0.5961  0.5747
 3281TIP3    H131334   1.338   2.649  11.424 -1.1505 -1.6169 -0.5912
 3281TIP3    H231335   1.454   2.552  11.438 -1.2973 -1.7349 -0.1892
 3282TIP3   OH231336   0.110   1.217   1.669 -0.6169  0.0486 -0.1965
 3282TIP3    H131337   0.025   1.216   1.712 -0.7851 -0.5649 -0.5352
 3282TIP3    H231338   0.165   1.270   1.727 -1.3387  0.8396 -0.2092
 3283TIP3   OH231339   3.261   0.355  16.894 -0.1856 -0.0095 -0.4180
 3283TIP3    H131340   3.270   0.340  16.988  2.2347  0.0867 -0.5729
 3283TIP3    H231341   3.207   0.433  16.887 -1.0473 -0.4624  0.8447
 3284TIP3   OH231342   5.184   2.864  14.606 -0.0369 -0.0298 -0.1202
 3284TIP3    H131343   5.208   2.907  14.524  0.8120  0.6551  0.4690
 3284TIP3    H231344   5.095   2.832  14.591 -0.4845  1.4299 -0.7949
 3285TIP3   OH231345   0.663   1.057  17.272 -0.4446  0.4082  0.4322
 3285TIP3    H131346   0.607   1.007  17.332 -0.9595  0.3138 -0.1208
 3285TIP3    H231347   0.603   1.091  17.206  0.3627 -0.9889 -1.0837
 3286TIP3   OH231348   0.754   1.842   0.690  0.1215  0.0033  0.2634
 3286TIP3    H131349   0.767   1.929   0.653 -0.0093  0.3892  1.0983
 3286TIP3    H231350   0.789   1.782   0.624 -2.1251  0.5141 -1.4838
 3287TIP3   OH231351   5.708   4.175   0.032 -0.0451 -0.4264  0.3527
 3287TIP3    H131352   5.716   4.241  -0.037 -1.7682 -0.4928  0.0360
 3287TIP3    H231353   5.629   4.127   0.009 -1.3572  0.2883  3.0082
 3288TIP3   OH231354   3.724   0.352  12.323  0.1399 -0.0115  0.8782
 3288TIP3    H131355   3.773   0.426  12.357  1.1129 -0.2539  0.0501
 3288TIP3    H231356   3.760   0.337  12.236 -3.1974  1.5343 -0.9955
 3289TIP3   OH231357   2.620   0.746  16.620 -0.4301 -0.3950 -0.0679
 3289TIP3    H131358   2.612   0.777  16.529 -1.6522  0.4399  0.2907
 3289TIP3    H231359   2.600   0.653  16.615  4.1836 -1.5365 -1.3105
 3290TIP3   OH231360   6.684   1.934   4.523 -0.1293 -0.2080  0.6347
 3290TIP3    H131361   6.589   1.928   4.515 -0.0592 -2.1125  0.6395
 3290TIP3    H231362   6.701   2.023   4.552 -1.8430  0.4361 -0.2258
 3291TIP3   OH231363   6.204   4.954  15.068 -0.0618 -0.0131  0.3999
 3291TIP3    H131364   6.147   5.015  15.021  0.9916  0.7798  0.1024
 3291TIP3    H231365   6.146   4.884  15.097 -1.2125  0.8696  0.2892
 3292TIP3   OH231366   3.431   4.602  11.362  0.5738 -0.3213 -0.1918
 3292TIP3    H131367   3.367   4.584  11.293  0.2266 -1.5788  0.4275
 3292TIP3    H231368   3.502   4.649  11.317 -0.9977  1.6133 -0.7670
 3293TIP3   OH231369   0.138   5.328   1.255  0.3542 -0.6508 -0.7834
 3293TIP3    H131370   0.210   5.392   1.253 -0.2675  0.1089  0.0825
 3293TIP3    H231371   0.172   5.252   1.209  1.1536  0.2764 -1.7682
 3294TIP3   OH231372   6.109   6.483  15.812  0.2681  0.6771 -0.4011
 3294TIP3    H131373   6.073   6.395  15.803 -0.4973  0.7159  1.7994
 3294TIP3    H231374   6.163   6.495  15.733  0.6494 -1.8651 -0.6051
 3295TIP3   OH231375   1.110   2.392  14.447 -0.3240  0.3222 -0.5401
 3295TIP3    H131376   1.183   2.429  14.397  0.5427  3.8132  2.8075
 3295TIP3    H231377   1.035   2.446  14.424 -0.3980  0.5987  0.3026
 3296TIP3   OH231378   3.125   5.540   0.138  0.0361  0.7227  0.7653
 3296TIP3    H131379   3.132   5.609   0.072  1.7950 -1.3860 -1.4413
 3296TIP3    H231380   3.191   5.564   0.204 -0.6286  2.0406  0.9764
 3297TIP3   OH231381   5.178   3.895   6.856  0.6050 -0.0404  0.0273
 3297TIP3    H131382   5.220   3.979   6.875 -0.2618  0.2734  0.5871
 3297TIP3    H231383   5.105   3.918   6.797  1.5808 -0.6604 -1.4965
 3298TIP3   OH231384   0.377   0.808  10.843 -0.5572 -0.3176 -0.6656
 3298TIP3    H131385   0.354   0.736  10.901 -0.9570  0.2195 -0.1364
 3298TIP3    H231386   0.443   0.772  10.783 -0.2429 -0.9194  0.0322
 3299TIP3   OH231387   3.949   2.945   5.540  0.2017 -0.7876 -0.7597
 3299TIP3    H131388   3.989   2.876   5.488  0.2984 -0.2174 -1.4578
 3299TIP3    H231389   3.989   3.026   5.508  0.2704 -0.4261  0.2138
 3300TIP3   OH231390   5.940   3.616  13.540  0.3492  0.4996 -0.2436
 3300TIP3    H131391   5.969   3.647  13.455  0.8244  1.1542  0.1421
 3300TIP3    H231392   5.847   3.640  13.544  0.6299  1.6232 -0.0864
 3301TIP3   OH231393   3.510   1.449  15.478 -0.3800  0.0973 -0.0361
 3301TIP3    H131394   3.521   1.412  15.566  0.1688  0.1161 -0.0950
 3301TIP3    H231395   3.429   1.409  15.445 -0.8245  0.4147  0.6412
 3302TIP3   OH231396   6.292   1.199  15.197 -0.2049  0.3575 -0.0029
 3302TIP3    H131397   6.198   1.188  15.186  0.0002 -0.3307 -1.2471
 3302TIP3    H231398   6.329   1.113  15.174  0.7098  0.5314  0.7385
 3303TIP3   OH231399   6.258   1.766  15.764 -0.4037 -0.1403 -0.2417
 3303TIP3    H131400   6.264   1.672  15.749 -1.7300 -0.4209  0.8056
 3303TIP3    H231401   6.182   1.794  15.714  0.8509  0.6856 -1.7782
 3304TIP3   OH231402   3.186   1.041  11.972  0.1961  0.3238  0.1374
 3304TIP3    H131403   3.145   1.039  12.058  2.3974 -0.3822  1.2612
 3304TIP3    H231404   3.214   1.132  11.961 -0.9550  0.6330 -0.2896
 3305TIP3   OH231405   3.781   3.529  15.902 -0.2287 -0.0846 -0.5008
 3305TIP3    H131406   3.786   3.612  15.855  0.7405 -0.8925 -1.9103
 3305TIP3    H231407   3.688   3.518  15.921 -0.3837  1.2421 -0.4384
 3306TIP3   OH231408   5.638   0.914   1.562  0.2664 -0.6431 -0.0641
 3306TIP3    H131409   5.641   0.996   1.512  1.0418 -1.0008 -0.6154
 3306TIP3    H231410   5.692   0.931   1.639 -2.0600  0.3890  1.4433
 3307TIP3   OH231411   0.910   1.178  16.900 -0.8609 -0.2200  0.0413
 3307TIP3    H131412   0.971   1.162  16.828  0.4238 -0.3262  1.1138
 3307TIP3    H231413   0.823   1.164  16.862 -0.2031 -0.4846 -1.4189
 3308TIP3   OH231414   0.909   1.558   5.086 -0.1147 -0.1009 -0.1775
 3308TIP3    H131415   0.907   1.623   5.016 -1.0008  0.9061  0.7306
 3308TIP3    H231416   0.917   1.610   5.167  1.7796 -1.2723  0.4364
 3309TIP3   OH231417   0.161   0.871   5.107  0.0615  0.0393 -0.5645
 3309TIP3    H131418   0.248   0.832   5.110 -0.0097 -0.3933 -2.5751
 3309TIP3    H231419   0.105   0.812   5.158  0.8751  0.2108  0.5586
 3310TIP3   OH231420   2.834   1.477  11.899  0.5077  0.1282  0.5267
 3310TIP3    H131421   2.844   1.410  11.966 -2.4916  0.1950  1.1842
 3310TIP3    H231422   2.763   1.533  11.931  0.0462  1.1128 -1.9623
 3311TIP3   OH231423   4.402   6.690   6.205  0.1797 -0.0093  0.4620
 3311TIP3    H131424   4.336   6.657   6.266 -0.1704  0.5854  0.4148
 3311TIP3    H231425   4.399   6.785   6.216  0.3853  0.0797 -0.2026
 3312TIP3   OH231426   6.677   4.169   1.849  0.7810  0.2631 -0.1185
 3312TIP3    H131427   6.650   4.187   1.939  0.6837  1.1594 -0.3232
 3312TIP3    H231428   6.595   4.159   1.801  0.8227 -0.8642 -0.0043
 3313TIP3   OH231429   5.035   5.108  11.166  0.5372 -0.2424  0.0131
 3313TIP3    H131430   4.950   5.148  11.186  0.1029 -0.8165 -0.6376
 3313TIP3    H231431   5.097   5.181  11.170  0.2451 -0.0513  1.8622
 3314TIP3   OH231432   1.052   5.265  11.335  0.1298  0.3824 -0.3057
 3314TIP3    H131433   1.080   5.313  11.413  0.4839  0.3193 -0.3914
 3314TIP3    H231434   1.026   5.333  11.273  0.4616  0.4609 -0.3633
 3315TIP3   OH231435   5.621   0.134  14.974 -0.0348 -0.0582 -0.2490
 3315TIP3    H131436   5.715   0.146  14.960  0.0896 -0.7814 -0.0541
 3315TIP3    H231437   5.613   0.046  15.009 -0.8123 -0.0934 -0.5014
 3316TIP3   OH231438   5.441   0.900  12.499 -0.3279  0.2711  0.3985
 3316TIP3    H131439   5.377   0.831  12.482 -0.2510  0.0671  0.9137
 3316TIP3    H231440   5.398   0.981  12.470 -1.2976  0.2974  1.7866
 3317TIP3   OH231441   1.491   3.401  15.155  0.2774  0.0180 -0.1329
 3317TIP3    H131442   1.471   3.413  15.062 -2.4651  1.3770  0.5286
 3317TIP3    H231443   1.473   3.486  15.194 -1.1155 -1.1457  1.9734
 3318TIP3   OH231444   5.139   4.680   1.821 -0.1696  0.2010  0.5739
 3318TIP3    H131445   5.111   4.767   1.849  1.4374  0.6781  0.8007
 3318TIP3    H231446   5.217   4.696   1.768 -0.1380 -1.0672  0.2157
 3319TIP3   OH231447   5.975   2.149   4.580  0.0439 -0.5662 -0.2253
 3319TIP3    H131448   5.960   2.060   4.549  0.3231 -1.1417  1.1697
 3319TIP3    H231449   5.927   2.154   4.663  0.0516  0.5751 -0.2739
 3320TIP3   OH231450   3.418   0.716   5.061  0.4771 -0.3371  0.0340
 3320TIP3    H131451   3.361   0.702   4.985 -0.9113  2.5922  0.3966
 3320TIP3    H231452   3.470   0.636   5.067 -1.1053 -1.6865 -2.4830
 3321TIP3   OH231453   4.979   4.111  12.304 -0.1678  0.0714  0.5185
 3321TIP3    H131454   5.067   4.073  12.299 -1.0250 -1.9433 -2.9885
 3321TIP3    H231455   4.983   4.186  12.244 -1.0362 -0.6319 -0.4505
 3322TIP3   OH231456   2.324   4.428  14.024 -0.6864 -0.4905 -0.2796
 3322TIP3    H131457   2.326   4.521  14.000 -0.2811 -0.4776 -0.2050
 3322TIP3    H231458   2.233   4.412  14.049 -0.3356  0.4370  1.8490
 3323TIP3   OH231459   5.409   1.507  12.468 -0.0587  0.0023  0.1226
 3323TIP3    H131460   5.469   1.461  12.409 -1.5399 -3.3976  1.0328
 3323TIP3    H231461   5.340   1.540  12.410  0.0843 -0.5630 -0.3845
 3324TIP3   OH231462   0.839   5.401   1.844  0.6649  0.4484  0.1252
 3324TIP3    H131463   0.816   5.494   1.845 -0.2839  0.3733 -2.8955
 3324TIP3    H231464   0.765   5.358   1.887  0.0205  0.9519 -0.4572
 3325TIP3   OH231465   2.394   0.624   3.449 -0.2229  0.8885  0.3019
 3325TIP3    H131466   2.466   0.680   3.420  1.5081 -2.5443 -2.9684
 3325TIP3    H231467   2.427   0.581   3.528  0.8142  0.3487 -0.4051
 3326TIP3   OH231468   6.571   0.350  12.755  0.3357 -0.3152 -0.0450
 3326TIP3    H131469   6.642   0.303  12.799 -0.5850 -1.3272  0.3943
 3326TIP3    H231470   6.505   0.364  12.823 -1.0551 -1.7895 -1.0231
 3327TIP3   OH231471   5.145   2.369  13.192 -0.2681 -0.5798  0.0935
 3327TIP3    H131472   5.063   2.413  13.216 -0.2907 -1.7024  2.3882
 3327TIP3    H231473   5.198   2.373  13.272  1.3513 -1.1786 -0.8988
 3328TIP3   OH231474   2.669   4.521  12.461 -0.1184 -0.2995  0.2512
 3328TIP3    H131475   2.744   4.564  12.422  0.3542  1.6453  3.0071
 3328TIP3    H231476   2.705   4.471  12.534 -1.2827 -1.1217  0.3028
 3329TIP3   OH231477   1.374   3.483  11.937  0.3145 -0.1534  0.1788
 3329TIP3    H131478   1.336   3.424  12.002 -0.3918  0.9044  0.7485
 3329TIP3    H231479   1.408   3.424  11.869  0.5097 -1.2529  1.1860
 3330TIP3   OH231480   5.994   0.522   0.285  0.0717  0.1390 -0.4002
 3330TIP3    H131481   6.023   0.570   0.363 -0.0652 -0.6456  0.1426
 3330TIP3    H231482   5.975   0.434   0.317 -2.1587  0.3898 -0.8790
 3331TIP3   OH231483   6.175   0.028   1.621  0.5837  0.5611 -0.1796
 3331TIP3    H131484   6.131  -0.005   1.543 -0.2444 -0.6876  0.7789
 3331TIP3    H231485   6.201  -0.050   1.669 -0.6224  1.2775  1.7311
 3332TIP3   OH231486   2.494   6.261   4.050  0.7472 -0.6936 -0.1504
 3332TIP3    H131487   2.512   6.200   4.122  1.4035  0.7581  0.9664
 3332TIP3    H231488   2.422   6.220   4.001 -0.2496 -1.3722  1.7748
 3333TIP3   OH231489   2.113   4.784   0.954 -0.2815  0.1375  0.1752
 3333TIP3    H131490   2.166   4.853   0.915  0.7973 -1.0119 -0.4593
 3333TIP3    H231491   2.169   4.747   1.023 -1.6033  1.1705  1.8841
 3334TIP3   OH231492   1.329   0.609  13.054 -0.6616 -0.1474 -0.0020
 3334TIP3    H131493   1.312   0.626  12.961  2.0425 -1.1613 -0.7837
 3334TIP3    H231494   1.390   0.679  13.080 -2.0532  0.6349  1.2961
 3335TIP3   OH231495   3.502   4.285   2.353  0.7442  0.4236 -0.3720
 3335TIP3    H131496   3.515   4.198   2.390  0.5233  0.0370 -1.1789
 3335TIP3    H231497   3.513   4.273   2.259  0.4099  1.2107 -0.5202
 3336TIP3   OH231498   5.978   2.464  13.782 -0.0688  0.6201  0.5582
 3336TIP3    H131499   5.903   2.502  13.737  0.6741  1.2527 -0.1850
 3336TIP3    H231500   6.028   2.421  13.713  0.0669 -0.1040  1.1032
 3337TIP3   OH231501   1.268   5.669   4.579 -0.4907  0.4017 -0.8050
 3337TIP3    H131502   1.341   5.680   4.518  0.2102  1.7323  0.2244
 3337TIP3    H231503   1.270   5.576   4.601  1.7038  0.6034  0.1095
 3338TIP3   OH231504   4.573   1.822   5.120 -0.3843  0.0805 -0.7735
 3338TIP3    H131505   4.647   1.858   5.170  0.1345  1.3321 -2.3413
 3338TIP3    H231506   4.602   1.825   5.029 -1.1298 -2.5322 -1.1807
 3339TIP3   OH231507   0.516   4.099   3.605  0.1731 -0.2439  0.1484
 3339TIP3    H131508   0.444   4.113   3.667 -1.2260 -0.8109 -1.2715
 3339TIP3    H231509   0.508   4.170   3.542  0.4671 -0.6483 -0.3569
 3340TIP3   OH231510   5.132   1.500   3.348 -0.3895 -0.3114  0.0625
 3340TIP3    H131511   5.168   1.454   3.272 -0.9234  1.3695 -1.2733
 3340TIP3    H231512   5.103   1.584   3.313  1.8382  1.6676  2.6304
 3341TIP3   OH231513   1.261   4.223  11.403 -0.0777 -1.0843 -0.0863
 3341TIP3    H131514   1.319   4.227  11.479  1.5814  1.9140 -1.3232
 3341TIP3    H231515   1.320   4.205  11.329 -0.9557  0.1108 -1.1298
 3342TIP3   OH231516   2.096   0.050   3.138 -0.4913  0.0914  0.8069
 3342TIP3    H131517   2.113  -0.007   3.213  0.4879 -0.1620  0.3950
 3342TIP3    H231518   2.182   0.083   3.112 -0.7306 -0.3566 -0.6281
 3343TIP3   OH231519   5.934   6.233  13.507 -0.2666 -0.0640  0.4162
 3343TIP3    H131520   5.859   6.242  13.565  0.0174 -0.8780  0.9245
 3343TIP3    H231521   5.895   6.219  13.420 -0.6895  1.7938  0.2635
 3344TIP3   OH231522   5.327   3.890  16.901  0.1423 -0.3232  0.1037
 3344TIP3    H131523   5.398   3.940  16.861  0.2209 -0.8799 -0.4558
 3344TIP3    H231524   5.267   3.872  16.829 -1.6001  1.8403  0.8856
 3345TIP3   OH231525   1.953   4.203   3.053  0.4063 -0.0236  0.1744
 3345TIP3    H131526   1.917   4.117   3.028 -0.7085 -0.1210  1.9816
 3345TIP3    H231527   2.047   4.194   3.038  0.3541 -1.6716  0.5769
 3346TIP3   OH231528   6.239   5.942  15.189  0.1254 -0.1034  0.0331
 3346TIP3    H131529   6.260   6.027  15.150 -0.9976 -0.0463 -0.5021
 3346TIP3    H231530   6.324   5.902  15.208  0.6730  0.8383 -0.3711
 3347TIP3   OH231531   5.544   5.740  12.403 -0.5248  0.2942 -0.5994
 3347TIP3    H131532   5.609   5.695  12.457 -1.7849 -1.9397 -0.7726
 3347TIP3    H231533   5.491   5.789  12.466  0.3943  0.9230 -0.2964
 3348TIP3   OH231534   4.894   1.832  14.089  0.5050 -0.8596  0.1006
 3348TIP3    H131535   4.922   1.891  14.019 -2.0991  0.2443 -0.1298
 3348TIP3    H231536   4.948   1.754  14.077  3.4465  1.0760 -0.1254
 3349TIP3   OH231537   4.625   4.985   4.403 -0.7106  0.1477 -0.4176
 3349TIP3    H131538   4.645   5.026   4.487 -1.6071  0.0410 -0.1343
 3349TIP3    H231539   4.645   4.892   4.416  0.5179  0.3418 -0.7919
 3350TIP3   OH231540   6.181   4.344  15.311  0.0477  0.1524 -0.4284
 3350TIP3    H131541   6.227   4.399  15.248 -0.0142 -1.5126 -2.0050
 3350TIP3    H231542   6.241   4.338  15.385  1.0467  0.4820 -1.1868
 3351TIP3   OH231543   3.171   1.561   0.732 -0.0648  0.1592  0.2351
 3351TIP3    H131544   3.151   1.649   0.762 -1.2322  0.0996 -0.3025
 3351TIP3    H231545   3.131   1.556   0.645  3.1695  0.3327 -1.3874
 3352TIP3   OH231546   1.886   1.089  17.329  0.0062 -0.1863 -0.3871
 3352TIP3    H131547   1.970   1.100  17.286 -0.6620  1.6596 -1.3243
 3352TIP3    H231548   1.825   1.141  17.277 -1.8687 -1.9363 -0.0987
 3353TIP3   OH231549   1.983   6.097   6.083  0.0059 -0.2846 -0.0031
 3353TIP3    H131550   2.006   6.183   6.118  1.1285  0.4001 -2.2477
 3353TIP3    H231551   2.053   6.077   6.021  0.3984 -3.3785  1.2801
 3354TIP3   OH231552   3.951   5.633   5.000  0.0748 -0.2376  0.4936
 3354TIP3    H131553   4.010   5.642   5.074  0.3506  1.1514  0.1231
 3354TIP3    H231554   3.868   5.668   5.032  0.3877  1.0593 -0.0569
 3355TIP3   OH231555   5.670   6.309  13.973  0.3906  0.2276 -0.1543
 3355TIP3    H131556   5.709   6.396  13.984  1.8013 -0.5365  1.3741
 3355TIP3    H231557   5.720   6.268  13.903  1.0455 -0.0320  0.4518
 3356TIP3   OH231558   6.144   5.286   0.772 -0.2145 -0.0193  0.1415
 3356TIP3    H131559   6.202   5.227   0.724  0.1801  1.4927 -1.3341
 3356TIP3    H231560   6.057   5.267   0.737 -0.3050 -0.7025  0.7135
 3357TIP3   OH231561   0.690   5.786  14.193  0.1056  0.0363 -0.0106
 3357TIP3    H131562   0.715   5.695  14.179  0.4981  0.0665  0.4360
 3357TIP3    H231563   0.626   5.783  14.265  1.3828  0.2371  1.1893
 3358TIP3   OH231564   2.456   3.386  11.917  0.5506 -0.0149  0.2115
 3358TIP3    H131565   2.490   3.389  11.828  0.3856 -0.5383  0.1273
 3358TIP3    H231566   2.409   3.302  11.922 -1.8565  1.2257 -0.0692
 3359TIP3   OH231567   4.376   5.308   6.460  0.3097  0.0680  0.1564
 3359TIP3    H131568   4.344   5.350   6.380  1.2931 -0.7175 -0.6700
 3359TIP3    H231569   4.321   5.230   6.469  0.4324 -0.0301  0.0527
 3360TIP3   OH231570   6.135   0.556   3.478 -0.0769  0.0576  0.0421
 3360TIP3    H131571   6.207   0.526   3.535  0.2612  0.5253 -0.1356
 3360TIP3    H231572   6.172   0.554   3.390 -0.4459 -0.1887 -0.1095
 3361TIP3   OH231573   2.452   2.323  14.526  0.1579  0.2279  0.1712
 3361TIP3    H131574   2.498   2.355  14.604  3.5536 -1.6658 -0.8582
 3361TIP3    H231575   2.413   2.240  14.555  2.5662 -1.1741 -0.3257
 3362TIP3   OH231576   1.255   4.714  13.488  0.1943  0.0948 -0.3077
 3362TIP3    H131577   1.273   4.764  13.567  0.0424 -0.7696  0.2821
 3362TIP3    H231578   1.237   4.781  13.421 -2.4391  0.8653  1.0270
 3363TIP3   OH231579   2.600   3.422   2.024 -0.1953  0.3311  0.3995
 3363TIP3    H131580   2.599   3.518   2.022  0.9454  0.3512 -0.9259
 3363TIP3    H231581   2.597   3.397   1.932 -0.4493 -0.9173  0.7381
 3364TIP3   OH231582   5.870   3.203  16.486  0.2890  0.1078  0.1487
 3364TIP3    H131583   5.884   3.110  16.504  1.1804  0.3541  0.7853
 3364TIP3    H231584   5.935   3.224  16.419  0.1913  0.3064  0.1170
 3365TIP3   OH231585   3.529   5.859  14.182  0.0724 -0.2429 -0.2812
 3365TIP3    H131586   3.567   5.837  14.267 -0.4824 -2.2138 -0.4871
 3365TIP3    H231587   3.444   5.897  14.203  1.1388  2.1640  0.0939
 3366TIP3   OH231588   5.431   3.724   6.623  0.1269  0.2988 -0.3179
 3366TIP3    H131589   5.492   3.798   6.623 -0.1163  0.5075 -1.1733
 3366TIP3    H231590   5.360   3.751   6.566 -1.3521  0.5146  1.5131
 3367TIP3   OH231591   0.108   1.399   5.253 -0.0093 -0.3636 -0.0766
 3367TIP3    H131592   0.014   1.390   5.244  0.0482  0.5308 -2.3482
 3367TIP3    H231593   0.120   1.480   5.303 -0.4315 -0.6029  0.4169
 3368TIP3   OH231594   4.669   4.658   6.057  0.0474  0.0347 -0.2660
 3368TIP3    H131595   4.603   4.647   6.126  0.8533  0.9620  0.6958
 3368TIP3    H231596   4.656   4.747   6.025  0.1406 -0.1488 -0.8251
 3369TIP3   OH231597   3.855   0.032  16.855 -0.3802  0.2354  0.6903
 3369TIP3    H131598   3.877  -0.043  16.910  0.6767 -0.0157 -0.0448
 3369TIP3    H231599   3.800   0.087  16.910 -0.6183 -0.7611  1.4652
 3370TIP3   OH231600   4.248   4.405   0.031 -0.3449  0.6432 -0.1699
 3370TIP3    H131601   4.175   4.382  -0.027 -0.2703 -0.1598  0.0448
 3370TIP3    H231602   4.210   4.463   0.096 -0.4703  1.4081 -0.9102
 3371TIP3   OH231603   6.465   0.744   0.997 -0.1457  0.1498 -0.3183
 3371TIP3    H131604   6.423   0.808   0.940 -1.1682  0.4645  0.7434
 3371TIP3    H231605   6.399   0.676   1.010 -0.0289  0.2043  0.6631
 3372TIP3   OH231606   3.685   1.973  11.090  0.8076 -0.2964 -0.4272
 3372TIP3    H131607   3.691   1.959  11.185 -0.3133 -0.1581 -0.3242
 3372TIP3    H231608   3.766   2.019  11.068  0.8475  0.1348  0.5505
 3373TIP3   OH231609   0.242   5.069  12.392 -0.3720 -0.1207  0.0617
 3373TIP3    H131610   0.300   4.996  12.412 -0.7978 -0.6481 -0.5930
 3373TIP3    H231611   0.194   5.041  12.315  1.3508  1.8934 -1.9028
 3374TIP3   OH231612   6.193   0.636  11.618  0.0705 -0.2131 -0.3861
 3374TIP3    H131613   6.241   0.702  11.569  0.4740 -0.6585 -0.5986
 3374TIP3    H231614   6.255   0.605  11.684 -0.5741  0.6188  0.6467
 3375TIP3   OH231615   0.292   5.176  12.655  0.0759 -0.1549  0.0488
 3375TIP3    H131616   0.317   5.095  12.700  0.9671  0.1707  0.1583
 3375TIP3    H231617   0.250   5.146  12.574  2.1715 -0.7570 -0.8862
 3376TIP3   OH231618   2.301   3.643  13.432 -0.3734 -0.3470 -0.2248
 3376TIP3    H131619   2.224   3.676  13.386  0.3364  1.5811 -0.1232
 3376TIP3    H231620   2.317   3.557  13.393 -4.3709 -2.3123  1.8840
 3377TIP3   OH231621   3.842   0.557  13.302  0.5955  0.2338 -0.8279
 3377TIP3    H131622   3.829   0.486  13.239  0.2854  0.8221 -1.4406
 3377TIP3    H231623   3.933   0.583  13.290  1.0697 -0.8074  0.2149
 3378TIP3   OH231624   0.982   1.910  10.631 -0.2369  0.1625  0.0411
 3378TIP3    H131625   1.022   1.934  10.715 -0.9713  0.0792  0.4308
 3378TIP3    H231626   0.909   1.972  10.622  0.6579  1.0819 -1.2204
 3379TIP3   OH231627   6.200   2.725   1.853  0.6233 -0.6035 -0.2626
 3379TIP3    H131628   6.149   2.737   1.773  0.4582 -1.3207 -0.2717
 3379TIP3    H231629   6.289   2.749   1.829  0.3273  0.5783 -0.2699
 3380TIP3   OH231630   5.566   0.454  13.244  0.0609 -0.2495 -0.4030
 3380TIP3    H131631   5.531   0.511  13.312  0.0604 -1.0742  0.3003
 3380TIP3    H231632   5.515   0.475  13.166 -1.7457 -1.1179  0.4868
 3381TIP3   OH231633   0.216   2.683   1.256  0.7511  0.6882  0.0523
 3381TIP3    H131634   0.193   2.625   1.328 -1.4060  0.2320 -0.9148
 3381TIP3    H231635   0.308   2.705   1.271  1.3745 -2.1668  1.0106
 3382TIP3   OH231636   6.136   0.263  13.679  0.0952 -0.0967 -0.0186
 3382TIP3    H131637   6.204   0.235  13.618  1.2101 -0.4687  1.3339
 3382TIP3    H231638   6.060   0.209  13.659  0.3826 -0.0886 -1.1682
 3383TIP3   OH231639   1.779   3.738   2.393  0.8999  0.1003  0.5304
 3383TIP3    H131640   1.870   3.736   2.364  0.3192  2.2144 -1.7420
 3383TIP3    H231641   1.779   3.801   2.466  1.4388 -0.9991  1.5182
 3384TIP3   OH231642   2.809   4.896   2.882 -0.0977 -0.1876  0.5299
 3384TIP3    H131643   2.902   4.918   2.881  0.1313 -1.1262 -0.2510
 3384TIP3    H231644   2.807   4.802   2.902 -0.8252 -0.3774 -0.3700
 3385TIP3   OH231645   4.263   5.911  11.790 -0.3534  0.2750 -0.2445
 3385TIP3    H131646   4.216   5.992  11.812 -2.1662 -1.1284  1.4314
 3385TIP3    H231647   4.301   5.928  11.704  1.7115  3.8606  1.1738
 3386TIP3   OH231648   0.696   2.320  12.058  0.3472  0.1386 -0.6047
 3386TIP3    H131649   0.736   2.234  12.065  0.6632  0.4261  2.1230
 3386TIP3    H231650   0.602   2.303  12.046  0.3588 -0.5877  0.3107
 3387TIP3   OH231651   3.575   1.549  11.859  0.1389 -1.1716  0.8092
 3387TIP3    H131652   3.494   1.573  11.905 -0.5044  0.2841 -0.9707
 3387TIP3    H231653   3.615   1.633  11.836  2.8037 -1.8222  2.5961
 3388TIP3   OH231654   6.455   0.633   3.844  0.1909  0.0808 -0.6989
 3388TIP3    H131655   6.380   0.617   3.787  0.0216  2.1532 -1.1419
 3388TIP3    H231656   6.461   0.729   3.850  0.8311 -0.0388  1.9739
 3389TIP3   OH231657   2.966   2.053  17.059  0.5054 -0.1813  0.4307
 3389TIP3    H131658   2.996   2.089  16.975  0.1364  2.5709  1.3519
 3389TIP3    H231659   3.045   2.016  17.099  1.9569  3.0754  0.9550
 3390TIP3   OH231660   5.836   5.215  12.112  0.3249  0.0387 -0.4140
 3390TIP3    H131661   5.817   5.160  12.036  0.6363  1.3224 -1.4719
 3390TIP3    H231662   5.932   5.211  12.121  0.2631 -0.3318  0.0895
 3391TIP3   OH231663   2.920   4.774  15.365 -0.5619 -0.4775  0.6526
 3391TIP3    H131664   2.892   4.865  15.372  0.3398 -0.1346  0.0290
 3391TIP3    H231665   3.012   4.776  15.393 -0.6248 -1.2533  0.9289
 3392TIP3   OH231666   4.003   0.028  12.633  0.9004  0.1952  0.1403
 3392TIP3    H131667   3.961  -0.057  12.626 -0.1895  0.6893  0.4540
 3392TIP3    H231668   4.007   0.060  12.543 -1.3383  1.0214  0.2661
 3393TIP3   OH231669   4.442   0.988  16.877 -0.5879  0.2342 -0.0014
 3393TIP3    H131670   4.392   1.069  16.877 -2.1056 -0.6433 -0.9199
 3393TIP3    H231671   4.420   0.946  16.961 -0.1833  0.5417  0.2623
 3394TIP3   OH231672   6.719   3.940  12.982 -0.4432 -0.1853 -0.0449
 3394TIP3    H131673   6.679   4.005  13.040 -0.8442 -1.1130  0.7381
 3394TIP3    H231674   6.644   3.902  12.935 -0.0215  1.5318 -2.2539
 3395TIP3   OH231675   4.462   1.558   5.150  0.0329 -0.2590  0.6830
 3395TIP3    H131676   4.527   1.491   5.168 -0.3837 -0.9851 -0.4581
 3395TIP3    H231677   4.512   1.639   5.142  1.3228 -1.2496 -3.3888
 3396TIP3   OH231678   1.946   6.335  11.642  0.3019 -0.5491 -0.9997
 3396TIP3    H131679   1.999   6.412  11.623  1.9876 -1.3428  0.2091
 3396TIP3    H231680   1.939   6.289  11.558  1.1470 -0.1890 -1.2740
 3397TIP3   OH231681   0.911   6.164   4.381  0.1119 -0.1847 -0.1514
 3397TIP3    H131682   0.837   6.136   4.327 -0.5703 -2.3265  1.6861
 3397TIP3    H231683   0.988   6.142   4.330 -0.5203 -0.6536 -0.9255
 3398TIP3   OH231684   4.564   4.314   0.369 -0.0093 -0.1329 -0.1151
 3398TIP3    H131685   4.549   4.323   0.275  0.4557 -0.5188 -0.2293
 3398TIP3    H231686   4.478   4.297   0.406 -0.4596  1.5706 -0.2714
 3399TIP3   OH231687   4.998   6.646  14.852 -0.1086 -0.0539  0.1527
 3399TIP3    H131688   4.926   6.696  14.813  0.6546 -0.0354 -1.2937
 3399TIP3    H231689   5.077   6.680  14.810  0.7164 -0.3539  1.4207
 3400TIP3   OH231690   6.538   0.870  13.017 -0.5350 -0.1334 -0.2511
 3400TIP3    H131691   6.456   0.842  13.058 -0.7658 -0.0960 -0.6803
 3400TIP3    H231692   6.605   0.850  13.081 -0.6487 -1.9028 -0.6248
 3401TIP3   OH231693   4.701   1.647  15.704 -0.1777 -0.2206  0.7134
 3401TIP3    H131694   4.761   1.584  15.746  0.6579  0.7636  1.0321
 3401TIP3    H231695   4.726   1.645  15.612 -0.1736 -0.3746  0.7163
 3402TIP3   OH231696   5.883   0.358  10.712 -0.2739  0.0089 -0.3697
 3402TIP3    H131697   5.889   0.402  10.627 -0.1429 -0.3490 -0.5453
 3402TIP3    H231698   5.799   0.313  10.711  1.0086 -2.5810 -1.5721
 3403TIP3   OH231699   1.638   5.892   6.005  0.3454 -0.0701  0.0050
 3403TIP3    H131700   1.564   5.832   6.007 -0.6543  1.0557 -1.0896
 3403TIP3    H231701   1.698   5.858   6.071 -1.5395 -0.5327  1.6198
 3404TIP3   OH231702   5.865   5.286   3.655  0.4437  0.0257  0.3989
 3404TIP3    H131703   5.845   5.202   3.696  1.6166  0.4019  1.8037
 3404TIP3    H231704   5.958   5.282   3.636  0.2505  0.5154 -0.7563
 3405TIP3   OH231705   2.173   3.880  11.814 -0.2433 -0.0221 -0.4620
 3405TIP3    H131706   2.190   3.955  11.872 -0.6867 -0.3714  0.1445
 3405TIP3    H231707   2.208   3.906  11.729 -0.9442  1.1304 -0.4206
 3406TIP3   OH231708   1.538   6.164   5.436  0.3108  0.1409 -0.2345
 3406TIP3    H131709   1.571   6.108   5.365  1.1799  0.7384 -0.3157
 3406TIP3    H231710   1.457   6.201   5.401  0.8052  0.5440 -0.9878
 3407TIP3   OH231711   6.167   3.532   6.118  0.2985 -0.2432 -0.6468
 3407TIP3    H131712   6.256   3.566   6.120  1.0125 -1.8877 -1.7619
 3407TIP3    H231713   6.168   3.468   6.047 -1.7523 -0.3764 -0.6046
 3408TIP3   OH231714   3.092   0.011  16.946  0.0469  0.4324  0.0971
 3408TIP3    H131715   3.075   0.064  17.024  1.5659  0.0205  0.7444
 3408TIP3    H231716   3.155   0.062  16.896  0.5081 -0.1510  0.0728
 3409TIP3   OH231717   4.944   5.740   1.200 -0.1361  0.3428  0.4086
 3409TIP3    H131718   5.000   5.797   1.147  0.5612 -0.7172 -0.0397
 3409TIP3    H231719   4.985   5.741   1.287  0.4041 -0.1710  0.1673
 3410TIP3   OH231720   0.246   4.076  16.349 -0.0120  0.4729  0.2612
 3410TIP3    H131721   0.282   4.014  16.413 -0.7413 -0.4317 -0.1790
 3410TIP3    H231722   0.321   4.100  16.294  0.2439 -0.1668  0.3252
 3411TIP3   OH231723   4.541   6.282   1.662  0.0246  0.2230 -0.0979
 3411TIP3    H131724   4.481   6.211   1.685  0.8747 -0.7219 -0.6767
 3411TIP3    H231725   4.497   6.361   1.692  0.5152 -0.7353  3.6536
 3412TIP3   OH231726   3.752   5.091   2.738 -0.1661 -0.2603  0.4006
 3412TIP3    H131727   3.734   5.033   2.811 -1.5808  1.7202  1.7295
 3412TIP3    H231728   3.816   5.044   2.684  0.3698 -2.0790  2.5134
 3413TIP3   OH231729   2.916   5.464  14.063 -0.1143  0.2117  0.2162
 3413TIP3    H131730   2.983   5.399  14.086 -0.0888 -0.3916 -1.4130
 3413TIP3    H231731   2.876   5.429  13.983 -1.5818  1.1517  0.4983
 3414TIP3   OH231732   6.006   1.788   5.972  0.6239 -0.1206  0.4678
 3414TIP3    H131733   6.005   1.815   5.881 -1.2848  1.7835  0.9719
 3414TIP3    H231734   5.989   1.694   5.970 -2.5200  0.3604 -1.0965
 3415TIP3   OH231735   3.778   0.391  16.935  0.0881 -0.2557 -0.0141
 3415TIP3    H131736   3.730   0.375  16.853 -0.9242  0.9547  0.3049
 3415TIP3    H231737   3.870   0.374  16.913  0.1149  1.8937 -1.9823
 3416TIP3   OH231738   2.716   1.792  17.337 -0.0509 -0.1244  0.4684
 3416TIP3    H131739   2.623   1.770  17.343  0.1511 -0.6518  2.8784
 3416TIP3    H231740   2.730   1.856  17.407  1.2622  0.5687 -0.3778
 3417TIP3   OH231741   6.504   5.764  11.209 -0.0361 -0.0471  0.1048
 3417TIP3    H131742   6.524   5.829  11.277 -0.4945 -0.7015  0.8841
 3417TIP3    H231743   6.577   5.770  11.148  0.0496  1.0334  0.2885
 3418TIP3   OH231744   1.146   6.404   6.111 -0.9417 -0.2519 -0.8119
 3418TIP3    H131745   1.197   6.469   6.161 -1.3904  0.0642 -0.7583
 3418TIP3    H231746   1.055   6.427   6.128 -1.1038 -0.7304 -1.0206
 3419TIP3   OH231747   3.584   5.567  11.950 -0.2071  0.3651  0.2992
 3419TIP3    H131748   3.616   5.506  11.884 -0.2611 -0.1688  0.7536
 3419TIP3    H231749   3.603   5.653  11.915 -1.6100  0.1428 -1.1167
 3420TIP3   OH231750   5.155   4.181  15.606  0.0303  0.5040 -0.2389
 3420TIP3    H131751   5.128   4.100  15.563  0.7534  1.4832 -2.7204
 3420TIP3    H231752   5.248   4.169  15.624  0.0336  0.5955 -0.1938
 3421TIP3   OH231753   3.301   6.107  15.017  0.7848  0.5514  0.5119
 3421TIP3    H131754   3.297   6.170  14.945 -0.0945  0.2976  0.3165
 3421TIP3    H231755   3.296   6.021  14.974  2.0158  0.3350  0.7700
 3422TIP3   OH231756   0.545   0.429  13.640  0.1029 -0.1645 -0.4358
 3422TIP3    H131757   0.580   0.474  13.562 -1.6110  2.7292  0.3081
 3422TIP3    H231758   0.609   0.448  13.709 -0.2631  0.5876 -0.2909
 3423TIP3   OH231759   5.877   0.801   0.579  0.0198  0.7945  0.0874
 3423TIP3    H131760   5.828   0.733   0.532  1.0371 -0.6539  1.0433
 3423TIP3    H231761   5.811   0.867   0.600 -0.9499  0.2478 -1.1009
 3424TIP3   OH231762   3.924   5.906   3.578  0.3132  0.3443  0.1993
 3424TIP3    H131763   3.958   5.818   3.596 -0.3696  0.3505  1.6381
 3424TIP3    H231764   3.974   5.936   3.502  0.0558 -1.5574 -0.7702
 3425TIP3   OH231765   5.813   4.362  14.834 -0.6565  0.2373  0.2371
 3425TIP3    H131766   5.718   4.367  14.839 -1.0331 -2.6706 -1.4648
 3425TIP3    H231767   5.836   4.281  14.880  0.7032 -0.3313 -1.3307
 3426TIP3   OH231768   6.020   4.550   1.053 -0.4166 -0.3782  0.1460
 3426TIP3    H131769   6.068   4.497   1.117 -1.6583 -2.8685 -0.8709
 3426TIP3    H231770   5.931   4.555   1.087 -1.1997 -2.0758 -1.4728
 3427TIP3   OH231771   6.754   5.623   6.156 -0.3242  0.0338  0.4813
 3427TIP3    H131772   6.700   5.577   6.091 -1.9241 -1.2165  2.5697
 3427TIP3    H231773   6.693   5.682   6.200  0.7832  1.0403  0.7035
 3428TIP3   OH231774   5.041   0.008  15.677  0.3733  0.0282 -0.0364
 3428TIP3    H131775   5.029  -0.022  15.767  0.2371  0.2315  0.0161
 3428TIP3    H231776   5.112  -0.046  15.642 -0.5241 -1.0219 -0.2680
 3429TIP3   OH231777   6.101   3.758  14.325  0.2902  0.0127  0.4265
 3429TIP3    H131778   6.177   3.701  14.325 -0.4008 -0.9873  2.0198
 3429TIP3    H231779   6.077   3.766  14.233  2.1879  0.2089 -0.0824
 3430TIP3   OH231780   2.877   5.772   4.400  0.0053 -0.1000  0.2003
 3430TIP3    H131781   2.874   5.686   4.443 -1.4316 -0.5221 -0.6650
 3430TIP3    H231782   2.959   5.771   4.350 -1.0894 -1.9642 -1.6896
 3431TIP3   OH231783   5.662   0.979   0.573  0.4553 -0.2236 -0.0900
 3431TIP3    H131784   5.618   1.064   0.573  0.4856 -0.2090 -0.5139
 3431TIP3    H231785   5.591   0.917   0.591 -0.0224 -0.3351 -2.1179
 3432TIP3   OH231786   4.500   3.073  13.994 -0.1876  0.3046  0.3183
 3432TIP3    H131787   4.558   3.105  14.063  0.3609  1.9161 -0.8410
 3432TIP3    H231788   4.422   3.128  14.001 -0.7437 -0.4949  0.5565
 3433TIP3   OH231789   1.195   5.458   4.178 -0.4222  0.3052 -0.0892
 3433TIP3    H131790   1.146   5.533   4.143 -1.7362 -0.3213  0.3221
 3433TIP3    H231791   1.268   5.447   4.118 -1.1830  0.8452 -1.1560
 3434TIP3   OH231792   6.596   1.071  11.893 -0.2834 -0.4485  0.2073
 3434TIP3    H131793   6.668   1.054  11.953 -1.3048  0.8369  1.8866
 3434TIP3    H231794   6.629   1.044  11.807  2.2292  0.2021  0.8949
 3435TIP3   OH231795   3.737   5.400   1.067 -0.4396  0.2909 -0.4375
 3435TIP3    H131796   3.770   5.473   1.121 -2.1278  0.5139  0.3719
 3435TIP3    H231797   3.783   5.323   1.100 -0.0202  0.7153 -0.0075
 3436TIP3   OH231798   5.746   1.049  14.462 -0.3725 -0.0388 -0.1937
 3436TIP3    H131799   5.782   1.078  14.379 -0.9394 -0.9127 -0.7704
 3436TIP3    H231800   5.821   1.044  14.521  0.3836 -1.2865 -1.2099
 3437TIP3   OH231801   1.691   3.642   4.567 -0.4356 -0.2633  0.1545
 3437TIP3    H131802   1.678   3.633   4.661 -0.9138 -1.0817  0.0180
 3437TIP3    H231803   1.696   3.552   4.534  0.5547  0.0040 -0.4969
 3438TIP3   OH231804   1.536   1.946   0.734 -0.1061 -0.1275  0.1669
 3438TIP3    H131805   1.484   1.871   0.764  0.8149 -0.9404 -0.1869
 3438TIP3    H231806   1.610   1.906   0.687  0.9742  0.9703  0.8685
 3439TIP3   OH231807   3.200   1.319   6.317 -0.3968  0.3950  0.7864
 3439TIP3    H131808   3.211   1.240   6.264  0.5849  1.9333 -1.4640
 3439TIP3    H231809   3.126   1.299   6.374 -0.4841 -1.9644 -0.0302
 3440TIP3   OH231810   2.341   3.067  16.468  0.4948  0.8988  0.7954
 3440TIP3    H131811   2.287   3.092  16.543 -1.8698 -0.0690 -0.4644
 3440TIP3    H231812   2.348   2.972  16.473 -1.2066  0.5965 -1.0356
 3441TIP3   OH231813   0.330   4.946   1.707  0.7697  0.1427  0.0016
 3441TIP3    H131814   0.351   4.978   1.619  0.8499 -0.9714 -0.3933
 3441TIP3    H231815   0.269   4.873   1.692 -1.5085  1.7127  0.9967
 3442TIP3   OH231816   1.368   0.511  14.139  0.7919 -0.4874  0.0631
 3442TIP3    H131817   1.402   0.561  14.065 -2.6038  0.7785 -0.8323
 3442TIP3    H231818   1.374   0.572  14.213  0.9926 -0.4829  0.0434
 3443TIP3   OH231819   2.775   1.562   5.214 -0.0238  0.5559  0.0919
 3443TIP3    H131820   2.865   1.593   5.216  0.4403 -0.7041 -0.4244
 3443TIP3    H231821   2.725   1.636   5.181  1.2043  0.4387 -2.2258
 3444TIP3   OH231822   5.430   6.606  12.455 -0.2369  0.4929  0.0260
 3444TIP3    H131823   5.476   6.690  12.444 -1.2372  0.9602 -0.7022
 3444TIP3    H231824   5.363   6.624  12.521 -1.2143  0.6072 -0.9716
 3445TIP3   OH231825   1.823   6.272   0.698  0.6235  0.8658  0.2221
 3445TIP3    H131826   1.752   6.331   0.723  0.3177  0.5932  0.0039
 3445TIP3    H231827   1.805   6.191   0.746 -0.0096  0.3122 -0.9148
 3446TIP3   OH231828   5.235   6.269  17.106  0.6320  0.7733 -0.2848
 3446TIP3    H131829   5.211   6.198  17.047 -1.0034  0.7582  0.3425
 3446TIP3    H231830   5.330   6.261  17.116  0.6593 -0.4675 -1.2956
 3447TIP3   OH231831   6.236   5.634   3.981 -0.4727  0.2318  0.1464
 3447TIP3    H131832   6.233   5.703   3.916  2.8006  0.3537 -0.0468
 3447TIP3    H231833   6.156   5.644   4.032 -1.8662  1.7557 -2.1969
 3448TIP3   OH231834   1.793   1.870  15.568  0.4877 -0.0831 -0.0068
 3448TIP3    H131835   1.768   1.960  15.591 -0.1783 -0.2726  0.0095
 3448TIP3    H231836   1.718   1.835  15.520  1.8543  0.3543 -2.6770
 3449TIP3   OH231837   5.615   5.385   5.407 -0.2474  0.4143 -0.4498
 3449TIP3    H131838   5.644   5.469   5.371 -0.0615 -0.0836 -1.5089
 3449TIP3    H231839   5.671   5.371   5.483 -0.6962  1.5325  0.1041
 3450TIP3   OH231840   0.395   4.443   0.636 -0.2032 -0.2566 -0.6320
 3450TIP3    H131841   0.385   4.537   0.624  0.5758 -0.0045  0.4965
 3450TIP3    H231842   0.337   4.422   0.709 -2.2123 -1.1124 -2.3812
 3451TIP3   OH231843   2.694   2.776   1.579  1.4298 -0.0022  0.0212
 3451TIP3    H131844   2.660   2.861   1.553  1.3043  0.1198  0.5792
 3451TIP3    H231845   2.732   2.740   1.499  0.8930  0.2914 -0.3702
 3452TIP3   OH231846   1.298   1.678  16.843 -0.1640  0.3884  1.0417
 3452TIP3    H131847   1.361   1.740  16.806  1.0999 -1.0906  0.6094
 3452TIP3    H231848   1.294   1.701  16.936 -0.6643  1.8699  0.6898
 3453TIP3   OH231849   6.289   2.597  12.268 -0.1443  0.6887 -0.2996
 3453TIP3    H131850   6.254   2.523  12.318  0.9658  0.4726  0.1955
 3453TIP3    H231851   6.383   2.598  12.289  0.1946  1.1160 -1.7401
 3454TIP3   OH231852   6.170   1.716   2.595  0.2980  0.4443  0.1656
 3454TIP3    H131853   6.139   1.666   2.671  1.3978 -0.4065  0.0732
 3454TIP3    H231854   6.191   1.803   2.631  2.3220 -0.4104  1.1978
 3455TIP3   OH231855   1.854   2.689  13.300 -0.8439 -0.1871 -0.2305
 3455TIP3    H131856   1.834   2.780  13.318 -0.5249 -0.2051  0.2422
 3455TIP3    H231857   1.912   2.662  13.372  0.5586 -0.2431 -1.3449
 3456TIP3   OH231858   5.039   4.067  11.356 -0.2999 -0.5483 -0.1832
 3456TIP3    H131859   5.067   4.150  11.394  0.8663 -0.3545 -1.3743
 3456TIP3    H231860   4.952   4.085  11.321 -0.9249 -0.4289  1.3520
 3457TIP3   OH231861   2.420   2.228  14.025 -0.5423 -0.3194  0.4912
 3457TIP3    H131862   2.412   2.294  13.955  0.2281 -1.1163 -0.3815
 3457TIP3    H231863   2.331   2.216  14.056 -0.9992 -0.3449 -0.7463
 3458TIP3   OH231864   6.622   3.384  16.246  0.5955 -0.9393  0.1013
 3458TIP3    H131865   6.680   3.438  16.300 -0.4888 -1.3935  1.7862
 3458TIP3    H231866   6.618   3.431  16.162  0.5257  1.0691  1.1570
 3459TIP3   OH231867   0.424   3.284   3.982  0.0074 -0.4431  0.1342
 3459TIP3    H131868   0.511   3.245   3.973 -0.4096 -0.9180 -2.9163
 3459TIP3    H231869   0.400   3.309   3.893 -3.1508 -0.6764  0.8180
 3460TIP3   OH231870   5.488   5.649  15.118  0.7716  0.8619  0.6613
 3460TIP3    H131871   5.523   5.563  15.096  0.0275  0.3163  1.5349
 3460TIP3    H231872   5.564   5.699  15.149  1.6773  1.3533 -2.0674
 3461TIP3   OH231873   2.206   5.291   2.062  0.0047 -0.0979  0.3602
 3461TIP3    H131874   2.225   5.206   2.101  1.5373 -0.1887 -0.5253
 3461TIP3    H231875   2.237   5.285   1.972  0.3729  1.4683  0.3458
 3462TIP3   OH231876   1.056   5.174   5.191 -0.3924 -0.5378  1.1212
 3462TIP3    H131877   1.092   5.229   5.260  2.4490 -0.6135 -0.1353
 3462TIP3    H231878   1.025   5.096   5.236 -1.2220  0.5634  2.5558
 3463TIP3   OH231879   6.291   3.526  13.306  0.2165  0.2845  0.4897
 3463TIP3    H131880   6.343   3.449  13.283  0.5357  0.4060  0.8082
 3463TIP3    H231881   6.300   3.584  13.230  0.2940  0.1790  0.4183
 3464TIP3   OH231882   4.198   1.675   3.125  0.5776 -0.9658  0.3145
 3464TIP3    H131883   4.166   1.634   3.044  0.7119  0.1216 -0.3115
 3464TIP3    H231884   4.259   1.742   3.095 -1.4427  1.4037  1.1293
 3465TIP3   OH231885   3.048   3.949   3.023  0.6722  0.2220  0.0212
 3465TIP3    H131886   3.070   4.011   2.953  0.1265  1.3414  0.7946
 3465TIP3    H231887   3.124   3.951   3.081  0.9775 -0.4376 -0.3465
 3466TIP3   OH231888   2.379   5.945   1.750  0.1815  0.2853  0.6566
 3466TIP3    H131889   2.315   6.008   1.715  0.0729 -0.6967 -0.9980
 3466TIP3    H231890   2.326   5.887   1.805 -0.3108 -0.2255 -0.3160
 3467TIP3   OH231891   5.847   0.444  14.016 -0.3687  0.0570 -0.0865
 3467TIP3    H131892   5.812   0.374  14.071  0.7680 -0.4490  0.0013
 3467TIP3    H231893   5.828   0.416  13.926  2.0279 -1.4942 -0.1872
 3468TIP3   OH231894   1.100   0.005   4.160 -0.0912  0.2860  0.2160
 3468TIP3    H131895   1.168   0.006   4.227 -0.9914 -0.2531  1.1624
 3468TIP3    H231896   1.128  -0.063   4.098  1.0731  1.2249 -0.3587
 3469TIP3   OH231897   3.687   3.265   0.082  0.1701  0.3174  0.0827
 3469TIP3    H131898   3.670   3.174   0.059  0.8605 -0.3978  2.1806
 3469TIP3    H231899   3.607   3.312   0.058 -1.3803 -1.3831  1.6399
 3470TIP3   OH231900   4.220   2.761  15.552  0.0741 -0.5703  0.4221
 3470TIP3    H131901   4.248   2.850  15.575  0.0733 -0.6537  0.7564
 3470TIP3    H231902   4.245   2.751  15.460  0.0306 -0.2076  0.3678
 3471TIP3   OH231903   0.325   0.811  11.295  0.2010  0.2780 -0.2748
 3471TIP3    H131904   0.272   0.747  11.343  0.0271  0.5309 -0.1226
 3471TIP3    H231905   0.414   0.795  11.325 -0.0636  1.3073  1.1767
 3472TIP3   OH231906   4.615   6.195   6.378 -0.5440 -0.0643 -0.0309
 3472TIP3    H131907   4.559   6.271   6.364 -0.1962  0.1437 -0.3159
 3472TIP3    H231908   4.680   6.200   6.308 -0.9869 -1.0609 -0.5353
 3473TIP3   OH231909   0.136   3.871   2.645  0.0150  0.1699 -0.1047
 3473TIP3    H131910   0.164   3.781   2.659 -0.0357  0.0886 -0.4966
 3473TIP3    H231911   0.155   3.916   2.727 -0.4714 -0.3246  0.2812
 3474TIP3   OH231912   6.389   4.887  14.791  0.8404  0.0538  0.6918
 3474TIP3    H131913   6.313   4.837  14.822  0.2443 -0.8273 -1.9399
 3474TIP3    H231914   6.459   4.822  14.785  0.2564 -0.4400 -2.0598
 3475TIP3   OH231915   5.317   1.089   2.507  0.5359 -0.3453  0.3627
 3475TIP3    H131916   5.306   1.176   2.544  1.3318 -0.2680  0.4162
 3475TIP3    H231917   5.269   1.031   2.567  0.1678  0.0206  0.4288
 3476TIP3   OH231918   4.917   1.388  11.766 -0.2816  0.3080  0.5917
 3476TIP3    H131919   4.825   1.372  11.789 -0.2821 -0.9154 -0.2128
 3476TIP3    H231920   4.915   1.470  11.716 -0.8129  0.7083  1.2358
 3477TIP3   OH231921   3.348   5.918  12.641  0.5777  0.2847 -0.4877
 3477TIP3    H131922   3.405   5.982  12.598 -0.1440  0.0801 -1.7950
 3477TIP3    H231923   3.324   5.856  12.572 -0.2066 -0.3623  0.3316
 3478TIP3   OH231924   5.841   3.942  12.953  0.4101 -0.2877  0.0883
 3478TIP3    H131925   5.841   4.036  12.969  1.0300  0.0278 -1.6048
 3478TIP3    H231926   5.888   3.931  12.871  0.0911 -2.0584  0.0982
 3479TIP3   OH231927   5.638   1.160  13.499 -0.0572 -0.5707  0.5571
 3479TIP3    H131928   5.647   1.070  13.532 -0.0027 -1.6045 -1.9957
 3479TIP3    H231929   5.556   1.159  13.449  1.0378  0.1225 -1.3435
 3480TIP3   OH231930   3.805   5.908  13.918  0.2496 -0.6021 -0.4229
 3480TIP3    H131931   3.710   5.924  13.919 -0.0640 -2.0721 -2.2712
 3480TIP3    H231932   3.838   5.964  13.848  0.6794 -0.5655 -0.1953
 3481TIP3   OH231933   4.916   5.205  12.450 -0.4446 -0.0761  0.2029
 3481TIP3    H131934   4.830   5.232  12.417 -0.7159 -0.5932  0.4616
 3481TIP3    H231935   4.946   5.139  12.388  0.0491  0.5481 -0.2296
 3482TIP3   OH231936   4.584   6.708  17.225  0.1690  0.0125 -0.2992
 3482TIP3    H131937   4.592   6.757  17.307 -1.7238 -0.8750  0.4956
 3482TIP3    H231938   4.671   6.672  17.209 -0.1717 -3.4780  3.7663
 3483TIP3   OH231939   3.364   5.213  12.240 -0.1578  0.0133 -0.5238
 3483TIP3    H131940   3.347   5.121  12.260  1.3810  0.2042  2.2068
 3483TIP3    H231941   3.289   5.241  12.188 -1.8141 -2.1921  0.5124
 3484TIP3   OH231942   6.462   0.440   4.226 -0.0315  0.3864  0.7111
 3484TIP3    H131943   6.543   0.476   4.189 -1.2706  1.7217 -0.8591
 3484TIP3    H231944   6.484   0.349   4.247  1.6192  0.4244 -0.5978
 3485TIP3   OH231945   6.465   3.180  14.840 -0.0073 -0.9323  0.2416
 3485TIP3    H131946   6.433   3.167  14.929  1.0066 -2.7049  0.4032
 3485TIP3    H231947   6.406   3.245  14.802 -1.9126 -1.8661  1.4435
 3486TIP3   OH231948   2.349   2.448   5.717  0.1865 -0.4624  0.2928
 3486TIP3    H131949   2.377   2.539   5.709 -0.8082 -0.1580  0.1532
 3486TIP3    H231950   2.376   2.421   5.804 -1.3491  0.6319  1.1502
 3487TIP3   OH231951   0.380   2.124  15.292 -0.5753  0.2286 -0.7297
 3487TIP3    H131952   0.391   2.033  15.319 -0.5001  0.9569  2.0687
 3487TIP3    H231953   0.454   2.142  15.235  1.5982 -0.4996  1.6699
 3488TIP3   OH231954   6.794   0.219   2.351  0.0821 -0.2300 -0.2056
 3488TIP3    H131955   6.742   0.276   2.407 -0.5876 -0.3255 -0.7249
 3488TIP3    H231956   6.730   0.167   2.303  0.6502 -2.0681  0.8989
 3489TIP3   OH231957   3.251   6.516   4.171  0.2203  0.2158 -0.0709
 3489TIP3    H131958   3.322   6.557   4.221 -0.1272  1.1265 -0.2946
 3489TIP3    H231959   3.246   6.568   4.091 -0.7686  0.2326 -0.0066
 3490TIP3   OH231960   2.440   1.968   5.876  0.2170 -0.7029 -0.1310
 3490TIP3    H131961   2.388   1.897   5.837 -0.7501 -0.3350  0.4542
 3490TIP3    H231962   2.531   1.938   5.867 -0.1204 -1.6390 -0.6368
 3491TIP3   OH231963   3.383   2.058  11.338  0.1717  0.7198  0.3871
 3491TIP3    H131964   3.288   2.054  11.350 -0.0400 -0.5147 -1.3948
 3491TIP3    H231965   3.399   2.147  11.305 -0.2078  1.2909  1.6763
 3492TIP3   OH231966   5.161   6.197   5.032  0.1449  0.0684  0.2446
 3492TIP3    H131967   5.118   6.238   5.107 -0.2037 -1.7180  1.0633
 3492TIP3    H231968   5.178   6.107   5.060 -1.4880 -1.1685 -2.3961
 3493TIP3   OH231969   0.706   6.107  16.711 -0.0377  0.4215  0.5093
 3493TIP3    H131970   0.669   6.043  16.651  0.1777  1.8730 -1.2397
 3493TIP3    H231971   0.662   6.089  16.795 -1.8113 -0.3853 -0.5334
 3494TIP3   OH231972   0.088   3.341  13.422 -0.0352 -0.3751  0.1038
 3494TIP3    H131973  -0.007   3.327  13.426 -0.1717  0.5423  0.2554
 3494TIP3    H231974   0.124   3.276  13.483 -0.6441 -0.0600  0.8152
 3495TIP3   OH231975   5.378   3.853   2.175  0.2548  0.2446  0.2159
 3495TIP3    H131976   5.373   3.928   2.114 -0.4382 -0.3747 -0.5130
 3495TIP3    H231977   5.468   3.822   2.167 -0.1971 -0.7508 -1.6717
 3496TIP3   OH231978   1.884   0.455   0.679  0.1070 -0.2275 -0.8228
 3496TIP3    H131979   1.917   0.523   0.620 -0.1339 -2.3384 -3.6213
 3496TIP3    H231980   1.962   0.418   0.720  0.4828  0.0723 -1.2581
 3497TIP3   OH231981   1.889   0.909   4.570  0.3330  0.3032  0.1521
 3497TIP3    H131982   1.825   0.947   4.509 -0.0832  0.5765  0.7513
 3497TIP3    H231983   1.973   0.926   4.528  0.0273  0.0721 -0.5756
 3498TIP3   OH231984   0.629   4.102  14.251  0.0255 -0.1480 -0.6408
 3498TIP3    H131985   0.607   4.184  14.295 -0.7908  0.1353 -1.5354
 3498TIP3    H231986   0.557   4.089  14.188 -1.4397 -3.0252  1.4055
 3499TIP3   OH231987   3.106   4.003  13.969  0.5155 -0.0430 -0.5527
 3499TIP3    H131988   3.123   4.087  13.925  0.8080 -0.0913 -0.5339
 3499TIP3    H231989   3.089   3.942  13.897 -1.3707  0.3798 -0.5213
 3500TIP3   OH231990   2.115   4.230  11.552  0.1865  0.0098  0.2279
 3500TIP3    H131991   2.118   4.316  11.510 -0.2062  0.6519  1.4615
 3500TIP3    H231992   2.123   4.168  11.480 -1.2721  1.0439 -0.8893
 3501TIP3   OH231993   5.198   1.556   2.332  0.0437  0.1365 -0.0753
 3501TIP3    H131994   5.242   1.471   2.324  2.0391  1.0737  0.2830
 3501TIP3    H231995   5.207   1.596   2.246 -1.0550 -0.0568 -0.2974
 3502TIP3   OH231996   4.447   2.915   1.938 -0.3236  0.6222  1.4084
 3502TIP3    H131997   4.365   2.916   1.889 -0.5866 -0.8315  1.7748
 3502TIP3    H231998   4.470   2.822   1.944  1.4862  1.0138  1.1085
 3503TIP3   OH231999   3.000   6.081   3.770  0.7068 -0.0296 -0.2622
 3503TIP3    H132000   3.030   6.054   3.683  2.3974 -1.4829  0.7081
 3503TIP3    H232001   3.022   6.174   3.775 -1.5405  0.7321 -2.1697
 3504TIP3   OH232002   4.255   1.759  11.536  0.2728  0.3463 -0.0766
 3504TIP3    H132003   4.259   1.777  11.442  0.7794  2.1248  0.2432
 3504TIP3    H232004   4.334   1.709  11.555 -1.0193 -2.1931 -0.9621
 3505TIP3   OH232005   3.821   6.350   1.473 -0.0168 -0.1519 -0.5697
 3505TIP3    H132006   3.876   6.370   1.549 -2.4128  0.4929  1.1127
 3505TIP3    H232007   3.872   6.287   1.423  2.1513  0.2616  0.9554
 3506TIP3   OH232008   3.522   4.879   0.895  0.6674  0.1330 -0.2495
 3506TIP3    H132009   3.463   4.951   0.918  2.7409  2.4210 -1.4924
 3506TIP3    H232010   3.573   4.864   0.975  1.8162  1.8038 -0.6057
 3507TIP3   OH232011   0.623   4.622  12.652 -0.4261 -0.2994  0.3476
 3507TIP3    H132012   0.646   4.538  12.612 -0.6459 -0.7063  1.0777
 3507TIP3    H232013   0.693   4.681  12.624  1.4073 -1.4400  2.2439
 3508TIP3   OH232014   6.528   2.163  11.371 -0.1731 -0.1003  0.0637
 3508TIP3    H132015   6.515   2.217  11.449 -0.4252 -1.2546  0.8320
 3508TIP3    H232016   6.623   2.148  11.368 -0.1844 -0.2194  0.2681
 3509TIP3   OH232017   6.183   2.926  13.854 -0.0406 -0.2233  1.1153
 3509TIP3    H132018   6.110   2.939  13.793  0.1640 -0.8689  0.7207
 3509TIP3    H232019   6.237   2.858  13.813  1.4418  1.0900  0.8114
 3510TIP3   OH232020   1.749   0.490  12.521  0.2511  0.2779  0.1421
 3510TIP3    H132021   1.797   0.572  12.521 -1.7543  1.5343  0.1901
 3510TIP3    H232022   1.657   0.517  12.518 -0.4691 -1.9741  0.3624
 3511TIP3   OH232023   4.103   3.993   5.178 -0.2120 -0.8869  0.4132
 3511TIP3    H132024   4.031   3.974   5.238  0.4363  0.3881  1.6376
 3511TIP3    H232025   4.095   4.086   5.159 -0.9001 -1.3808 -2.2197
 3512TIP3   OH232026   5.174   5.585   6.032 -0.3105  0.3836  0.0316
 3512TIP3    H132027   5.165   5.680   6.033 -0.9796  0.3300 -0.2881
 3512TIP3    H232028   5.211   5.563   6.118 -0.6552  0.8847  0.3095
 3513TIP3   OH232029   5.132   4.682   6.292 -0.1862 -0.6465 -0.0938
 3513TIP3    H132030   5.080   4.684   6.211 -0.9457  0.8317  0.3843
 3513TIP3    H232031   5.068   4.669   6.362  0.2884 -0.4959  0.3773
 3514TIP3   OH232032   1.493   1.461  14.905  0.1986 -0.6925  0.0880
 3514TIP3    H132033   1.474   1.371  14.932 -0.0370 -1.2293 -1.7290
 3514TIP3    H232034   1.586   1.459  14.880 -0.1502 -0.8023 -1.2642
 3515TIP3   OH232035   5.084   3.569  14.187 -0.1116 -0.4641  0.1788
 3515TIP3    H132036   5.122   3.481  14.180  0.0867 -0.3489 -0.2294
 3515TIP3    H232037   5.145   3.625  14.140 -0.2183 -0.1000  0.4742
 3516TIP3   OH232038   2.671   0.840  12.421 -0.2771 -0.1991 -0.7301
 3516TIP3    H132039   2.676   0.934  12.405 -2.4339  0.2521  0.8314
 3516TIP3    H232040   2.757   0.818  12.459  1.1683  0.5695 -3.3258
 3517TIP3   OH232041   3.071   4.328  11.669 -0.6788 -1.0717 -0.3723
 3517TIP3    H132042   2.993   4.373  11.700  0.1806 -0.5712  1.2282
 3517TIP3    H232043   3.105   4.384  11.599 -0.4998 -0.0324  0.5130
 3518TIP3   OH232044   5.766   2.445   4.751  0.9424  0.0795  0.1990
 3518TIP3    H132045   5.726   2.516   4.801  0.7372  0.0547  0.0716
 3518TIP3    H232046   5.856   2.475   4.734  1.3858 -0.4095  1.5715
 3519TIP3   OH232047   3.340   4.412   6.013  0.1196 -0.0131 -0.4422
 3519TIP3    H132048   3.386   4.492   6.039  0.7449  0.3428 -2.4730
 3519TIP3    H232049   3.263   4.442   5.967  0.0287 -0.5955 -0.6777
 3520TIP3   OH232050   4.373   1.110   4.051  0.2898 -0.1726  0.8490
 3520TIP3    H132051   4.428   1.056   3.995 -0.2573  1.2846 -1.1916
 3520TIP3    H232052   4.312   1.153   3.992 -1.1646  0.4921  2.7218
 3521TIP3   OH232053   5.673   1.917   4.392 -0.1297 -0.5554  0.5495
 3521TIP3    H132054   5.702   1.905   4.302  0.5553  0.3843  0.6230
 3521TIP3    H232055   5.602   1.982   4.385 -0.3051 -0.7372  0.6497
 3522TIP3   OH232056   2.198   4.692  12.648 -0.5480  0.7496  0.5408
 3522TIP3    H132057   2.249   4.646  12.581 -0.2428 -0.3448  1.4875
 3522TIP3    H232058   2.107   4.676  12.623 -0.5546 -2.3836  2.0127
 3523TIP3   OH232059   5.746   4.957   4.951 -0.2460  0.9381  0.4811
 3523TIP3    H132060   5.703   4.899   5.013  1.1066  1.2827  1.7946
 3523TIP3    H232061   5.775   4.899   4.880 -0.5670  0.3172  0.8459
 3524TIP3   OH232062   4.721   0.683  15.938  0.3845  0.1936 -0.3351
 3524TIP3    H132063   4.759   0.705  16.023  0.3084  0.5251 -0.3863
 3524TIP3    H232064   4.634   0.721  15.940  0.4610  0.3883 -0.6440
 3525TIP3   OH232065   2.778   6.176  10.769 -0.1847  0.6839 -0.4135
 3525TIP3    H132066   2.842   6.169  10.698  0.3371 -0.2873  0.1141
 3525TIP3    H232067   2.767   6.270  10.783  2.2023  0.9359  0.3778
 3526TIP3   OH232068   2.065   3.384   3.497  0.0255 -0.2540 -0.2332
 3526TIP3    H132069   2.135   3.445   3.520 -0.3149 -0.5103  1.6534
 3526TIP3    H232070   2.110   3.302   3.475  0.3496 -0.4712  1.1398
 3527TIP3   OH232071   0.014   5.277   6.027 -0.1939  1.2793 -0.3971
 3527TIP3    H132072  -0.031   5.244   5.949  1.9240 -0.0195 -1.1445
 3527TIP3    H232073   0.058   5.357   5.998 -1.3238  2.1397  0.1482
 3528TIP3   OH232074   4.686   5.234  14.923  0.2970  0.1738 -0.2691
 3528TIP3    H132075   4.703   5.312  14.870  0.3823  0.4656  0.1829
 3528TIP3    H232076   4.647   5.172  14.861 -0.3639  0.7989 -0.4986
 3529TIP3   OH232077   4.386   3.132   1.616  0.0862  0.5640  0.3457
 3529TIP3    H132078   4.319   3.200   1.618 -0.5415 -0.0570  2.1917
 3529TIP3    H232079   4.468   3.179   1.630 -0.4608  0.9190  3.0489
 3530TIP3   OH232080   4.195   3.050  14.381  0.5061 -0.4018  0.2935
 3530TIP3    H132081   4.121   3.100  14.416  0.5230  0.1990 -0.4848
 3530TIP3    H232082   4.269   3.110  14.390  0.3561  0.0941 -1.4822
 3531TIP3   OH232083   5.777   3.135   0.964  0.1586 -0.4743 -0.0154
 3531TIP3    H132084   5.702   3.125   0.904  1.1851 -0.2910 -1.3827
 3531TIP3    H232085   5.789   3.048   1.001 -2.2328  0.0042  2.1532
 3532TIP3   OH232086   6.315   0.452   2.787 -0.1114 -0.3498 -0.2100
 3532TIP3    H132087   6.220   0.445   2.786 -0.5139  3.2383 -0.0073
 3532TIP3    H232088   6.341   0.413   2.870 -1.5615 -0.3260  0.2778
 3533TIP3   OH232089   2.101   5.999  12.744  0.4336  0.0460  0.9470
 3533TIP3    H132090   2.097   5.995  12.840 -0.8408  1.1282  0.9604
 3533TIP3    H232091   2.142   6.084  12.725  0.2507  0.0442  0.5268
 3534TIP3   OH232092   6.666   2.221   4.530  0.2391  0.2733 -0.1726
 3534TIP3    H132093   6.678   2.315   4.522  0.5650  0.2234 -0.2491
 3534TIP3    H232094   6.731   2.193   4.595 -0.5902  0.2705  0.6950
 3535TIP3   OH232095   4.158   0.902  15.519  0.1742  0.0363  0.3141
 3535TIP3    H132096   4.142   0.882  15.427  0.0890  0.5156  0.2203
 3535TIP3    H232097   4.222   0.836  15.547 -2.0442 -2.0680  0.7680
 3536TIP3   OH232098   3.140   0.534  13.186  0.8505  0.1681  0.6624
 3536TIP3    H132099   3.101   0.477  13.120 -0.5040  2.5498 -0.7422
 3536TIP3    H232100   3.083   0.526  13.262  0.1565  0.2650  0.1623
 3537TIP3   OH232101   6.137   2.960   1.295  0.2870  1.1620 -0.2480
 3537TIP3    H132102   6.208   2.912   1.252  0.7522  0.2433  1.4418
 3537TIP3    H232103   6.057   2.917   1.264  0.5636  0.9656 -0.7031
 3538TIP3   OH232104   2.157   3.610   6.012 -0.3242  0.4063  0.2358
 3538TIP3    H132105   2.178   3.591   5.921  1.9024  0.5543  0.6413
 3538TIP3    H232106   2.219   3.680   6.036 -0.7726  0.2767  1.8910
 3539TIP3   OH232107   6.236   3.311   0.345  0.2046 -0.0893 -0.6293
 3539TIP3    H132108   6.193   3.396   0.359  0.4392 -0.0044 -0.4141
 3539TIP3    H232109   6.171   3.247   0.374  0.6924  0.0810  0.9589
 3540TIP3   OH232110   6.315   4.176  12.374  0.1431  0.3389 -0.3183
 3540TIP3    H132111   6.358   4.121  12.309 -2.0054 -0.8278 -0.8446
 3540TIP3    H232112   6.277   4.248  12.324 -0.2295  0.2504 -0.1730
 3541TIP3   OH232113   2.779   2.257  13.172  0.8221  0.2117 -0.5026
 3541TIP3    H132114   2.736   2.177  13.142  1.5809  0.2708 -1.8218
 3541TIP3    H232115   2.712   2.324  13.165  0.1624 -0.2882  0.6656
 3542TIP3   OH232116   3.459   5.927  13.512  0.1459  0.0493 -0.5978
 3542TIP3    H132117   3.517   5.857  13.543  0.5090  0.1298 -1.0753
 3542TIP3    H232118   3.440   5.903  13.421  0.0734  0.4490 -0.6889
 3543TIP3   OH232119   2.518   3.803  10.758  0.0359  0.2262 -0.0637
 3543TIP3    H132120   2.448   3.830  10.698  0.7308  1.5336 -0.3055
 3543TIP3    H232121   2.507   3.859  10.835  0.3527 -0.0904  0.2142
 3544TIP3   OH232122   5.548   5.203  14.556  0.4354 -0.3602 -0.3763
 3544TIP3    H132123   5.504   5.224  14.639 -1.4782 -3.7045 -0.3545
 3544TIP3    H232124   5.630   5.161  14.582  0.8081  0.4170 -0.2658
 3545TIP3   OH232125   3.518   1.224   5.368 -0.2860 -0.6681  0.2275
 3545TIP3    H132126   3.598   1.270   5.345 -0.8931  0.2664 -0.0814
 3545TIP3    H232127   3.547   1.137   5.396  0.7450 -0.6719 -0.8103
 3546TIP3   OH232128   2.816   4.475   5.811 -0.0340  0.5973  0.0324
 3546TIP3    H132129   2.743   4.429   5.853 -0.6767 -1.3172 -2.8674
 3546TIP3    H232130   2.788   4.484   5.719  3.0390  0.4992 -1.0178
 3547TIP3   OH232131   0.517   6.046  16.317  0.0097 -0.5129 -0.3326
 3547TIP3    H132132   0.593   6.101  16.298  1.3798 -1.7995  1.0809
 3547TIP3    H232133   0.522   5.975  16.254  0.7097 -1.2237  0.4879
 3548TIP3   OH232134   3.747   4.072  11.270 -0.2533 -0.3010 -0.9258
 3548TIP3    H132135   3.710   3.996  11.316 -1.0937 -0.8023 -2.3589
 3548TIP3    H232136   3.675   4.105  11.216 -0.5466  2.7680  1.0658
 3549TIP3   OH232137   5.420   1.014   3.701  0.0377 -0.2948 -0.6498
 3549TIP3    H132138   5.356   0.971   3.759  0.2885  0.3003  0.0865
 3549TIP3    H232139   5.381   1.100   3.682  0.7121  0.1648 -0.0038
 3550TIP3   OH232140   3.751   0.649  15.987 -0.6434 -0.0676  0.5547
 3550TIP3    H132141   3.679   0.711  16.001 -0.1123  0.0862  2.9064
 3550TIP3    H232142   3.707   0.568  15.960 -1.4973  0.6902 -0.4153
 3551TIP3   OH232143   0.804   6.102  15.937 -0.3133 -0.3116  0.5348
 3551TIP3    H132144   0.839   6.085  15.849 -1.3140  0.9111 -0.1271
 3551TIP3    H232145   0.818   6.019  15.984 -1.4376 -1.6560 -1.3391
 3552TIP3   OH232146   0.457   6.288  11.748  0.5115  0.3482  0.4605
 3552TIP3    H132147   0.388   6.298  11.814 -0.1252  0.8362 -0.2644
 3552TIP3    H232148   0.438   6.355  11.683  0.7650 -0.5145 -0.5366
 3553TIP3   OH232149   0.635   3.057   0.843  0.1588 -0.1317  0.5503
 3553TIP3    H132150   0.687   3.129   0.880  1.4407 -0.8980  0.2709
 3553TIP3    H232151   0.626   3.079   0.751  0.2930 -0.1778  0.5261
 3554TIP3   OH232152   4.940   0.806   4.080 -0.2224 -0.4093 -0.2340
 3554TIP3    H132153   5.023   0.851   4.067  0.3610 -1.4916 -0.4016
 3554TIP3    H232154   4.948   0.765   4.166 -1.0350  0.3859  0.2392
 3555TIP3   OH232155   6.642   2.321   1.884  0.2038  0.7576 -0.2226
 3555TIP3    H132156   6.647   2.394   1.946  2.0448  0.4414  0.0600
 3555TIP3    H232157   6.667   2.359   1.800  0.0304  0.6889 -0.3057
 3556TIP3   OH232158   5.393   5.807   3.718  0.1507 -0.0020  0.0266
 3556TIP3    H132159   5.480   5.847   3.725 -0.3093  1.5299 -1.9986
 3556TIP3    H232160   5.334   5.873   3.755 -0.3632  0.0731 -0.8994
 3557TIP3   OH232161   4.700   3.028   2.229 -0.3252  0.4310  0.2237
 3557TIP3    H132162   4.775   3.057   2.176  0.2884 -0.6339  0.4872
 3557TIP3    H232163   4.690   3.097   2.295  2.4621 -0.8378  2.1789
 3558TIP3   OH232164   4.880   2.246   2.299  0.0494 -0.4615  0.0935
 3558TIP3    H132165   4.858   2.314   2.363  1.6108  0.8756 -0.7204
 3558TIP3    H232166   4.807   2.247   2.237  1.0933  2.2317 -1.2560
 3559TIP3   OH232167   0.116   2.844  17.030 -0.1275 -0.0513  0.2664
 3559TIP3    H132168   0.143   2.923  17.076  1.6505  0.8903 -2.1654
 3559TIP3    H232169   0.074   2.876  16.950  1.7833 -1.4677 -1.4032
 3560TIP3   OH232170   0.212   0.734   2.182  0.0028  0.3734 -0.3038
 3560TIP3    H132171   0.135   0.694   2.142  0.6372  0.0452 -1.2409
 3560TIP3    H232172   0.194   0.828   2.182 -0.8690  0.2216  0.5436
 3561TIP3   OH232173   0.282   0.883   3.184 -0.5853 -0.0239  0.2706
 3561TIP3    H132174   0.250   0.857   3.098 -5.4687 -1.1084  2.0949
 3561TIP3    H232175   0.328   0.806   3.218 -0.0621 -0.1410 -0.6756
 3562TIP3   OH232176   6.176   1.798  16.995  0.4243 -0.2364 -0.2954
 3562TIP3    H132177   6.160   1.761  16.908 -0.0138 -1.3491  0.2272
 3562TIP3    H232178   6.093   1.788  17.041  0.7368  0.0449  0.3492
 3563TIP3   OH232179   3.232   0.843   5.567 -0.6206  0.1293 -0.0717
 3563TIP3    H132180   3.140   0.851   5.593 -1.0028 -0.5618 -1.1499
 3563TIP3    H232181   3.260   0.933   5.554 -0.6184  0.4720  1.9220
 3564TIP3   OH232182   5.446   3.047  11.507  0.2774 -0.0989 -0.2427
 3564TIP3    H132183   5.417   3.136  11.526 -1.1862 -0.5360 -0.3331
 3564TIP3    H232184   5.532   3.058  11.465  0.7550  1.1823  0.9759
 3565TIP3   OH232185   6.583   2.975   0.549  0.1802  0.2421 -0.2360
 3565TIP3    H132186   6.550   2.977   0.459  0.3343  1.0882 -0.2764
 3565TIP3    H232187   6.593   3.067   0.574 -1.1888  0.0635  1.1386
 3566TIP3   OH232188   2.157   4.769   5.978 -0.4232 -0.0479  0.8495
 3566TIP3    H132189   2.112   4.825   6.041 -2.7446 -0.9120  0.0596
 3566TIP3    H232190   2.094   4.756   5.907  1.3552 -0.7834 -0.6916
 3567TIP3   OH232191   2.482   3.924   5.317  0.2887  0.1577  1.0061
 3567TIP3    H132192   2.538   4.002   5.310 -0.0529  0.4296  1.2683
 3567TIP3    H232193   2.528   3.857   5.267  0.4305  0.6166  0.5171
 3568TIP3   OH232194   1.329   0.037   4.893  0.0172  0.6521  0.0908
 3568TIP3    H132195   1.295  -0.026   4.829  0.1235  0.6511  0.0338
 3568TIP3    H232196   1.405   0.076   4.849  0.0184  0.7390  0.1699
 3569TIP3   OH232197   5.721   1.841  13.901  0.3463  0.8826 -0.0652
 3569TIP3    H132198   5.701   1.888  13.820 -0.3156  2.7109  1.1049
 3569TIP3    H232199   5.814   1.858  13.916  0.4289  0.6855 -0.3445
 3570TIP3   OH232200   6.790   3.209   5.651  0.2752  0.1230 -0.5224
 3570TIP3    H132201   6.810   3.175   5.739  0.0392 -2.0888 -1.2753
 3570TIP3    H232202   6.855   3.278   5.638 -1.0285  2.0615  2.1995
 3571TIP3   OH232203   2.408   1.661  15.222  0.0504 -0.1060  0.6944
 3571TIP3    H132204   2.495   1.685  15.190 -1.0221  0.7914 -1.8004
 3571TIP3    H232205   2.401   1.567  15.204  0.6530 -0.2883  1.3568
 3572TIP3   OH232206   2.040   3.813   4.392 -0.0240 -0.2411 -0.0600
 3572TIP3    H132207   2.074   3.857   4.314  1.5588  0.4487  0.9649
 3572TIP3    H232208   2.082   3.727   4.391  1.9240  0.6212  1.2211
 3573TIP3   OH232209   4.076   0.570   1.111  0.0444 -0.3089  0.9178
 3573TIP3    H132210   4.074   0.476   1.130 -1.7374 -0.1007  2.0109
 3573TIP3    H232211   4.061   0.575   1.016  2.5171 -1.1540  0.4074
 3574TIP3   OH232212   2.555   4.187   4.259  0.1482  1.4293 -0.4860
 3574TIP3    H132213   2.466   4.162   4.236 -0.2739  1.5731  0.9378
 3574TIP3    H232214   2.601   4.103   4.270 -0.9672  1.1192  3.0953
 3575TIP3   OH232215   5.363   1.893  14.224 -0.3609 -0.6163 -0.4923
 3575TIP3    H132216   5.360   1.987  14.206 -1.3298 -0.8593 -1.7192
 3575TIP3    H232217   5.453   1.868  14.203 -0.2095 -0.0417 -0.5627
 3576TIP3   OH232218   1.490   6.359   1.187  0.3367  0.3141  0.2887
 3576TIP3    H132219   1.437   6.287   1.220  0.0461  1.3874  2.3235
 3576TIP3    H232220   1.567   6.317   1.150 -1.7875 -1.2925 -2.7128
 3577TIP3   OH232221   5.912   4.265   4.042 -0.7973  0.5493  0.1665
 3577TIP3    H132222   5.959   4.243   3.961 -3.6237 -1.1344 -1.1580
 3577TIP3    H232223   5.977   4.253   4.111  1.1531 -0.0668 -1.6581
 3578TIP3   OH232224   3.286   0.223  16.405  0.6337  0.2120 -0.4916
 3578TIP3    H132225   3.260   0.183  16.322  0.6742 -0.0516 -0.3769
 3578TIP3    H232226   3.381   0.218  16.407  0.6235  0.0570 -0.3487
 3579TIP3   OH232227   3.089   6.094  15.266  0.4482  1.1531  0.3966
 3579TIP3    H132228   3.174   6.109  15.306  0.7420  0.7846 -0.0768
 3579TIP3    H232229   3.095   6.007  15.227 -0.4835  0.7046  1.2150
 3580TIP3   OH232230   3.800   6.066  16.927 -0.1704 -0.5273  0.0205
 3580TIP3    H132231   3.793   6.065  17.023 -0.3837  0.3698  0.0250
 3580TIP3    H232232   3.818   6.157  16.906 -1.5562 -0.4260 -0.8868
 3581TIP3   OH232233   5.042   6.107  12.712 -0.4061  0.0735  0.0251
 3581TIP3    H132234   4.978   6.178  12.718  0.1826  0.8200 -1.7625
 3581TIP3    H232235   5.011   6.041  12.774 -0.6605  2.0970  2.1459
 3582TIP3   OH232236   4.091   0.671   1.996  0.5672 -0.3559  0.4311
 3582TIP3    H132237   4.014   0.614   1.997 -0.9521  1.5882  0.6670
 3582TIP3    H232238   4.085   0.719   1.914  2.2080 -0.9640 -0.0949
 3583TIP3   OH232239   3.756   1.753  11.796 -0.5287 -0.1977 -0.1967
 3583TIP3    H132240   3.836   1.756  11.743 -1.3292 -0.6991 -1.4726
 3583TIP3    H232241   3.787   1.730  11.884  0.8329  0.7077 -0.4026
 3584TIP3   OH232242   2.477   5.938   3.904 -0.4438 -0.5260  0.1287
 3584TIP3    H132243   2.565   5.972   3.922 -0.4908 -0.4838  0.2775
 3584TIP3    H232244   2.425   6.016   3.885 -0.0038 -0.6800 -1.8881
 3585TIP3   OH232245   6.135   2.171   0.055  0.2257  0.3526 -0.1023
 3585TIP3    H132246   6.057   2.133   0.094 -0.6160  2.5018  0.4937
 3585TIP3    H232247   6.158   2.112  -0.017 -2.1294 -0.1840 -0.4940
 3586TIP3   OH232248   2.781   1.764   4.367 -0.0046 -0.0793  0.1159
 3586TIP3    H132249   2.805   1.780   4.275 -2.8671 -0.3022 -0.7487
 3586TIP3    H232250   2.819   1.838   4.414  1.3563  0.1517 -1.2479
 3587TIP3   OH232251   3.039   2.914  11.619 -0.0581 -0.1883 -0.3732
 3587TIP3    H132252   2.992   2.832  11.606 -0.9369  0.3506 -0.6244
 3587TIP3    H232253   3.114   2.908  11.560  0.0717 -0.9426 -0.1494
 3588TIP3   OH232254   4.404   0.740   4.681  0.5021 -0.5663  0.7637
 3588TIP3    H132255   4.428   0.821   4.634 -0.9311  0.3335  1.5311
 3588TIP3    H232256   4.477   0.726   4.742 -1.0034  2.5658  3.6202
 3589TIP3   OH232257   3.592   5.597  14.505 -0.4919 -0.0246  0.2857
 3589TIP3    H132258   3.616   5.689  14.518 -0.3590 -0.3827  3.3525
 3589TIP3    H232259   3.497   5.598  14.497 -0.3684  0.4930 -1.9496
 3590TIP3   OH232260   2.027   5.581   1.220  0.3521  0.7956  0.2465
 3590TIP3    H132261   1.955   5.528   1.186 -0.1043  1.0027  0.8713
 3590TIP3    H232262   2.085   5.518   1.263  0.2342  0.7064  0.2740
 3591TIP3   OH232263   6.337   2.752  14.882 -0.3849  0.3244 -0.7335
 3591TIP3    H132264   6.431   2.767  14.875  0.0212  0.3911  3.0544
 3591TIP3    H232265   6.327   2.658  14.874  0.0206  0.3056 -1.0372
 3592TIP3   OH232266   3.185   1.370  17.221  0.1189 -0.0325 -0.1660
 3592TIP3    H132267   3.104   1.400  17.179 -0.4461 -0.8883  0.2800
 3592TIP3    H232268   3.181   1.406  17.309 -1.0744 -2.1504  0.7286
 3593TIP3   OH232269   6.333   2.386   3.890  0.1626  0.5289  0.6361
 3593TIP3    H132270   6.400   2.319   3.906  0.6303  1.2409  1.7108
 3593TIP3    H232271   6.382   2.466   3.871 -0.2987  1.5145  3.2449
 3594TIP3   OH232272   5.014   3.996  14.174  0.2040 -0.2193 -0.4642
 3594TIP3    H132273   5.081   4.028  14.114 -1.3268  3.3646 -0.4846
 3594TIP3    H232274   5.026   4.048  14.253 -2.0570 -0.0071 -0.2126
 3595TIP3   OH232275   0.673   2.543   4.502 -0.2386  0.0990 -0.5268
 3595TIP3    H132276   0.620   2.540   4.423  0.1011 -0.3017 -0.7448
 3595TIP3    H232277   0.717   2.458   4.505  1.3549  0.8705 -1.0222
 3596TIP3   OH232278   2.620   0.454   2.293 -0.1333 -0.1861  0.4009
 3596TIP3    H132279   2.620   0.399   2.215  0.4415 -0.0139  0.2710
 3596TIP3    H232280   2.576   0.402   2.360 -2.0670  0.2779 -0.4395
 3597TIP3   OH232281   4.310   6.337   5.724 -0.0737 -0.1691  0.8611
 3597TIP3    H132282   4.305   6.242   5.729 -1.1488 -0.1895 -0.1313
 3597TIP3    H232283   4.362   6.354   5.645 -0.3899  0.0624  0.7009
 3598TIP3   OH232284   1.167   3.836  14.913  0.2539  0.0937 -0.0717
 3598TIP3    H132285   1.179   3.862  15.004  0.0703  1.9698 -0.5348
 3598TIP3    H232286   1.182   3.916  14.863 -0.2131 -0.7599 -1.6566
 3599TIP3   OH232287   5.587   4.019  13.260 -0.2626 -0.1719 -0.1840
 3599TIP3    H132288   5.582   3.967  13.340  1.8443 -1.6144 -0.8994
 3599TIP3    H232289   5.568   3.958  13.189 -0.1235  0.5958 -0.9065
 3600TIP3   OH232290   5.589   1.814   1.190 -0.5924  0.3441  0.2600
 3600TIP3    H132291   5.535   1.891   1.207 -0.2671  0.7904 -0.6829
 3600TIP3    H232292   5.674   1.850   1.162 -0.6503 -0.3546 -0.8449
 3601TIP3   OH232293   6.466   4.388  16.757 -0.4047 -0.0130  0.1150
 3601TIP3    H132294   6.555   4.419  16.772  0.2001 -1.3352 -0.5680
 3601TIP3    H232295   6.435   4.438  16.682 -0.1508  0.2951  0.2160
 3602TIP3   OH232296   0.157   4.999   5.726 -0.3572 -0.3971  0.5078
 3602TIP3    H132297   0.243   4.988   5.684 -0.2769  0.5264  0.4034
 3602TIP3    H232298   0.144   5.094   5.728 -0.1924 -0.3747  2.9226
 3603TIP3   OH232299   1.896   0.198  16.655 -0.5900 -0.3839 -0.0406
 3603TIP3    H132300   1.941   0.122  16.618 -1.3523 -0.7879 -0.1610
 3603TIP3    H232301   1.803   0.182  16.636 -0.6405  1.4258 -1.6522
 3604TIP3   OH232302   2.672   4.839  13.806 -0.1721 -0.0862 -0.4307
 3604TIP3    H132303   2.701   4.845  13.714 -0.6310  1.6226 -0.4982
 3604TIP3    H232304   2.683   4.747  13.828 -0.8806 -0.7259 -2.4775
 3605TIP3   OH232305   2.921   5.446  13.151 -0.2762  0.0501 -0.4234
 3605TIP3    H132306   2.939   5.530  13.194  0.0610 -1.1387  1.8965
 3605TIP3    H232307   2.851   5.466  13.089 -1.0933  1.8190  0.9798
 3606TIP3   OH232308   0.744   4.331   5.508 -0.4434 -0.6738  0.7059
 3606TIP3    H132309   0.837   4.341   5.487 -0.9137  0.5512 -1.0421
 3606TIP3    H232310   0.730   4.390   5.582 -0.0103 -0.0662  0.3234
 3607TIP3   OH232311   1.108   3.179  12.641 -0.6045  0.0644  0.6625
 3607TIP3    H132312   1.062   3.118  12.583 -1.6377 -1.2160  2.7407
 3607TIP3    H232313   1.197   3.143  12.647 -0.5174  0.1498 -0.0279
 3608TIP3   OH232314   0.945   6.418   5.469  0.5206  0.3348 -0.1328
 3608TIP3    H132315   0.959   6.365   5.391  0.2397 -0.0529  0.0786
 3608TIP3    H232316   0.992   6.372   5.539  0.8095  0.7034 -0.0776
 3609TIP3   OH232317   2.908   4.622  12.366 -0.4441  1.0455 -0.6296
 3609TIP3    H132318   2.979   4.564  12.390  0.3385  1.9866 -0.6230
 3609TIP3    H232319   2.891   4.602  12.273 -2.6260 -1.6901  0.2189
 3610TIP3   OH232320   5.595   1.648  16.561  0.0730 -0.8477 -0.2181
 3610TIP3    H132321   5.581   1.602  16.478 -0.2902 -1.7077  0.3076
 3610TIP3    H232322   5.647   1.587  16.613  1.9056  0.4308 -0.4568
 3611TIP3   OH232323   1.051   1.852   5.526  0.1024  0.0859 -0.4609
 3611TIP3    H132324   1.040   1.804   5.609  0.0945 -1.5434 -1.3583
 3611TIP3    H232325   0.981   1.918   5.527  1.3437  1.4925  1.7140
 3612TIP3   OH232326   3.765   4.757  10.626  0.2387  0.3188 -0.2605
 3612TIP3    H132327   3.857   4.769  10.601  0.9960 -2.7275  0.6150
 3612TIP3    H232328   3.736   4.683  10.573 -0.8350 -0.5483  1.4952
 3613TIP3   OH232329   6.301   1.083  12.395 -0.1696 -0.1059 -0.2092
 3613TIP3    H132330   6.363   1.112  12.328  0.4807 -0.4303  0.2381
 3613TIP3    H232331   6.352   1.082  12.476 -1.0095  0.5525  0.3506
 3614TIP3   OH232332   1.287   2.640  16.577 -0.5919  0.8417 -0.2919
 3614TIP3    H132333   1.286   2.558  16.626 -0.3091  1.4405  0.7361
 3614TIP3    H232334   1.377   2.649  16.547 -0.7381  0.5347 -0.8436
 3615TIP3   OH232335   1.461   6.123  10.865 -0.3218  0.4724  0.2305
 3615TIP3    H132336   1.550   6.093  10.880 -0.1691  0.8382  0.0796
 3615TIP3    H232337   1.436   6.083  10.781 -0.0010  1.0128 -0.1342
 3616TIP3   OH232338   0.148   6.527  13.515  1.0831 -0.1023  0.3268
 3616TIP3    H132339   0.146   6.432  13.508  0.3158 -0.0947  0.3458
 3616TIP3    H232340   0.127   6.558  13.427  2.2302  0.0622  0.0985
 3617TIP3   OH232341   1.664   3.752   2.869 -0.2313  0.1471 -0.7284
 3617TIP3    H132342   1.742   3.698   2.879 -1.0366 -0.8890  0.2621
 3617TIP3    H232343   1.665   3.779   2.777 -0.1986 -2.2451 -1.5135
 3618TIP3   OH232344   3.808   0.738   0.031 -0.2681  0.0655 -0.1761
 3618TIP3    H132345   3.888   0.760   0.078 -1.2116  1.4717  0.8759
 3618TIP3    H232346   3.837   0.686  -0.044  1.4273 -1.1696  1.2376
 3619TIP3   OH232347   2.603   1.054   6.655  0.5021 -0.4443  1.0604
 3619TIP3    H132348   2.647   0.970   6.640 -1.4714 -1.5236  0.8706
 3619TIP3    H232349   2.640   1.113   6.590  0.4377 -1.7734 -0.2279
 3620TIP3   OH232350   4.774   3.276   5.350 -0.0404 -0.4562 -0.2075
 3620TIP3    H132351   4.688   3.315   5.331  0.5477  0.3967 -1.2219
 3620TIP3    H232352   4.755   3.184   5.368 -1.3627  0.0481  1.2571
 3621TIP3   OH232353   4.149   3.852  12.034 -0.2841  0.4583  0.0377
 3621TIP3    H132354   4.230   3.903  12.030  0.1753 -0.1528  1.0491
 3621TIP3    H232355   4.112   3.872  12.120  0.7297 -2.0364  1.1778
 3622TIP3   OH232356   1.699   0.040  17.054 -0.5045 -0.0624 -0.1716
 3622TIP3    H132357   1.682   0.105  16.986  0.5830  0.1329 -0.2698
 3622TIP3    H232358   1.612   0.018  17.088 -1.0776 -0.2172 -1.6574
 3623TIP3   OH232359   2.497   1.598   3.773 -0.0032 -0.4291  0.6326
 3623TIP3    H132360   2.469   1.671   3.718 -2.0058 -1.3941  0.2768
 3623TIP3    H232361   2.464   1.618   3.860  0.5929 -0.2916  0.8285
 3624TIP3   OH232362   2.931   5.681  10.998  0.0379 -0.1166 -0.2006
 3624TIP3    H132363   2.945   5.773  10.979 -0.5270 -0.3266 -1.8163
 3624TIP3    H232364   2.949   5.636  10.915 -1.6077 -1.2303 -0.0167
 3625TIP3   OH232365   5.089   1.617  15.356  0.7117 -0.3006  0.2265
 3625TIP3    H132366   5.092   1.700  15.308 -0.4784 -0.3628  0.0117
 3625TIP3    H232367   5.070   1.552  15.289  1.8991 -0.8057  0.3539
 3626TIP3   OH232368   2.724   6.321  16.954 -0.2702 -0.1509 -0.0565
 3626TIP3    H132369   2.655   6.326  16.888 -1.4835  0.8203  1.1965
 3626TIP3    H232370   2.804   6.304  16.905 -1.0081  1.1723 -1.8420
 3627TIP3   OH232371   1.248   3.516   5.934 -0.1790  0.1634  0.4981
 3627TIP3    H132372   1.245   3.612   5.939 -1.2819  0.2608 -1.1279
 3627TIP3    H232373   1.214   3.487   6.018 -2.7211  1.2845 -0.0240
 3628TIP3   OH232374   6.312   2.154  14.525 -0.2404  0.5286  0.0877
 3628TIP3    H132375   6.296   2.136  14.617  0.4912  0.4087  0.1985
 3628TIP3    H232376   6.226   2.147  14.483 -0.4150 -0.3903  0.5931
 3629TIP3   OH232377   0.888   6.717  12.113  0.1378 -0.2543 -0.0377
 3629TIP3    H132378   0.895   6.749  12.202  0.1159 -1.0198  0.2453
 3629TIP3    H232379   0.910   6.624  12.118 -1.2043 -0.6360 -0.5919
 3630TIP3   OH232380   3.637   6.688   2.575 -0.4300  0.3599 -0.2933
 3630TIP3    H132381   3.645   6.593   2.564 -0.9100  0.3087 -0.2271
 3630TIP3    H232382   3.695   6.725   2.509 -0.7503  0.0261 -0.7663
 3631TIP3   OH232383   1.436   3.372   4.756  0.8482 -0.3027 -0.4042
 3631TIP3    H132384   1.382   3.344   4.830  0.6360  0.5712 -0.2245
 3631TIP3    H232385   1.457   3.290   4.711 -0.0870 -0.7268 -0.1130
 3632TIP3   OH232386   4.070   4.598  15.169 -0.5660  0.3332  0.7583
 3632TIP3    H132387   4.056   4.516  15.217 -2.5734  0.4302  0.4391
 3632TIP3    H232388   3.982   4.628  15.146  0.1674  2.0925  0.0195
 3633TIP3   OH232389   0.890   4.011  15.464 -0.2333 -0.1734 -0.5329
 3633TIP3    H132390   0.826   3.990  15.532 -1.0482  3.9656  0.2614
 3633TIP3    H232391   0.973   4.021  15.510  0.4109 -2.5426 -1.0854
 3634TIP3   OH232392   2.729   4.254  13.881 -0.0451  0.3781 -0.7124
 3634TIP3    H132393   2.764   4.225  13.797  0.8972 -1.6182  0.2991
 3634TIP3    H232394   2.647   4.205  13.891  0.2088  0.0589 -0.1582
 3635TIP3   OH232395   5.476   0.278  14.008 -0.0209  0.2402  0.3696
 3635TIP3    H132396   5.395   0.239  13.976 -0.5271  1.3457  0.2609
 3635TIP3    H232397   5.544   0.243  13.952 -0.4594 -0.4814  0.2807
 3636TIP3   OH232398   2.916   0.494   6.226  0.3343 -0.2334 -0.2617
 3636TIP3    H132399   2.929   0.524   6.316 -0.5341  0.4032 -0.3252
 3636TIP3    H232400   3.004   0.480   6.192  0.8589  2.6171 -0.3101
 3637TIP3   OH232401   6.319   6.219   0.156  0.5415  0.3915  0.2476
 3637TIP3    H132402   6.274   6.298   0.128 -0.4234  0.0565  0.7942
 3637TIP3    H232403   6.401   6.219   0.107 -0.5216  0.4697 -1.6126
 3638TIP3   OH232404   1.256   1.083  14.886 -0.6379 -0.3125 -0.0132
 3638TIP3    H132405   1.275   1.144  14.815 -0.8212  0.0648  0.2573
 3638TIP3    H232406   1.276   0.997  14.850 -0.7689 -0.1267 -0.5371
 3639TIP3   OH232407   3.265   0.691   0.023 -0.1091  0.2218 -0.0075
 3639TIP3    H132408   3.331   0.654  -0.036 -1.1167 -0.0066 -1.0232
 3639TIP3    H232409   3.248   0.621   0.086  1.1779  0.5670  0.7639
 3640TIP3   OH232410   1.025   3.774  13.382 -0.3713  0.0912  0.6643
 3640TIP3    H132411   1.071   3.755  13.300 -1.1939  1.5775 -0.1937
 3640TIP3    H232412   1.058   3.709  13.444 -1.1192 -2.3324 -1.3086
 3641TIP3   OH232413   0.376   5.119  13.819  0.5894 -0.1881  0.0046
 3641TIP3    H132414   0.424   5.167  13.751 -1.1798  0.8358 -0.5821
 3641TIP3    H232415   0.306   5.074  13.772 -0.9329  0.8678  1.1394
 3642TIP3   OH232416   4.700   1.226   3.848 -0.5725  0.3964 -0.0392
 3642TIP3    H132417   4.652   1.309   3.857 -1.3203  0.3382 -2.6036
 3642TIP3    H232418   4.791   1.249   3.868 -0.9328  1.5684  0.3549
 3643TIP3   OH232419   4.193   4.097  14.747 -0.4029 -0.1821  0.1508
 3643TIP3    H132420   4.192   4.027  14.812 -1.1904 -1.0285 -0.7386
 3643TIP3    H232421   4.111   4.144  14.762  0.4611  1.0675  1.2402
 3644TIP3   OH232422   4.506   4.121   4.799 -0.4823  0.1291  0.2090
 3644TIP3    H132423   4.418   4.114   4.836 -0.3195 -2.0653  0.2882
 3644TIP3    H232424   4.498   4.087   4.710  0.2164  0.2585  0.0905
 3645TIP3   OH232425   3.037   6.653  17.305  0.2593  0.4077  0.3982
 3645TIP3    H132426   3.028   6.575  17.249  1.3215 -0.6452  1.6103
 3645TIP3    H232427   2.953   6.662  17.348  0.3022 -0.4347  0.6731
 3646TIP3   OH232428   3.599   0.281  15.784 -0.0612 -0.3904  0.1687
 3646TIP3    H132429   3.658   0.308  15.714  0.7049  0.8736  1.2387
 3646TIP3    H232430   3.600   0.186  15.782  1.6277 -0.4023 -0.1969
 3647TIP3   OH232431   6.523   3.759   1.931 -0.0786 -0.4602  0.2510
 3647TIP3    H132432   6.445   3.778   1.879 -0.6342 -1.9556  0.4873
 3647TIP3    H232433   6.562   3.683   1.889  1.6175  0.6222 -0.2203
 3648TIP3   OH232434   1.821   3.563  12.747  0.6898  0.2839 -0.6195
 3648TIP3    H132435   1.737   3.572  12.791  1.7416  4.4768  0.9912
 3648TIP3    H232436   1.868   3.498  12.798 -0.1749  0.8921  1.0352
 3649TIP3   OH232437   5.573   5.988   3.875 -0.1511  0.1215  0.1194
 3649TIP3    H132438   5.610   6.012   3.790  0.1091  0.3609  0.2983
 3649TIP3    H232439   5.593   6.062   3.932 -0.4046  0.0023  0.3663
 3650TIP3   OH232440   1.215   6.779  13.344 -0.3448  0.1601 -0.0431
 3650TIP3    H132441   1.288   6.718  13.333 -0.5441 -0.0187 -0.3572
 3650TIP3    H232442   1.242   6.857  13.296 -0.9294 -0.3829 -1.3061
 3651TIP3   OH232443   0.290   3.411  13.099  0.1474 -0.5892  0.6429
 3651TIP3    H132444   0.254   3.467  13.167 -0.8004 -0.3861 -0.0007
 3651TIP3    H232445   0.362   3.461  13.062  0.4001 -0.5277  1.2124
 3652TIP3   OH232446   3.803   1.065   0.155 -0.3026 -0.5575  0.1376
 3652TIP3    H132447   3.736   1.011   0.196  0.6256 -0.7867  1.4136
 3652TIP3    H232448   3.884   1.040   0.198  0.3112  1.1172  0.0415
 3653TIP3   OH232449   3.324   4.074  12.930  0.7370 -0.7246 -0.6095
 3653TIP3    H132450   3.374   4.067  12.849  1.5097  0.0063 -0.2157
 3653TIP3    H232451   3.268   4.150  12.916  0.7573 -0.6942 -0.5245
 3654TIP3   OH232452   4.907   2.546  13.750 -0.1925 -0.6322 -0.4665
 3654TIP3    H132453   4.955   2.601  13.688 -0.4524 -0.8645 -0.8732
 3654TIP3    H232454   4.923   2.456  13.721  0.3837 -0.7906  0.3091
 3655TIP3   OH232455   5.130   2.203  13.518 -0.2660  0.0879  0.2143
 3655TIP3    H132456   5.144   2.109  13.506  0.9287  0.3690 -0.7725
 3655TIP3    H232457   5.137   2.216  13.612  2.2332 -0.4486  0.1747
 3656TIP3   OH232458   1.624   5.095  16.603 -0.1822 -0.0979 -0.2930
 3656TIP3    H132459   1.631   5.011  16.649 -0.4001  0.1549  0.2154
 3656TIP3    H232460   1.714   5.126  16.595  0.1419 -1.4044 -2.4589
 3657TIP3   OH232461   0.191   0.142  14.098 -0.4224 -0.2169 -0.1869
 3657TIP3    H132462   0.102   0.145  14.134 -0.2372 -0.5121  0.3065
 3657TIP3    H232463   0.193   0.062  14.045 -0.4436 -0.2304 -0.1675
 3658TIP3   OH232464   5.191   3.822   5.851 -0.0945  0.0579 -0.5384
 3658TIP3    H132465   5.097   3.808   5.868 -0.3317  1.9770  0.0954
 3658TIP3    H232466   5.227   3.841   5.938  0.4651  1.2574 -1.0102
 3659TIP3   OH232467   2.514   2.876  15.450 -0.1779 -0.4349  0.0131
 3659TIP3    H132468   2.445   2.824  15.492  0.3603 -2.7313 -1.7061
 3659TIP3    H232469   2.485   2.884  15.359 -0.0543  2.1009  0.1316
 3660TIP3   OH232470   4.725   3.753   3.553 -0.2544  0.4191 -0.1255
 3660TIP3    H132471   4.758   3.842   3.537  1.0254 -0.0322 -0.1738
 3660TIP3    H232472   4.800   3.697   3.533 -0.5629 -0.5748  1.3654
 3661TIP3   OH232473   0.679   4.514  12.162  0.3352 -0.0593 -0.2692
 3661TIP3    H132474   0.655   4.579  12.095  2.2234 -0.2172 -1.1779
 3661TIP3    H232475   0.672   4.430  12.116  1.0965 -0.2116 -0.1178
 3662TIP3   OH232476   6.226   5.058   4.418  0.1184 -0.1499 -0.5513
 3662TIP3    H132477   6.197   5.112   4.492  0.5891  1.2430 -1.3310
 3662TIP3    H232478   6.188   5.101   4.342 -2.4836 -2.9889 -1.0266
 3663TIP3   OH232479   4.334   6.504   4.302 -0.0135 -0.4862 -0.1235
 3663TIP3    H132480   4.354   6.546   4.386 -1.1270 -0.1798  0.0069
 3663TIP3    H232481   4.241   6.522   4.288  0.1064 -0.7188 -1.3241
 3664TIP3   OH232482   4.589   3.480  14.209  0.1819 -0.2396 -0.8090
 3664TIP3    H132483   4.649   3.525  14.151 -0.0859  0.8154 -0.2905
 3664TIP3    H232484   4.645   3.437  14.274  0.3977  0.5885 -0.4352
 3665TIP3   OH232485   4.097   1.957  12.680 -0.2325  0.0772  0.5460
 3665TIP3    H132486   4.032   1.932  12.613 -0.2935  2.4183 -0.3631
 3665TIP3    H232487   4.054   2.026  12.730  0.7804  0.1319  1.3727
 3666TIP3   OH232488   6.430   1.022   5.295 -0.3565  0.0966  0.1003
 3666TIP3    H132489   6.447   0.928   5.299  0.9624  0.2579 -0.9890
 3666TIP3    H232490   6.343   1.029   5.256 -0.1861 -0.6801 -0.4506
 3667TIP3   OH232491   0.432   3.752  15.749  0.3341  0.5797 -0.5891
 3667TIP3    H132492   0.490   3.714  15.815  0.1687 -0.2287 -0.8925
 3667TIP3    H232493   0.344   3.730  15.780  0.2628 -0.0102 -1.1916
 3668TIP3   OH232494   5.535   1.209   0.584 -0.5365 -0.2522 -0.1473
 3668TIP3    H132495   5.444   1.181   0.595 -0.9692  0.9356 -0.5358
 3668TIP3    H232496   5.546   1.280   0.646  0.8272 -1.7957  1.5000
 3669TIP3   OH232497   1.536   6.558   6.684 -0.1551 -0.6989  0.0090
 3669TIP3    H132498   1.526   6.465   6.703  0.1122 -0.8589 -0.6114
 3669TIP3    H232499   1.469   6.577   6.619 -1.2175 -0.1019  1.2165
 3670TIP3   OH232500   3.105   0.923   6.758 -0.2752  0.1222  0.3999
 3670TIP3    H132501   3.134   1.013   6.743 -0.5998  0.0965 -0.4513
 3670TIP3    H232502   3.147   0.897   6.839 -1.0722  1.4383  1.2718
 3671TIP3   OH232503   3.145   2.108  16.143 -0.0931 -0.2719  0.4457
 3671TIP3    H132504   3.239   2.107  16.161  0.8959  2.8085 -3.1747
 3671TIP3    H232505   3.124   2.017  16.123  2.6260 -0.8377 -0.3720
 3672TIP3   OH232506   5.427   2.505  13.963 -0.7779 -0.0393  0.4766
 3672TIP3    H132507   5.407   2.564  14.036 -0.3978 -0.6450  1.0790
 3672TIP3    H232508   5.436   2.419  14.003  1.4968 -0.0772  0.0664
 3673TIP3   OH232509   4.477   5.298   4.737  0.8866  0.4795 -0.4000
 3673TIP3    H132510   4.529   5.225   4.703  0.5300  0.9882 -2.1174
 3673TIP3    H232511   4.387   5.269   4.729  0.8055  0.0423  1.5383
 3674TIP3   OH232512   5.811   5.160  11.641 -0.4674 -0.7446 -0.2284
 3674TIP3    H132513   5.761   5.239  11.658  0.4304  0.0744 -1.2349
 3674TIP3    H232514   5.777   5.128  11.557  0.3539 -0.4373 -0.6874
 3675TIP3   OH232515   6.080   0.278   1.718  0.2094 -0.8846  0.4216
 3675TIP3    H132516   6.140   0.204   1.719  1.2890 -0.0490  0.3807
 3675TIP3    H232517   6.036   0.272   1.633 -0.8415 -2.3155  1.0380
 3676TIP3   OH232518   1.940   0.545   2.115  0.4300 -0.0309  0.2290
 3676TIP3    H132519   2.000   0.618   2.101  1.9529 -1.1553  0.6466
 3676TIP3    H232520   1.930   0.506   2.028  1.5259 -0.7287  0.3964
 3677TIP3   OH232521   1.180   2.315  14.157  0.5705 -0.5469 -0.5347
 3677TIP3    H132522   1.228   2.334  14.076  0.3314 -1.5995 -0.9376
 3677TIP3    H232523   1.247   2.283  14.218  1.1091  2.1144  0.3987
 3678TIP3   OH232524   0.746   5.762  12.070 -0.2236 -0.5327  0.3112
 3678TIP3    H132525   0.663   5.734  12.109 -0.3030  1.1401  1.4596
 3678TIP3    H232526   0.795   5.681  12.056 -1.5629 -1.4463  0.7403
 3679TIP3   OH232527   0.532   3.437  12.270 -0.3273  0.0810 -0.1313
 3679TIP3    H132528   0.475   3.493  12.217  2.6138  2.0620 -1.4805
 3679TIP3    H232529   0.607   3.419  12.213  2.0588  0.5746  2.6326
 3680TIP3   OH232530   1.887   3.632   2.959  0.1181  0.7849 -0.4963
 3680TIP3    H132531   1.938   3.553   2.976  0.4477  1.1806  0.4365
 3680TIP3    H232532   1.936   3.677   2.891  1.0619  1.1671  0.3997
 3681TIP3   OH232533   6.148   1.685  14.019  0.2511 -0.2325  0.3164
 3681TIP3    H132534   6.182   1.615  13.963 -1.2489 -1.0776  0.4100
 3681TIP3    H232535   6.225   1.738  14.041  1.0148 -0.3084 -1.9180
 3682TIP3   OH232536   4.593   1.306  15.838 -1.0372  0.4520  0.4949
 3682TIP3    H132537   4.638   1.371  15.893 -0.9920  0.2258  0.7249
 3682TIP3    H232538   4.658   1.283  15.771 -1.4344  1.4718 -0.2602
 3683TIP3   OH232539   2.748   4.799   1.105 -0.5539  0.2819  0.3627
 3683TIP3    H132540   2.726   4.706   1.104  0.0223  0.1365 -0.2370
 3683TIP3    H232541   2.844   4.801   1.097 -0.7324  0.9477 -2.9995
 3684TIP3   OH232542   4.128   2.870   0.388 -0.0733 -0.2133 -0.1677
 3684TIP3    H132543   4.223   2.883   0.392 -0.2676  1.1657  0.5937
 3684TIP3    H232544   4.098   2.931   0.320 -0.4909 -0.1077  0.1053
 3685TIP3   OH232545   3.328   3.669  12.938  0.0038 -0.2218  0.0994
 3685TIP3    H132546   3.393   3.721  12.890  0.4242 -0.8662 -0.0350
 3685TIP3    H232547   3.373   3.645  13.020 -0.6832  0.8205  0.8140
 3686TIP3   OH232548   3.154   2.889  15.506  0.1188  0.8047 -0.1843
 3686TIP3    H132549   3.084   2.838  15.547  0.5536 -0.3660 -0.8530
 3686TIP3    H232550   3.135   2.980  15.530 -0.7743  0.3524  0.8849
 3687TIP3   OH232551   6.201   0.482   4.539  0.0444  0.0439  0.0409
 3687TIP3    H132552   6.246   0.400   4.517  1.0611  1.0039 -1.7071
 3687TIP3    H232553   6.200   0.531   4.456 -1.2458  1.4679  0.8604
 3688TIP3   OH232554   0.052   1.963   3.391 -0.1590  0.1149  0.1291
 3688TIP3    H132555   0.122   1.928   3.447 -0.8269 -2.7590 -0.6515
 3688TIP3    H232556   0.086   1.952   3.302 -1.4380 -1.0796 -0.2503
 3689TIP3   OH232557   4.218   0.492  11.887 -0.1304 -0.5639 -0.2290
 3689TIP3    H132558   4.288   0.553  11.864 -0.7279  0.0280 -0.5112
 3689TIP3    H232559   4.260   0.406  11.887  0.3789 -0.3464 -1.4438
 3690TIP3   OH232560   2.004   1.991  16.900  0.4183 -0.2147  0.5114
 3690TIP3    H132561   1.984   1.932  16.828 -0.4520  0.5449  0.1062
 3690TIP3    H232562   2.064   2.056  16.862 -2.3919  2.0004 -0.4842
 3691TIP3   OH232563   5.301   2.885   3.949  0.1293 -0.5828 -0.0708
 3691TIP3    H132564   5.253   2.816   3.903  0.1057 -0.5841 -0.0445
 3691TIP3    H232565   5.391   2.855   3.950  0.9866  1.3001 -3.8126
 3692TIP3   OH232566   0.933   1.530   2.271 -0.3340  0.5108 -0.4770
 3692TIP3    H132567   0.944   1.594   2.342 -0.6059 -0.1234  0.1586
 3692TIP3    H232568   0.945   1.445   2.314 -0.4885  0.1157 -1.1985
 3693TIP3   OH232569   2.305   3.322  14.451 -0.4174 -0.2530 -0.3274
 3693TIP3    H132570   2.365   3.334  14.525  1.8011 -1.0427 -1.9265
 3693TIP3    H232571   2.218   3.329  14.491  0.6708 -0.5889  2.3505
 3694TIP3   OH232572   6.085   5.709  12.794 -0.1106 -0.4211  0.0081
 3694TIP3    H132573   6.023   5.762  12.844  0.5901 -0.7911  1.3136
 3694TIP3    H232574   6.054   5.619  12.804  0.2617 -0.5371  0.1246
 3695TIP3   OH232575   1.164   1.577   2.844 -0.9061  0.0536  0.1732
 3695TIP3    H132576   1.069   1.589   2.843 -0.7821  1.1092 -0.1089
 3695TIP3    H232577   1.185   1.548   2.755 -0.8864  0.4569  0.0476
 3696TIP3   OH232578   0.237   3.839   3.126 -0.4193  0.5232 -0.7649
 3696TIP3    H132579   0.324   3.834   3.167 -0.7409  0.8899 -0.0225
 3696TIP3    H232580   0.220   3.749   3.096 -0.6524 -0.0281  0.9184
 3697TIP3   OH232581   3.390   3.876  13.914  0.7493  0.0531 -0.1213
 3697TIP3    H132582   3.312   3.852  13.866  0.4895  1.0444 -0.2190
 3697TIP3    H232583   3.441   3.795  13.920  0.1571 -0.3840 -0.8662
 3698TIP3   OH232584   1.864   5.704  13.905  0.7984 -0.0707 -0.1130
 3698TIP3    H132585   1.848   5.797  13.887 -0.0359 -0.3149 -0.6673
 3698TIP3    H232586   1.905   5.671  13.825 -1.2503 -0.7467 -0.9373
 3699TIP3   OH232587   0.921   4.441  12.899  0.4955  0.3574  0.3330
 3699TIP3    H132588   0.843   4.388  12.910  0.0825  0.8905  0.0167
 3699TIP3    H232589   0.952   4.420  12.811 -1.2282  2.6237 -0.9253
 3700TIP3   OH232590   2.190   5.393   5.477 -0.2878 -0.3011  0.3341
 3700TIP3    H132591   2.256   5.324   5.485  0.9907  0.8354 -0.0496
 3700TIP3    H232592   2.227   5.453   5.413 -1.1392  1.0131  1.0494
 3701TIP3   OH232593   6.566   4.768  16.317 -0.2137 -0.4877 -0.6246
 3701TIP3    H132594   6.598   4.707  16.251  0.4404  0.4547 -1.1926
 3701TIP3    H232595   6.630   4.839  16.319 -0.3604 -0.3569  0.8318
 3702TIP3   OH232596   4.632   5.737  11.234 -0.2141  0.0596 -0.0699
 3702TIP3    H132597   4.610   5.647  11.208 -0.0903  0.0019  0.0294
 3702TIP3    H232598   4.647   5.732  11.328  1.1681 -0.0788 -0.2848
 3703TIP3   OH232599   2.500   4.509  16.917 -0.1815 -0.6585  0.3234
 3703TIP3    H132600   2.557   4.433  16.905  0.4713 -0.1164 -0.1016
 3703TIP3    H232601   2.493   4.548  16.829 -0.1734  0.0011  0.6098
 3704TIP3   OH232602   5.313   4.283   1.736 -0.1305 -0.5419 -0.1694
 3704TIP3    H132603   5.358   4.227   1.798 -1.0164 -2.2555 -0.9983
 3704TIP3    H232604   5.286   4.224   1.665 -1.1673  0.9206 -1.0578
 3705TIP3   OH232605   2.297   6.230  13.534 -0.0061  0.4622 -0.2375
 3705TIP3    H132606   2.220   6.173  13.543 -0.2140  0.6653 -0.6957
 3705TIP3    H232607   2.372   6.171  13.544 -0.2011 -0.1871 -2.2445
 3706TIP3   OH232608   2.846   6.625   1.897 -0.4233  0.6029  0.3549
 3706TIP3    H132609   2.908   6.676   1.844 -0.0289 -0.8880 -0.6934
 3706TIP3    H232610   2.763   6.632   1.850 -0.0873 -0.6695 -0.4885
 3707TIP3   OH232611   2.947   5.403   5.808 -0.3315 -0.4794  0.3222
 3707TIP3    H132612   2.854   5.401   5.784  0.0294 -2.2312 -1.2083
 3707TIP3    H232613   2.959   5.328   5.866  0.0191  0.1601  1.1076
 3708TIP3   OH232614   5.940   5.395  15.242 -0.3000  0.2309  0.4425
 3708TIP3    H132615   5.926   5.435  15.328  0.8206 -2.0571  1.7875
 3708TIP3    H232616   5.899   5.456  15.181 -1.6978  1.6555  2.6296
 3709TIP3   OH232617   5.117   3.860   1.852  0.3384  0.0844  0.1370
 3709TIP3    H132618   5.101   3.776   1.810  0.8202 -1.0343  2.0905
 3709TIP3    H232619   5.205   3.885   1.824  1.0042 -1.0757  1.1197
 3710TIP3   OH232620   5.482   0.388   1.540  0.2155  0.0332  0.1055
 3710TIP3    H132621   5.434   0.384   1.457 -0.3461 -0.0849  0.4288
 3710TIP3    H232622   5.509   0.480   1.547 -0.4157  0.2257  0.1605
 3711TIP3   OH232623   6.629   3.026   0.165 -0.5232 -1.2504 -0.1836
 3711TIP3    H132624   6.592   3.063   0.086  1.1543  1.1288  0.0554
 3711TIP3    H232625   6.560   3.034   0.231 -0.4627  0.8943 -0.3280
 3712TIP3   OH232626   5.376   4.901  12.553  0.0683  0.2199 -0.0319
 3712TIP3    H132627   5.308   4.841  12.581 -0.2031  0.9424  0.9157
 3712TIP3    H232628   5.445   4.892  12.619 -0.1729  1.2696  0.3740
 3713TIP3   OH232629   0.084   4.628   2.515 -0.0874 -0.2714 -0.1669
 3713TIP3    H132630   0.119   4.544   2.485  2.1707  0.0463  1.2805
 3713TIP3    H232631   0.041   4.666   2.439  1.9178 -1.2087 -1.8422
 3714TIP3   OH232632   1.741   3.086   4.522  0.1854  0.0776  0.0865
 3714TIP3    H132633   1.820   3.084   4.467 -0.4500 -1.3842 -0.8215
 3714TIP3    H232634   1.773   3.116   4.608  1.6532 -0.0799 -0.3718
 3715TIP3   OH232635   0.041   2.794   1.695 -0.0450  0.2325  0.6139
 3715TIP3    H132636  -0.027   2.766   1.633 -0.3662  1.7953  0.2191
 3715TIP3    H232637   0.024   2.742   1.774 -1.2964  0.1210  0.2942
 3716TIP3   OH232638   3.431   2.321   5.826  0.2392  0.3654 -0.0254
 3716TIP3    H132639   3.516   2.344   5.790 -0.4360 -0.3090 -2.1901
 3716TIP3    H232640   3.445   2.236   5.869  0.3942 -0.4190 -1.5805
 3717TIP3   OH232641   1.545   4.213   0.494 -0.6327  0.2884  0.7778
 3717TIP3    H132642   1.544   4.236   0.402  0.2587 -0.2643  0.6203
 3717TIP3    H232643   1.624   4.161   0.505 -0.2220  1.1266  2.0461
 3718TIP3   OH232644   1.694   1.380   4.185 -0.2334 -0.2332  0.1273
 3718TIP3    H132645   1.621   1.320   4.201 -1.1259  0.8968  0.3479
 3718TIP3    H232646   1.729   1.399   4.272  2.2379 -3.0063 -0.0883
 3719TIP3   OH232647   0.086   1.035   3.305  0.3922 -0.4505 -0.0309
 3719TIP3    H132648   0.012   0.974   3.303  0.9700 -1.2489  1.3048
 3719TIP3    H232649   0.158   0.985   3.267  1.1407 -1.0631  2.0364
 3720TIP3   OH232650   2.642   4.163   5.743 -0.0115  0.0326 -0.1324
 3720TIP3    H132651   2.567   4.114   5.710 -0.5312  0.3284  0.5721
 3720TIP3    H232652   2.604   4.231   5.798  0.7226  0.9872 -0.7728
 3721TIP3   OH232653   1.884   1.421  13.622 -0.3914  0.0092  0.1107
 3721TIP3    H132654   1.808   1.451  13.673 -0.8838 -3.0663  1.4695
 3721TIP3    H232655   1.956   1.419  13.685 -0.0960 -0.4592 -0.2358
 3722TIP3   OH232656   2.370   0.752   0.715 -0.6224 -0.0355 -0.0095
 3722TIP3    H132657   2.441   0.814   0.702 -1.5203  0.7823 -1.2504
 3722TIP3    H232658   2.310   0.796   0.775 -0.2024 -0.6478  0.8879
 3723TIP3   OH232659   1.105   5.187   5.934 -0.2722  0.3865 -0.0557
 3723TIP3    H132660   1.046   5.177   6.009  0.1177  1.4817  0.4114
 3723TIP3    H232661   1.146   5.100   5.924 -0.5237  0.1578  0.8286
 3724TIP3   OH232662   5.968   6.133   3.378  0.4088 -0.5455  0.3285
 3724TIP3    H132663   6.016   6.092   3.306  0.3530  0.2168 -0.1486
 3724TIP3    H232664   6.009   6.219   3.389 -2.2294  1.0983 -1.6187
 3725TIP3   OH232665   4.489   5.447   6.840 -0.2780 -0.0878  0.3330
 3725TIP3    H132666   4.537   5.399   6.907  0.7562  0.0151 -0.3132
 3725TIP3    H232667   4.444   5.517   6.888  1.9383  1.1425  0.7328
 3726TIP3   OH232668   1.616   4.411  16.675  0.0105  0.2251  0.8291
 3726TIP3    H132669   1.637   4.345  16.610  0.8133  0.1965  1.1097
 3726TIP3    H232670   1.653   4.378  16.757 -0.4899  0.5282  1.1813
 3727TIP3   OH232671   3.521   0.889   4.538  0.4033 -0.0359 -0.4927
 3727TIP3    H132672   3.446   0.906   4.595 -0.6942 -0.8689 -1.6091
 3727TIP3    H232673   3.584   0.842   4.593 -0.7744 -1.1476 -0.0443
 3728TIP3   OH232674   4.388   3.107   3.406 -0.0007 -0.0142  0.4809
 3728TIP3    H132675   4.397   3.028   3.459  0.3994 -0.0309  0.3861
 3728TIP3    H232676   4.296   3.132   3.416  0.0531 -0.0645  1.1126
 3729TIP3   OH232677   5.484   6.425  10.749 -0.7679  0.0795  0.1739
 3729TIP3    H132678   5.473   6.494  10.684  2.2603  1.4909  0.9820
 3729TIP3    H232679   5.579   6.419  10.763 -1.1265 -1.9548  2.5742
 3730TIP3   OH232680   6.020   1.373   2.511  0.6446  0.0123 -0.0855
 3730TIP3    H132681   5.959   1.308   2.547 -1.0749  1.2022 -0.6892
 3730TIP3    H232682   5.973   1.409   2.436  1.4260  2.1257  0.3942
 3731TIP3   OH232683   0.170   2.286   1.623 -0.2388  0.2545  0.1703
 3731TIP3    H132684   0.154   2.267   1.715  0.5301  2.8887  0.9385
 3731TIP3    H232685   0.090   2.260   1.578 -0.1064 -2.4463  1.2752
 3732TIP3   OH232686   2.107   2.042  14.776  0.5466  0.3413 -0.2289
 3732TIP3    H132687   2.051   2.102  14.824 -1.0484 -1.2981  0.0931
 3732TIP3    H232688   2.161   2.001  14.843 -1.1222 -1.3633  0.1742
 3733TIP3   OH232689   3.074   3.764   4.215  0.3789 -0.5191  0.5495
 3733TIP3    H132690   3.167   3.765   4.195  0.7270 -0.2300  2.0135
 3733TIP3    H232691   3.064   3.829   4.285 -1.1440  0.3900 -0.4668
 3734TIP3   OH232692   0.007   2.361   5.863  0.4609  0.3156 -0.4878
 3734TIP3    H132693   0.066   2.348   5.789  0.5890 -0.5423 -0.2463
 3734TIP3    H232694   0.044   2.307   5.933 -1.4343 -1.5083 -0.7885
 3735TIP3   OH232695   6.027   3.768  13.300 -0.7405  0.0444  0.8962
 3735TIP3    H132696   5.996   3.857  13.316 -1.7710 -0.2831  0.7801
 3735TIP3    H232697   6.054   3.768  13.208 -0.5075  0.2935  0.9628
 3736TIP3   OH232698   3.519   3.766   5.937 -0.2524  0.1323  0.1629
 3736TIP3    H132699   3.443   3.822   5.922 -0.0541  0.7380  1.2485
 3736TIP3    H232700   3.484   3.690   5.984 -0.3359 -0.0651 -0.2179
 3737TIP3   OH232701   2.285   1.414   1.317  0.0676  0.2117 -0.4677
 3737TIP3    H132702   2.254   1.388   1.231  0.4193  0.6705 -0.7362
 3737TIP3    H232703   2.370   1.371   1.327 -0.5260 -0.8565  0.1729
 3738TIP3   OH232704   6.160   1.145   3.312 -0.3758 -0.4850 -0.4160
 3738TIP3    H132705   6.165   1.136   3.407 -0.4253  0.9370 -0.2535
 3738TIP3    H232706   6.186   1.060   3.278 -1.4680 -1.3741  0.8888
 3739TIP3   OH232707   4.501   5.006   0.053  0.2481  0.5254 -0.5870
 3739TIP3    H132708   4.534   5.056  -0.022 -0.3192 -1.0479 -1.9625
 3739TIP3    H232709   4.444   5.066   0.100 -0.4425  1.1659 -2.1988
 3740TIP3   OH232710   5.989   4.083   3.475  0.8602  0.2023 -0.5148
 3740TIP3    H132711   5.917   4.124   3.427  1.0541  2.3530  0.8769
 3740TIP3    H232712   6.068   4.124   3.438  1.1211  0.5018  0.3583
 3741TIP3   OH232713   1.668   3.164   3.549 -0.0907  0.0632  0.3557
 3741TIP3    H132714   1.706   3.205   3.627  0.4778  1.7410 -0.7547
 3741TIP3    H232715   1.715   3.204   3.476 -0.3710 -1.7163 -0.8611
 3742TIP3   OH232716   4.221   5.386   0.566 -0.1521  0.4222  0.1807
 3742TIP3    H132717   4.137   5.432   0.564  1.4491  3.6623 -2.2492
 3742TIP3    H232718   4.212   5.315   0.503 -1.2636  0.2936  0.4761
 3743TIP3   OH232719   0.944   1.704  10.445  0.1661  0.0363 -0.6216
 3743TIP3    H132720   0.959   1.777  10.505  1.0682 -0.9484  0.3934
 3743TIP3    H232721   0.856   1.720  10.410 -1.0413 -0.1049  2.0764
 3744TIP3   OH232722   6.768   6.782   4.304 -0.4199  1.4924 -0.5818
 3744TIP3    H132723   6.823   6.707   4.281 -1.6199 -0.1097  1.4397
 3744TIP3    H232724   6.736   6.815   4.220  0.0701 -0.3148 -1.5357
 3745TIP3   OH232725   6.630   4.009   0.931  0.6059  0.1381 -0.1709
 3745TIP3    H132726   6.637   4.029   0.838  1.2789  3.1175  0.4101
 3745TIP3    H232727   6.688   3.934   0.945  0.2310 -0.5774 -2.1629
 3746TIP3   OH232728   2.350   1.315  15.106 -0.1672 -0.9687 -0.0513
 3746TIP3    H132729   2.407   1.342  15.034  0.2136 -1.4765  0.0603
 3746TIP3    H232730   2.408   1.308  15.181 -0.6879  0.3351  0.5142
 3747TIP3   OH232731   2.207   3.024   1.883 -0.0919 -0.3940  0.2796
 3747TIP3    H132732   2.136   3.017   1.819  0.2313 -1.1562 -0.0011
 3747TIP3    H232733   2.260   2.946   1.869 -0.0380 -0.5984  1.4960
 3748TIP3   OH232734   0.882   0.399  13.952 -0.0136 -0.3949 -0.4726
 3748TIP3    H132735   0.789   0.412  13.968  0.2287 -0.9249  1.6485
 3748TIP3    H232736   0.900   0.312  13.988  1.0077 -0.9961 -2.3067
 3749TIP3   OH232737   2.988   3.243   5.958 -0.9548  0.0316 -0.1926
 3749TIP3    H132738   3.007   3.268   5.867 -1.3178 -3.5302 -1.4072
 3749TIP3    H232739   3.074   3.242   6.001 -0.5079 -0.0662 -1.0553
 3750TIP3   OH232740   0.826   0.602   5.901 -0.1394  0.1862  0.6205
 3750TIP3    H132741   0.774   0.535   5.856 -1.6610  1.2317  0.7423
 3750TIP3    H232742   0.909   0.602   5.854 -0.5654 -0.9101 -0.1928
 3751TIP3   OH232743   5.455   0.605  12.294  0.1784  0.2314  0.1341
 3751TIP3    H132744   5.484   0.696  12.296 -2.9758  1.3532  0.2821
 3751TIP3    H232745   5.406   0.596  12.212 -0.5137 -1.0024  0.6444
 3752TIP3   OH232746   6.751   2.147  16.222 -0.0395 -0.2006  0.0163
 3752TIP3    H132747   6.716   2.236  16.214 -0.0623 -0.0740  1.2797
 3752TIP3    H232748   6.777   2.140  16.314 -0.6628 -1.7287  0.1054
 3753TIP3   OH232749   2.376   5.444   4.989 -0.2243  0.1304  0.6435
 3753TIP3    H132750   2.366   5.362   4.941 -1.4139  0.6748 -0.0861
 3753TIP3    H232751   2.419   5.504   4.928 -0.6815  0.4756  0.6491
 3754TIP3   OH232752   3.612   0.290   1.871 -0.2450  0.0752 -0.2160
 3754TIP3    H132753   3.586   0.199   1.855  0.6163  0.1574 -2.5455
 3754TIP3    H232754   3.705   0.285   1.892  0.2811  0.4902 -2.2256
 3755TIP3   OH232755   1.173   0.416   4.772 -0.8844  0.0230 -0.3596
 3755TIP3    H132756   1.267   0.404   4.761 -1.2225 -1.8415 -1.6048
 3755TIP3    H232757   1.142   0.336   4.814 -2.0344  0.2002 -0.8180
 3756TIP3   OH232758   0.089   3.932   4.453 -0.3418 -0.4723 -0.3806
 3756TIP3    H132759   0.070   3.951   4.361 -0.2777 -0.7738 -0.4572
 3756TIP3    H232760   0.132   3.847   4.451 -0.2445 -0.4298 -0.0791
 3757TIP3   OH232761   1.673   5.132  11.281  0.8360 -0.4634  0.4953
 3757TIP3    H132762   1.710   5.053  11.320  1.5012  0.0845  1.0074
 3757TIP3    H232763   1.740   5.199  11.294 -0.4606  0.6762  1.8072
 3758TIP3   OH232764   4.709   2.949   1.351 -0.2366  0.1660  0.0708
 3758TIP3    H132765   4.744   3.004   1.421  0.9035 -0.2879 -0.1205
 3758TIP3    H232766   4.786   2.923   1.300 -0.7502 -1.5132  0.0878
 3759TIP3   OH232767   2.340   3.138   5.214  0.1014 -0.1180  0.4742
 3759TIP3    H132768   2.328   3.100   5.301 -1.2981 -0.0881  0.3220
 3759TIP3    H232769   2.278   3.090   5.159 -0.7200  1.4412 -0.0099
 3760TIP3   OH232770   3.900   6.315  13.054  0.4479  0.2204 -0.2152
 3760TIP3    H132771   3.915   6.301  13.148 -1.9428  0.5091  0.2593
 3760TIP3    H232772   3.910   6.409  13.042 -2.2008  0.6455  0.4103
 3761TIP3   OH232773   2.131   0.681  15.856 -0.5311  0.2248  0.4043
 3761TIP3    H132774   2.214   0.634  15.848 -0.5344  0.3603 -0.5583
 3761TIP3    H232775   2.103   0.697  15.766 -1.1243  1.0244  0.7093
 3762TIP3   OH232776   5.672   5.666  16.641  0.1136 -0.1033  0.6931
 3762TIP3    H132777   5.720   5.626  16.568 -1.5362  0.5127 -0.7878
 3762TIP3    H232778   5.599   5.605  16.657  0.6535 -0.4116  2.0917
 3763TIP3   OH232779   5.595   2.497  11.349 -0.0186  0.9735  0.0522
 3763TIP3    H132780   5.608   2.465  11.261 -0.3698  2.2909 -0.5117
 3763TIP3    H232781   5.636   2.432  11.406 -0.1618 -0.0980 -1.0514
 3764TIP3   OH232782   4.893   5.915   2.090  0.3513 -0.1453 -0.4904
 3764TIP3    H132783   4.906   5.900   1.996  1.9613  0.3972 -0.3892
 3764TIP3    H232784   4.958   5.858   2.132  0.4709  0.5184  0.2300
 3765TIP3   OH232785   5.275   4.331  12.021 -0.3520  0.3061  0.0471
 3765TIP3    H132786   5.228   4.313  12.103 -0.3861 -1.0984 -0.2637
 3765TIP3    H232787   5.205   4.345  11.957 -0.3655  3.1040  0.5321
 3766TIP3   OH232788   4.084   6.048  13.283  0.8444 -0.1666 -0.1323
 3766TIP3    H132789   4.172   6.036  13.246  0.1545 -0.0071 -1.9297
 3766TIP3    H232790   4.047   5.960  13.285  1.3291 -0.3682  1.4864
 3767TIP3   OH232791   4.947   2.557   1.772  0.4844 -0.1433  0.4872
 3767TIP3    H132792   4.950   2.551   1.867  2.4684 -1.0140  0.4373
 3767TIP3    H232793   4.929   2.468   1.742  0.8400 -0.0775  0.0533
 3768TIP3   OH232794   4.078   2.589   3.895  0.2110 -0.0098  0.5028
 3768TIP3    H132795   4.068   2.533   3.972 -0.1579 -0.9939 -0.2407
 3768TIP3    H232796   4.041   2.538   3.823  0.0870  1.0996 -0.2456
 3769TIP3   OH232797   5.568   6.408  13.724 -0.1460 -0.4065 -0.2776
 3769TIP3    H132798   5.573   6.382  13.816  1.2249 -0.9471 -0.4877
 3769TIP3    H232799   5.598   6.499  13.723 -2.4326  0.4142  0.0984
 3770TIP3   OH232800   3.647   3.431  14.099  0.4150  0.2716  0.9515
 3770TIP3    H132801   3.723   3.382  14.130 -0.8132 -2.0613  0.5111
 3770TIP3    H232802   3.635   3.403  14.009 -1.5359 -0.2006  1.3113
 3771TIP3   OH232803   6.245   1.345   2.873  0.0629  0.2507  0.3100
 3771TIP3    H132804   6.327   1.357   2.823  0.1919 -2.0893 -0.1432
 3771TIP3    H232805   6.208   1.264   2.839 -0.2996 -1.0054  3.4417
 3772TIP3   OH232806   1.450   3.928   0.323  0.3808 -0.0623  0.7425
 3772TIP3    H132807   1.399   3.847   0.328 -1.7531  1.0917 -0.5888
 3772TIP3    H232808   1.440   3.968   0.410 -1.0532  0.1206  0.5251
 3773TIP3   OH232809   6.539   5.980  11.826 -0.1171  0.2517 -0.3752
 3773TIP3    H132810   6.519   5.905  11.881  1.6872 -0.1970 -0.2883
 3773TIP3    H232811   6.483   6.050  11.859 -0.2337 -0.4532  0.9722
 3774TIP3   OH232812   1.101   5.048   2.227 -0.3641  0.3910  0.5695
 3774TIP3    H132813   1.187   5.069   2.263  0.6783 -0.1554 -1.4535
 3774TIP3    H232814   1.081   4.961   2.262  1.1075 -0.5911 -0.9296
 3775TIP3   OH232815   6.391   3.705  16.166  0.2651 -1.1860  0.5224
 3775TIP3    H132816   6.387   3.675  16.075  0.8412 -1.5642  0.6184
 3775TIP3    H232817   6.308   3.751  16.179  0.3028 -0.8554 -0.2891
 3776TIP3   OH232818   4.909   6.309  15.327 -0.3229  0.3264 -0.4063
 3776TIP3    H132819   4.912   6.348  15.240 -0.7451  1.2442 -0.0243
 3776TIP3    H232820   4.850   6.366  15.377 -0.2819 -0.3253  0.4086
 3777TIP3   OH232821   3.970   0.549   0.265  0.0401 -0.0907  0.1325
 3777TIP3    H132822   4.031   0.607   0.310 -0.0414 -0.6408  0.9707
 3777TIP3    H232823   4.021   0.510   0.194 -0.0968  1.5328 -0.9179
 3778TIP3   OH232824   2.265   6.277   5.742 -0.2285 -0.3553 -0.4000
 3778TIP3    H132825   2.241   6.313   5.827  0.2972 -3.1913  1.0692
 3778TIP3    H232826   2.211   6.326   5.680 -0.8273  1.6392  1.5371
 3779TIP3   OH232827   3.880   4.069  13.054  0.4250 -0.3733  0.0452
 3779TIP3    H132828   3.934   4.141  13.087 -0.3257  2.2479 -3.8417
 3779TIP3    H232829   3.791   4.105  13.052  0.1632 -0.9715 -2.8019
 3780TIP3   OH232830   3.103   1.130   4.833 -0.3204 -0.0667  0.5619
 3780TIP3    H132831   3.095   1.080   4.752 -0.7831  0.5871  0.1995
 3780TIP3    H232832   3.105   1.221   4.805 -1.3352  0.2114  1.3381
 3781TIP3   OH232833   6.692   0.575   2.690  0.1452  0.4293  0.1003
 3781TIP3    H132834   6.742   0.638   2.638  0.3694  0.5406  0.4497
 3781TIP3    H232835   6.695   0.609   2.779  0.0965  0.0302  0.2581
 3782TIP3   OH232836   0.996   4.364   6.229 -0.0818 -0.5585  0.5728
 3782TIP3    H132837   1.022   4.288   6.281 -1.1450 -0.1097  1.8036
 3782TIP3    H232838   0.915   4.337   6.185  0.3091 -0.6138 -0.1354
 3783TIP3   OH232839   2.116   4.567  13.586 -0.1510  0.2348 -0.7597
 3783TIP3    H132840   2.023   4.592  13.582 -0.0102  0.8208 -0.4398
 3783TIP3    H232841   2.129   4.516  13.506 -0.2835  1.8222 -1.8598
 3784TIP3   OH232842   4.712   2.272  13.945 -0.1356 -0.3116  0.7753
 3784TIP3    H132843   4.623   2.305  13.927  0.3287  0.8192  0.4566
 3784TIP3    H232844   4.725   2.290  14.039 -0.4473 -0.9891  0.9507
 3785TIP3   OH232845   4.455   2.392   2.643  0.6493  0.3788  0.4519
 3785TIP3    H132846   4.436   2.301   2.666 -0.5194  0.3710 -0.4132
 3785TIP3    H232847   4.469   2.390   2.548 -0.1786  1.2040  0.2948
 3786TIP3   OH232848   4.886   6.702  15.319 -0.4004  0.7073 -0.2157
 3786TIP3    H132849   4.853   6.754  15.392 -0.3548  0.4504 -0.0068
 3786TIP3    H232850   4.832   6.623  15.320 -0.2245  0.5856 -0.2922
 3787TIP3   OH232851   0.621   4.846  14.442  0.2205 -0.1028 -0.4572
 3787TIP3    H132852   0.583   4.851  14.529 -0.1343 -1.2391 -0.5294
 3787TIP3    H232853   0.716   4.849  14.457  0.3356 -3.3728  0.3096
 3788TIP3   OH232854   6.471   5.509   3.987 -0.0039  0.1867  0.6338
 3788TIP3    H132855   6.384   5.545   3.970 -0.2280 -0.0755  1.2049
 3788TIP3    H232856   6.458   5.415   3.992 -0.1853  0.2793  3.3939
 3789TIP3   OH232857   3.661   2.736  14.282 -0.2121 -0.7095 -0.0813
 3789TIP3    H132858   3.613   2.818  14.280  0.2041 -0.4409  0.5001
 3789TIP3    H232859   3.602   2.672  14.243 -2.2329 -0.9975  3.0699
 3790TIP3   OH232860   0.035   1.475  16.526  0.0569 -0.0355 -0.1739
 3790TIP3    H132861  -0.052   1.513  16.530 -0.3237 -0.9173  0.2360
 3790TIP3    H232862   0.020   1.383  16.505  0.9894  0.1681 -1.8522
 3791TIP3   OH232863   6.720   0.956  12.147 -0.6838 -0.1755 -0.5659
 3791TIP3    H132864   6.670   1.005  12.213  1.9856  0.9074  0.8467
 3791TIP3    H232865   6.782   0.904  12.199 -0.7459 -1.9410 -2.1836
 3792TIP3   OH232866   6.748   4.872  16.961 -0.1035 -0.8788  0.1403
 3792TIP3    H132867   6.828   4.858  16.911 -0.3786 -0.7216 -0.3504
 3792TIP3    H232868   6.761   4.823  17.042  0.1529 -1.5261 -0.2876
 3793TIP3   OH232869   5.606   1.344  12.831 -0.3843  0.4954 -0.2758
 3793TIP3    H132870   5.601   1.330  12.736 -0.9692  0.5842 -0.2615
 3793TIP3    H232871   5.563   1.268  12.869 -0.4175  0.6064 -0.0911
 3794TIP3   OH232872   1.782   5.880   6.574 -0.3430  0.2941 -0.3703
 3794TIP3    H132873   1.732   5.921   6.503 -1.7553  0.6541  0.7803
 3794TIP3    H232874   1.872   5.912   6.561 -0.7918  1.2445 -1.3414
 3795TIP3   OH232875   4.280   3.815   4.861 -0.1763  0.7111 -0.2248
 3795TIP3    H132876   4.289   3.879   4.931  1.5882  1.0550 -0.7247
 3795TIP3    H232877   4.352   3.835   4.801 -1.2762  0.0322 -1.8240
 3796TIP3   OH232878   5.623   0.046  16.699  0.0087  0.1949  0.2183
 3796TIP3    H132879   5.615   0.059  16.605  1.9472  0.1913  0.0202
 3796TIP3    H232880   5.568  -0.031  16.717 -0.5265  0.3044 -0.8579
 3797TIP3   OH232881   0.869   1.800  11.948 -0.2500  0.1554  0.1670
 3797TIP3    H132882   0.791   1.844  11.980  0.7454  1.6581  0.6198
 3797TIP3    H232883   0.839   1.753  11.870 -1.9008 -0.5245  1.1600
 3798TIP3   OH232884   5.568   1.252   1.568  0.4737 -0.4066 -0.3052
 3798TIP3    H132885   5.579   1.218   1.657  0.2372 -1.7735 -0.7685
 3798TIP3    H232886   5.657   1.263   1.534  0.5795  0.7207  0.2970
 3799TIP3   OH232887   1.879   5.944  14.257 -0.0835  0.1222 -1.0352
 3799TIP3    H132888   1.802   5.915  14.208 -0.5390  0.2589 -0.4091
 3799TIP3    H232889   1.859   6.034  14.282  0.0676 -0.0063 -0.4441
 3800TIP3   OH232890   0.847   6.073  12.623 -0.4002 -0.7000 -0.5883
 3800TIP3    H132891   0.807   6.000  12.670 -0.0133 -0.5013  0.0553
 3800TIP3    H232892   0.932   6.039  12.594 -0.5791 -0.7781 -1.0397
 3801TIP3   OH232893   4.337   1.011   5.389  0.5691 -0.2978  0.6944
 3801TIP3    H132894   4.410   0.958   5.420  0.4889 -0.9837 -0.2013
 3801TIP3    H232895   4.327   1.081   5.453  0.3063 -1.7056  2.2745
 3802TIP3   OH232896   5.878   2.991  12.754 -0.2707 -0.3739 -0.4227
 3802TIP3    H132897   5.903   2.926  12.688  2.1406  1.0781 -1.0570
 3802TIP3    H232898   5.782   2.989  12.754 -0.2990 -3.2973 -0.9970
 3803TIP3   OH232899   5.117   1.711  12.970 -0.5154 -0.2225  0.0544
 3803TIP3    H132900   5.024   1.728  12.957 -0.1206  1.6680 -0.6539
 3803TIP3    H232901   5.137   1.641  12.907 -0.9023  1.4009 -2.0042
 3804TIP3   OH232902   0.764   4.229  15.292  0.2447  0.4242  0.2526
 3804TIP3    H132903   0.799   4.145  15.322  0.5023  0.3235 -0.3038
 3804TIP3    H232904   0.743   4.277  15.372  0.8097  0.1255  0.5851
 3805TIP3   OH232905   0.554   4.758   4.010  0.3882  0.3948  0.5923
 3805TIP3    H132906   0.485   4.796   3.957  1.1536 -0.0463 -0.7838
 3805TIP3    H232907   0.633   4.807   3.986  0.7140  0.3459  1.5098
 3806TIP3   OH232908   0.611   2.957  15.928 -0.3533 -0.3932  0.6178
 3806TIP3    H132909   0.536   2.908  15.894 -0.9436  0.2180  1.0054
 3806TIP3    H232910   0.572   3.021  15.989  0.3354  0.9227 -0.2805
 3807TIP3   OH232911   4.975   0.348   2.823  0.2017  0.2874 -0.2759
 3807TIP3    H132912   5.017   0.262   2.818 -0.4011  0.0564 -2.3583
 3807TIP3    H232913   4.884   0.331   2.798 -0.2831  1.3385  0.6862
 3808TIP3   OH232914   5.998   0.791  15.096  0.8256  0.2918 -0.6061
 3808TIP3    H132915   6.067   0.809  15.032  1.0706  0.4939 -0.2835
 3808TIP3    H232916   5.953   0.874  15.107  0.2206  0.0482 -1.1754
 3809TIP3   OH232917   2.818   4.997  15.510  0.0506 -0.3180  0.1565
 3809TIP3    H132918   2.754   4.998  15.581 -0.2916 -2.0345 -0.0857
 3809TIP3    H232919   2.901   4.974  15.553 -0.2393 -1.7975 -0.0131
 3810TIP3   OH232920   4.560   6.676   3.794 -0.3390 -0.2368  1.3050
 3810TIP3    H132921   4.546   6.595   3.843 -3.3395 -0.3522  0.4075
 3810TIP3    H232922   4.526   6.744   3.852  0.4997  0.2238  1.2837
 3811TIP3   OH232923   4.336   3.325  14.809  0.2712  0.5891 -0.2518
 3811TIP3    H132924   4.389   3.252  14.777  2.0641  0.9429  1.6549
 3811TIP3    H232925   4.249   3.310  14.772  0.6496 -2.3455 -0.1955
 3812TIP3   OH232926   0.545   0.770  16.717  0.1921 -0.2692  0.7770
 3812TIP3    H132927   0.601   0.731  16.650 -1.2650 -1.7880  0.4021
 3812TIP3    H232928   0.466   0.717  16.717 -1.4072  1.9688  1.1133
 3813TIP3   OH232929   6.198   3.582   0.285 -0.2994 -0.2217  0.3322
 3813TIP3    H132930   6.283   3.570   0.244  0.1449  2.3416  0.3778
 3813TIP3    H232931   6.203   3.667   0.327 -2.2241 -0.8747  2.0653
 3814TIP3   OH232932   0.315   2.871  15.848  0.9513  0.3503  0.2184
 3814TIP3    H132933   0.222   2.870  15.825  0.7438  1.3389  0.9475
 3814TIP3    H232934   0.338   2.779  15.860 -0.4710  0.1964  2.1277
 3815TIP3   OH232935   5.110   4.769  16.524 -0.0897 -0.1616  0.6566
 3815TIP3    H132936   5.130   4.676  16.530  1.3617  0.1309  0.7740
 3815TIP3    H232937   5.159   4.809  16.596 -1.1165  0.6488  0.9459
 3816TIP3   OH232938   3.379   0.838   1.198 -0.0512 -0.4749  0.3790
 3816TIP3    H132939   3.442   0.850   1.269 -2.4989 -1.0582  2.7751
 3816TIP3    H232940   3.315   0.908   1.210 -2.0041 -2.1878  0.5102
 3817TIP3   OH232941   6.434   5.768  15.777  0.7988 -0.2084 -0.4001
 3817TIP3    H132942   6.415   5.681  15.813  1.0269  0.6914  2.1379
 3817TIP3    H232943   6.435   5.755  15.682  0.2436 -2.8355 -0.1394
 3818TIP3   OH232944   0.687   4.973  13.910  0.0828  0.2932 -0.0505
 3818TIP3    H132945   0.774   5.011  13.918  1.1254 -1.8903 -0.3198
 3818TIP3    H232946   0.701   4.879  13.921 -2.2255 -0.1266 -0.2833
 3819TIP3   OH232947   3.553   0.332  15.248  0.0742 -0.2739 -0.5872
 3819TIP3    H132948   3.468   0.350  15.288  0.2843  0.3643 -0.4315
 3819TIP3    H232949   3.578   0.246  15.282  1.6252  1.4133  3.0732
 3820TIP3   OH232950   2.741   0.543   1.073 -0.1136 -0.0869 -0.4595
 3820TIP3    H132951   2.718   0.603   1.143 -1.5995 -0.5452 -0.5166
 3820TIP3    H232952   2.694   0.462   1.094  0.5455 -0.6988 -1.2351
 3821TIP3   OH232953   4.551   2.217  13.555  0.9589  0.2595 -0.3133
 3821TIP3    H132954   4.568   2.285  13.621  0.9680  0.9236 -0.9878
 3821TIP3    H232955   4.591   2.251  13.475 -0.7513  0.3749 -1.1530
 3822TIP3   OH232956   0.399   0.487   4.073  0.3015  0.9397  0.0605
 3822TIP3    H132957   0.389   0.580   4.057  2.6978  1.2410 -0.0372
 3822TIP3    H232958   0.312   0.450   4.058 -0.0745  2.7287 -2.7326
 3823TIP3   OH232959   3.804   1.238   1.736  0.5502 -0.5639 -0.4596
 3823TIP3    H132960   3.779   1.169   1.674  1.5854 -1.5075  0.1511
 3823TIP3    H232961   3.780   1.203   1.822  1.3406 -0.2879 -0.1231
 3824TIP3   OH232962   2.101   2.325  13.916  0.1876 -0.2545  0.2965
 3824TIP3    H132963   2.147   2.266  13.856  1.7714  0.9702  0.2367
 3824TIP3    H232964   2.072   2.397  13.860 -1.7966 -0.9602  0.3557
 3825TIP3   OH232965   0.003   4.088  14.496 -0.0991 -0.4677  0.0134
 3825TIP3    H132966  -0.079   4.131  14.522  0.2680 -0.8821  1.9913
 3825TIP3    H232967   0.068   4.121  14.557  0.6928 -2.0394  0.0753
 3826TIP3   OH232968   2.021   0.308  13.997  0.0604  0.1647 -0.9401
 3826TIP3    H132969   2.014   0.219  13.963  0.4357 -0.1544 -0.2315
 3826TIP3    H232970   2.064   0.296  14.082  1.6639  1.1659 -1.5605
 3827TIP3   OH232971   4.570   5.111  10.923 -0.0036  0.2409 -0.0928
 3827TIP3    H132972   4.534   5.187  10.970 -0.3736 -0.1660  0.2796
 3827TIP3    H232973   4.665   5.121  10.933 -0.0781  0.0548  0.9240
 3828TIP3   OH232974   2.511   1.535   4.603  0.2817 -0.6773 -0.1644
 3828TIP3    H132975   2.478   1.469   4.542 -0.6179  0.6975 -1.2252
 3828TIP3    H232976   2.436   1.591   4.621  1.2803  0.7199 -0.1793
 3829TIP3   OH232977   0.239   0.319   6.761 -0.0714  0.0085  0.6828
 3829TIP3    H132978   0.244   0.339   6.667  0.2618 -4.1742 -0.4026
 3829TIP3    H232979   0.323   0.278   6.781 -0.8634 -0.9188  2.2832
 3830TIP3   OH232980   1.034   5.243  17.248 -0.2063  0.0192 -0.6542
 3830TIP3    H132981   1.129   5.244  17.236 -0.0324 -1.5293  0.2750
 3830TIP3    H232982   1.014   5.152  17.270 -1.7082  0.6121  0.6365
 3831TIP3   OH232983   3.326   5.997  13.766  0.3113 -0.2641  0.0735
 3831TIP3    H132984   3.281   6.072  13.728 -0.9383 -0.8949  0.2406
 3831TIP3    H232985   3.381   5.962  13.695  2.8825  2.2199  0.6648
 3832TIP3   OH232986   1.833   4.253   3.333  0.5191  0.2514  0.1423
 3832TIP3    H132987   1.864   4.171   3.372  0.4698  0.0126 -0.3112
 3832TIP3    H232988   1.780   4.225   3.259 -0.9996  0.6439  1.0361
 3833TIP3   OH232989   2.989   2.453  13.824  0.4274  0.2108  0.7988
 3833TIP3    H132990   2.941   2.465  13.906 -0.6165 -3.2954  0.8774
 3833TIP3    H232991   3.061   2.394  13.847  1.4455  0.9190 -0.4311
 3834TIP3   OH232992   2.022   0.182   6.010  0.6056  0.2278 -0.0546
 3834TIP3    H132993   1.978   0.104   6.045  1.5201 -0.0739  0.4578
 3834TIP3    H232994   2.098   0.193   6.067  0.3949  1.6001 -0.0200
 3835TIP3   OH232995   0.902   3.524  12.289 -0.2322  0.0484 -0.3325
 3835TIP3    H132996   0.880   3.461  12.357 -0.8877  0.4798 -0.1340
 3835TIP3    H232997   0.940   3.471  12.219 -0.1223 -0.4758  0.1145
 3836TIP3   OH232998   4.019   6.123  14.232  0.1257 -0.6584 -0.5640
 3836TIP3    H132999   3.995   6.142  14.142  0.2740  0.3487 -0.3951
 3836TIP3    H233000   4.010   6.028  14.239 -1.6656 -0.5665 -1.1100
 3837TIP3   OH233001   5.115   3.420  14.876  0.3521  0.1906  0.1686
 3837TIP3    H133002   5.200   3.415  14.919 -0.1967  1.6602  1.5400
 3837TIP3    H233003   5.059   3.465  14.940 -1.6534 -1.4026 -0.3891
 3838TIP3   OH233004   0.044   4.205   5.206  0.0602  0.3949  0.1647
 3838TIP3    H133005  -0.038   4.163   5.179  0.7837  0.1467 -1.7989
 3838TIP3    H233006   0.062   4.169   5.293 -1.9438  0.5326  0.6837
 3839TIP3   OH233007   2.409   0.408   3.637 -0.2359  0.2142  0.0586
 3839TIP3    H133008   2.387   0.317   3.659  2.7754 -0.2492  1.6926
 3839TIP3    H233009   2.482   0.400   3.575  0.1235  1.4885  0.3037
 3840TIP3   OH233010   0.012   4.689  14.700  0.3610  0.5104 -0.3257
 3840TIP3    H133011   0.014   4.784  14.709  1.0507  0.4769 -0.0692
 3840TIP3    H233012   0.020   4.674  14.605  0.2646  0.7084 -0.3647
 3841TIP3   OH233013   2.752   4.369  16.059 -0.5183 -0.2434  0.2563
 3841TIP3    H133014   2.838   4.328  16.060 -0.3825  0.0418  1.0841
 3841TIP3    H233015   2.769   4.461  16.079 -0.9766 -0.1123  0.0531
 3842TIP3   OH233016   2.694   5.341  16.698  0.2609  0.4717 -0.6053
 3842TIP3    H133017   2.747   5.391  16.760  1.5832 -1.0327 -0.4752
 3842TIP3    H233018   2.748   5.337  16.619  0.0191 -0.4359 -0.7293
 3843TIP3   OH233019   5.923   2.988  11.673 -0.0371 -0.1875 -0.6590
 3843TIP3    H133020   5.839   3.030  11.689  0.2305  0.1671 -0.1456
 3843TIP3    H233021   5.903   2.895  11.663 -0.4189 -0.1841  0.0498
 3844TIP3   OH233022   2.386   2.857  13.050 -0.4394  0.2459  0.5755
 3844TIP3    H133023   2.333   2.795  13.101 -1.2183  0.8905  0.5661
 3844TIP3    H233024   2.469   2.811  13.036 -1.4696 -1.3675 -0.6302
 3845TIP3   OH233025   6.775   4.040   4.664  0.6319  0.2076  0.4463
 3845TIP3    H133026   6.802   4.130   4.648 -1.0530  0.7196  0.2004
 3845TIP3    H233027   6.790   3.995   4.581 -0.8214  0.9140 -0.2387
 3846TIP3   OH233028   2.861   0.005   6.235  0.0722  0.1355 -0.4941
 3846TIP3    H133029   2.836  -0.087   6.243  0.8707 -0.1624 -1.3284
 3846TIP3    H233030   2.778   0.053   6.246 -0.5890 -0.7452 -1.4490
 3847TIP3   OH233031   0.074   3.280   0.574  0.2936  0.4700  0.3085
 3847TIP3    H133032   0.023   3.245   0.647 -1.8678  1.3426 -0.6853
 3847TIP3    H233033   0.058   3.219   0.502  2.9181 -0.7390  0.6324
 3848TIP3   OH233034   4.758   5.374  15.322 -0.2224 -0.3424  0.2851
 3848TIP3    H133035   4.785   5.449  15.375  0.8966 -0.4580 -0.0930
 3848TIP3    H233036   4.674   5.347  15.359 -1.0439  1.5768 -0.0699
 3849TIP3   OH233037   3.138   2.478   4.960  0.5002  0.5230 -0.3456
 3849TIP3    H133038   3.092   2.521   5.032  0.2489  0.7086 -0.6152
 3849TIP3    H233039   3.124   2.535   4.885 -0.5783 -0.4534 -0.9235
 3850TIP3   OH233040   6.613   3.670   4.044  0.7967 -0.0718 -0.7459
 3850TIP3    H133041   6.679   3.683   3.977  1.3183 -1.3722 -0.5095
 3850TIP3    H233042   6.600   3.576   4.048 -0.3572  0.0857 -0.0893
 3851TIP3   OH233043   4.304   5.018  11.572 -0.8769 -0.4922 -0.2868
 3851TIP3    H133044   4.376   4.959  11.551  0.1817  1.4814 -2.5906
 3851TIP3    H233045   4.227   4.978  11.530 -0.6367 -1.3045  0.0246
 3852TIP3   OH233046   2.217   4.630  12.317  0.1837 -0.8335  0.2753
 3852TIP3    H133047   2.233   4.595  12.229  0.1643  0.5485 -0.3057
 3852TIP3    H233048   2.304   4.646  12.353  0.1968 -1.6832  0.6398
 3853TIP3   OH233049   0.288   4.366   3.793  0.2366  0.0000 -0.2619
 3853TIP3    H133050   0.335   4.423   3.732 -0.1003 -0.5921 -1.0936
 3853TIP3    H233051   0.196   4.373   3.765  0.3922 -2.2965 -1.5254
 3854TIP3   OH233052   4.509   1.757  11.824 -0.5538  0.2180 -0.7636
 3854TIP3    H133053   4.450   1.825  11.792 -1.5386 -0.0899  0.3333
 3854TIP3    H233054   4.486   1.746  11.916  1.4623  0.3110 -0.2150
 3855TIP3   OH233055   5.251   3.013   5.789 -0.3915  0.1595 -0.0306
 3855TIP3    H133056   5.333   3.006   5.740 -0.8826  0.7606 -0.9827
 3855TIP3    H233057   5.252   3.103   5.823  0.7527 -0.7417  2.6273
 3856TIP3   OH233058   3.957   6.163   6.553  0.1840 -0.3441  0.0903
 3856TIP3    H133059   3.935   6.088   6.608 -0.1131  0.2491  0.7801
 3856TIP3    H233060   4.049   6.148   6.530  0.5242 -0.2556  1.3127
 3857TIP3   OH233061   0.701   1.732  17.307  0.4572  0.1174  0.3550
 3857TIP3    H133062   0.771   1.757  17.246 -0.6137  0.1888 -0.8848
 3857TIP3    H233063   0.624   1.779  17.276 -0.7670 -1.9402  0.1050
 3858TIP3   OH233064   4.864   5.109  10.927  0.6791  0.0067  0.3925
 3858TIP3    H133065   4.945   5.140  10.966  1.2246 -1.2671  0.3367
 3858TIP3    H233066   4.850   5.166  10.851  0.9538  0.8870  0.9926
 3859TIP3   OH233067   1.584   1.024  17.248  0.0311  0.0365  0.0866
 3859TIP3    H133068   1.618   1.088  17.185 -0.6398  0.0916 -0.2343
 3859TIP3    H233069   1.491   1.016  17.226 -0.2692  0.2167  1.2054
 3860TIP3   OH233070   2.762   2.993   0.556  0.2195 -0.3590  0.2973
 3860TIP3    H133071   2.688   2.996   0.496 -1.5099  0.9520  2.3240
 3860TIP3    H233072   2.818   3.067   0.530  1.1365 -1.6299 -1.5278
 3861TIP3   OH233073   4.736   5.662   2.703 -0.5282 -0.4900 -0.6168
 3861TIP3    H133074   4.765   5.754   2.709  1.8418 -1.2242  0.4973
 3861TIP3    H233075   4.672   5.662   2.633 -0.1105  1.9192 -1.1003
 3862TIP3   OH233076   6.288   3.266  12.630 -0.0807  0.1655 -0.1116
 3862TIP3    H133077   6.269   3.274  12.723  1.9955  1.6183  0.2585
 3862TIP3    H233078   6.383   3.265  12.625 -0.1250  1.3686 -2.2817
 3863TIP3   OH233079   4.832   1.065  17.258  0.0999  0.0395  0.4946
 3863TIP3    H133080   4.858   1.123  17.329 -0.2218  1.2403 -0.3290
 3863TIP3    H233081   4.855   1.113  17.178  1.1162 -1.5800 -0.2350
 3864TIP3   OH233082   5.073   0.222  14.181 -0.3458  0.0499 -0.1132
 3864TIP3    H133083   5.049   0.312  14.157 -1.1122 -0.0117  0.3852
 3864TIP3    H233084   5.152   0.233  14.235 -1.0305  0.5262  0.8287
 3865TIP3   OH233085   6.120   3.608  14.691  0.2787 -0.2344 -0.6012
 3865TIP3    H133086   6.080   3.631  14.774 -0.4581 -0.3262 -0.9275
 3865TIP3    H233087   6.180   3.681  14.673 -1.1448  0.8665 -1.0291
 3866TIP3   OH233088   4.463   4.727   4.184  0.3396  0.5720 -0.4354
 3866TIP3    H133089   4.373   4.737   4.154 -0.0916 -0.4081  0.4917
 3866TIP3    H233090   4.512   4.706   4.104 -0.2217  1.2358 -0.9638
 3867TIP3   OH233091   4.421   1.136  15.357  0.3187  0.3156 -0.1401
 3867TIP3    H133092   4.339   1.132  15.405  0.8622 -0.2898  0.7615
 3867TIP3    H233093   4.474   1.201  15.403  1.0821 -0.7237  0.5071
 3868TIP3   OH233094   3.426   1.333  11.205 -0.9141  0.6073 -0.8000
 3868TIP3    H133095   3.333   1.353  11.214 -1.4764 -2.0580  0.2739
 3868TIP3    H233096   3.428   1.247  11.163  0.9861  0.0976  0.2007
 3869TIP3   OH233097   5.946   4.272   5.422 -0.1666  0.1939  0.2828
 3869TIP3    H133098   5.936   4.206   5.353  0.9101 -0.8580  1.0859
 3869TIP3    H233099   5.858   4.308   5.434 -0.3748  0.4465 -1.6459
 3870TIP3   OH233100   1.301   2.848  11.387 -0.2673 -0.0712  0.4616
 3870TIP3    H133101   1.302   2.943  11.375 -0.5681  0.0757  1.4984
 3870TIP3    H233102   1.283   2.813  11.300  0.5298  0.7851 -0.0748
 3871TIP3   OH233103   4.019   1.929   5.818 -0.3371 -0.0629 -0.1366
 3871TIP3    H133104   4.000   1.981   5.896 -2.5250  0.8074 -1.1685
 3871TIP3    H233105   3.937   1.887   5.796  0.4562 -0.9794 -1.4961
 3872TIP3   OH233106   1.433   5.104   5.423  0.0788 -0.0653  0.3421
 3872TIP3    H133107   1.506   5.110   5.483 -0.2986  1.4276  0.6864
 3872TIP3    H233108   1.405   5.012   5.428 -1.0828  0.3273  3.8272
 3873TIP3   OH233109   4.870   0.508  17.100  0.5406 -0.4950  0.3204
 3873TIP3    H133110   4.903   0.590  17.136 -0.2647 -0.9142  2.1068
 3873TIP3    H233111   4.895   0.510  17.007  0.7648  1.6177  0.3980
 3874TIP3   OH233112   4.906   2.281  15.454 -0.1358  0.3085 -0.3231
 3874TIP3    H133113   4.968   2.299  15.525 -0.5189 -0.3926  0.1989
 3874TIP3    H233114   4.925   2.348  15.388  1.8633 -0.5031 -0.6359
 3875TIP3   OH233115   2.832   1.776  16.605 -0.4811  1.1461  0.3121
 3875TIP3    H133116   2.925   1.771  16.627 -0.5901 -0.4350  0.5226
 3875TIP3    H233117   2.823   1.725  16.525 -1.1791  1.2119  0.3441
 3876TIP3   OH233118   0.555   3.119  11.366  0.6176  0.1875  0.1823
 3876TIP3    H133119   0.497   3.094  11.295 -0.0294  1.0059  0.4009
 3876TIP3    H233120   0.639   3.135  11.324  0.8678 -1.6187 -0.0455
 3877TIP3   OH233121   4.492   3.688   2.374 -0.2373 -0.4163 -0.0215
 3877TIP3    H133122   4.575   3.671   2.418 -0.1362  0.1184  0.0034
 3877TIP3    H233123   4.476   3.610   2.321 -0.1974 -0.9302  0.7094
 3878TIP3   OH233124   2.000   3.746   0.093 -0.2653  0.1454 -0.2504
 3878TIP3    H133125   2.057   3.808   0.046  0.0706 -0.6731 -0.9484
 3878TIP3    H233126   1.995   3.670   0.035  1.0310 -1.3452  1.5061
 3879TIP3   OH233127   3.005   6.141  12.286  0.1550  0.1678  0.3156
 3879TIP3    H133128   3.060   6.118  12.360 -1.1889 -2.2551  0.6717
 3879TIP3    H233129   3.063   6.136  12.210  0.7360 -1.0222  0.8155
 3880TIP3   OH233130   0.808   2.305   3.142 -0.7333  0.3523 -0.5635
 3880TIP3    H133131   0.849   2.362   3.076  0.2181 -0.7152 -0.9203
 3880TIP3    H233132   0.796   2.362   3.217 -0.1917  1.1488 -1.0575
 3881TIP3   OH233133   5.650   1.489  13.114  0.0764 -0.5148  0.0963
 3881TIP3    H133134   5.598   1.409  13.119  0.5315 -1.1009 -2.9388
 3881TIP3    H233135   5.740   1.460  13.130  0.0421 -0.2461  0.8495
 3882TIP3   OH233136   4.062   4.624  14.651  0.3596 -0.1889 -0.8906
 3882TIP3    H133137   4.031   4.669  14.730 -2.7980 -2.1717 -0.8202
 3882TIP3    H233138   4.100   4.543  14.683  0.3698 -0.3553 -1.3200
 3883TIP3   OH233139   0.944   4.001  12.071  0.0546 -0.1018 -0.2497
 3883TIP3    H133140   0.950   4.082  12.121 -1.4501 -1.4565  2.3473
 3883TIP3    H233141   1.022   3.952  12.094  0.0679 -0.1426 -0.3779
 3884TIP3   OH233142   1.682   1.310  15.089  0.5895 -0.4330  0.5519
 3884TIP3    H133143   1.681   1.240  15.024 -1.0793  0.5815 -0.5897
 3884TIP3    H233144   1.592   1.313  15.123  0.8369  0.6182  1.1699
 3885TIP3   OH233145   3.452   1.552   2.412 -0.0135 -0.2063  0.6315
 3885TIP3    H133146   3.507   1.612   2.463  0.8381 -0.1778 -0.2897
 3885TIP3    H233147   3.370   1.599   2.400 -0.2994 -0.2748  2.0875
 3886TIP3   OH233148   6.689   0.046  11.214 -0.9152  0.2707  0.1469
 3886TIP3    H133149   6.609   0.084  11.176 -0.5522 -1.0209 -2.1064
 3886TIP3    H233150   6.658  -0.004  11.290 -2.1038  0.7066 -0.0275
 3887TIP3   OH233151   1.374   6.624  13.661  0.0030 -0.4108 -0.1816
 3887TIP3    H133152   1.339   6.551  13.712  2.1225  0.5364  2.9061
 3887TIP3    H233153   1.446   6.586  13.610  0.4307 -0.6808  0.6155
 3888TIP3   OH233154   5.001   2.815   2.331 -0.2963  0.2428 -0.0811
 3888TIP3    H133155   5.006   2.758   2.254 -0.3523 -0.6536  0.5561
 3888TIP3    H233156   5.044   2.896   2.304  1.2796 -0.6819 -0.5180
 3889TIP3   OH233157   1.534   4.301   0.761 -0.4091 -0.7847  0.4994
 3889TIP3    H133158   1.570   4.362   0.697 -2.8226  1.3689  1.0509
 3889TIP3    H233159   1.527   4.218   0.713 -1.9990  0.7032 -2.0796
 3890TIP3   OH233160   0.575   0.000   6.185  0.2781 -0.1439  0.3631
 3890TIP3    H133161   0.521   0.072   6.219 -0.4047 -1.5409  2.4193
 3890TIP3    H233162   0.657   0.042   6.161 -0.0536  1.3288  1.5925
 3891TIP3   OH233163   1.263   2.498   5.821 -0.4064  0.1506  0.2122
 3891TIP3    H133164   1.339   2.453   5.857 -1.1080 -0.2012  1.2901
 3891TIP3    H233165   1.292   2.587   5.804  0.9132 -0.5629 -1.6187
 3892TIP3   OH233166   0.055   0.191  15.219 -1.0152 -0.2403 -0.4122
 3892TIP3    H133167  -0.016   0.218  15.277 -0.5361  1.1525 -0.4452
 3892TIP3    H233168   0.113   0.139  15.274 -1.7101 -0.8221 -0.2205
 3893TIP3   OH233169   4.316   2.439   1.284  0.3479 -0.3786 -0.2910
 3893TIP3    H133170   4.313   2.363   1.342  1.2167 -0.4340 -0.3057
 3893TIP3    H233171   4.355   2.509   1.338 -0.5973  0.1204 -0.2225
 3894TIP3   OH233172   3.768   0.517   2.631  0.2469 -0.2230  0.0532
 3894TIP3    H133173   3.681   0.534   2.593  0.8576  1.4821 -0.7262
 3894TIP3    H233174   3.795   0.434   2.592 -0.2134  0.2231 -1.2819
 3895TIP3   OH233175   3.111   6.060  16.043 -0.0772 -0.2406 -0.0385
 3895TIP3    H133176   3.178   6.061  16.112  0.4584  1.7857 -0.5304
 3895TIP3    H233177   3.102   5.967  16.020 -0.0112 -0.9483  2.4692
 3896TIP3   OH233178   2.965   4.627   2.450  0.3818 -0.2200 -0.2523
 3896TIP3    H133179   3.022   4.698   2.421  1.0284 -0.6482 -0.0712
 3896TIP3    H233180   2.949   4.574   2.372  0.1936 -0.0681 -0.3149
 3897TIP3   OH233181   0.598   0.368  14.335  0.0043  0.1754 -0.4259
 3897TIP3    H133182   0.508   0.398  14.319 -0.2464  0.2843  1.0656
 3897TIP3    H233183   0.652   0.441  14.303 -0.3389 -0.3884 -2.4696
 3898TIP3   OH233184   6.453   3.679   6.113 -0.0481 -0.0352 -0.3962
 3898TIP3    H133185   6.436   3.685   6.207 -1.0928 -0.9152 -0.5021
 3898TIP3    H233186   6.532   3.730   6.099 -0.1235  0.4657  0.8959
 3899TIP3   OH233187   2.279   1.068   0.573 -0.2165 -0.5870  0.4908
 3899TIP3    H133188   2.351   1.073   0.636  0.0974  0.5002  0.0757
 3899TIP3    H233189   2.316   1.021   0.499  0.2972  0.5456  0.0070
 3900TIP3   OH233190   6.011   1.050  11.661 -0.3432  0.2224  0.0571
 3900TIP3    H133191   6.022   1.143  11.682  0.0447 -0.1246  1.4886
 3900TIP3    H233192   5.953   1.050  11.585 -1.0512  1.6136  0.5498
 3901TIP3   OH233193   1.545   2.237   5.569  0.0621 -0.0401 -0.0023
 3901TIP3    H133194   1.528   2.156   5.618  1.2181 -0.9000 -0.9411
 3901TIP3    H233195   1.632   2.264   5.598 -1.1238  2.0609  1.8260
 3902TIP3   OH233196   2.352   1.888   2.385 -0.0617 -0.8829  0.0813
 3902TIP3    H133197   2.401   1.970   2.381 -1.0834 -0.2245  0.6515
 3902TIP3    H233198   2.266   1.910   2.349 -0.3901 -1.6654  0.3814
 3903TIP3   OH233199   1.328   2.716   3.534 -0.2399 -0.0490  0.3651
 3903TIP3    H133200   1.423   2.726   3.532 -0.0612 -1.0094  1.9263
 3903TIP3    H233201   1.308   2.662   3.458  0.6883 -1.2356  0.9264
 3904TIP3   OH233202   5.891   6.440   0.725 -0.3826  0.5027 -0.0914
 3904TIP3    H133203   5.802   6.443   0.689  0.3342 -0.4898 -2.0532
 3904TIP3    H233204   5.930   6.524   0.701 -0.5063  0.5970  0.0345
 3905TIP3   OH233205   3.410   5.418  11.156 -0.3962 -0.1728 -0.1238
 3905TIP3    H133206   3.442   5.339  11.113  1.1527 -0.2608  1.0915
 3905TIP3    H233207   3.360   5.464  11.089  0.8131 -0.9390 -1.6013
 3906TIP3   OH233208   6.339   2.555  16.511  0.1754  0.3299 -0.1126
 3906TIP3    H133209   6.348   2.644  16.479  1.7205  0.8080  1.4384
 3906TIP3    H233210   6.254   2.553  16.555  0.3153  1.1943  0.2161
 3907TIP3   OH233211   2.174   4.455   4.622 -0.2244 -0.0672  0.1447
 3907TIP3    H133212   2.214   4.445   4.708  0.8582 -0.9682 -0.4455
 3907TIP3    H233213   2.104   4.389   4.621  1.2057 -1.6484 -0.4577
 3908TIP3   OH233214   1.848   3.871  14.733 -0.4778  0.1180 -0.7334
 3908TIP3    H133215   1.756   3.864  14.757 -0.5158  2.4499  0.0268
 3908TIP3    H233216   1.857   3.813  14.657 -2.2823 -0.9848 -0.1795
 3909TIP3   OH233217   5.980   1.194   3.723 -1.0040 -0.1891 -0.1551
 3909TIP3    H133218   5.973   1.278   3.768  1.0566  0.0780 -0.2393
 3909TIP3    H233219   5.890   1.166   3.710 -1.7421  1.9239  0.0414
 3910TIP3   OH233220   6.538   3.687   5.469  0.9648 -0.1527  0.2194
 3910TIP3    H133221   6.514   3.771   5.509  0.1707 -0.6074  0.7283
 3910TIP3    H233222   6.456   3.638   5.465  1.2381 -0.5273 -1.0131
 3911TIP3   OH233223   5.438   2.755   0.314 -0.0243 -0.0038 -0.0502
 3911TIP3    H133224   5.417   2.836   0.361 -1.0463 -0.2100 -0.1347
 3911TIP3    H233225   5.404   2.685   0.370  0.8426 -0.3870  0.0152
 3912TIP3   OH233226   5.013   6.168   2.732 -0.9385 -0.2217  0.3971
 3912TIP3    H133227   4.987   6.123   2.813  2.6049 -1.9887  0.7487
 3912TIP3    H233228   5.062   6.244   2.762 -1.3541  0.2681 -0.1467
 3913TIP3   OH233229   5.108   6.527  17.104 -0.3114 -0.5147  0.1805
 3913TIP3    H133230   5.020   6.526  17.141 -1.1095  0.2723 -1.6104
 3913TIP3    H233231   5.132   6.434  17.097 -0.7387 -0.7206  1.2239
 3914TIP3   OH233232   2.968   6.356   1.409 -0.0864 -0.0049  0.7122
 3914TIP3    H133233   2.996   6.273   1.448 -0.0157  0.6434  2.0750
 3914TIP3    H233234   2.921   6.401   1.479  0.7283  1.5338  0.3116
 3915TIP3   OH233235   0.622   4.528   3.187 -0.5179  0.7373  0.0274
 3915TIP3    H133236   0.698   4.562   3.235  1.7207 -2.2545 -1.0612
 3915TIP3    H233237   0.659   4.494   3.105 -3.2451  0.0184 -1.0091
 3916TIP3   OH233238   3.154   0.921  14.356  0.7597 -0.0909 -0.4431
 3916TIP3    H133239   3.083   0.885  14.303  0.4671 -1.4529  0.7873
 3916TIP3    H233240   3.198   0.983  14.299 -0.4282 -0.4223 -1.7752
 3917TIP3   OH233241   5.303   2.228   4.093 -0.3619 -0.4444 -0.1802
 3917TIP3    H133242   5.259   2.304   4.054 -2.7099 -1.7813 -0.3192
 3917TIP3    H233243   5.295   2.242   4.187  0.5659  0.1922 -0.1853
 3918TIP3   OH233244   5.236   2.138   0.313 -0.3576  0.0743  0.5447
 3918TIP3    H133245   5.211   2.049   0.288  2.6654 -0.7943  0.2181
 3918TIP3    H233246   5.207   2.146   0.404 -0.4399 -1.3450  0.6732
 3919TIP3   OH233247   1.381   0.486   0.596  0.1969 -0.2415 -0.3624
 3919TIP3    H133248   1.331   0.441   0.528 -2.4604  0.6320  0.8800
 3919TIP3    H233249   1.419   0.415   0.649  2.1239 -0.9249 -2.4987
 3920TIP3   OH233250   6.783   1.512   4.886 -0.1774 -0.3815 -0.0692
 3920TIP3    H133251   6.760   1.580   4.823  0.8905 -0.3521 -0.4466
 3920TIP3    H233252   6.738   1.434   4.854  2.2317 -1.0014 -2.3466
 3921TIP3   OH233253   2.527   2.608  12.569 -0.2087 -0.6879  0.0003
 3921TIP3    H133254   2.461   2.660  12.523  1.0345  0.5833 -0.3934
 3921TIP3    H233255   2.540   2.653  12.652 -0.1607 -1.2019  0.2767
 3922TIP3   OH233256   0.697   6.801  10.740  0.6160 -0.0468 -0.2773
 3922TIP3    H133257   0.645   6.839  10.811  0.4549 -1.1639  0.2201
 3922TIP3    H233258   0.639   6.803  10.664 -0.0338 -0.9059  0.1766
 3923TIP3   OH233259   6.777   0.101  13.312 -0.6573  0.0842 -0.0543
 3923TIP3    H133260   6.730   0.168  13.361 -0.6889 -0.5698  0.8275
 3923TIP3    H233261   6.866   0.136  13.303  0.2030 -0.9920  3.0487
 3924TIP3   OH233262   5.317   6.692   3.475  0.0063  0.1086 -0.3796
 3924TIP3    H133263   5.280   6.772   3.512  0.0564 -0.9006  1.9923
 3924TIP3    H233264   5.408   6.691   3.505  0.1214 -0.6511 -0.7260
 3925TIP3   OH233265   0.733   3.894  17.043  0.1797  0.7544 -0.6023
 3925TIP3    H133266   0.721   3.979  17.085  1.5959  0.8276 -0.3104
 3925TIP3    H233267   0.662   3.889  16.979 -2.0636  0.6255  1.7424
 3926TIP3   OH233268   1.615   1.008  15.359 -0.0554  0.1267 -0.1263
 3926TIP3    H133269   1.581   1.096  15.380 -1.1812 -0.1739 -0.6279
 3926TIP3    H233270   1.700   1.025  15.319  0.9066  0.8567  2.0758
 3927TIP3   OH233271   4.159   0.742   0.440 -0.1127  0.7915  0.1697
 3927TIP3    H133272   4.083   0.751   0.497  2.2276  1.6907  3.4646
 3927TIP3    H233273   4.181   0.832   0.415 -0.8780  0.4310 -1.9172
 3928TIP3   OH233274   6.041   2.226  10.645  0.5603  0.6603 -0.6963
 3928TIP3    H133275   6.104   2.292  10.617  2.5749  0.0193  1.9352
 3928TIP3    H233276   5.961   2.275  10.662  1.6096  2.2446 -0.1119
 3929TIP3   OH233277   5.017   6.117  12.454  0.6619  1.1767  0.5131
 3929TIP3    H133278   4.952   6.172  12.497 -0.5177  0.6215 -0.4889
 3929TIP3    H233279   5.054   6.065  12.525 -1.1835  0.3228  0.9256
 3930TIP3   OH233280   3.369   4.738   0.386 -0.1057 -0.1459 -0.7495
 3930TIP3    H133281   3.326   4.786   0.457 -0.9728  0.6209 -1.7673
 3930TIP3    H233282   3.302   4.679   0.352  0.3632 -0.6511 -0.8281
 3931TIP3   OH233283   6.761   0.958   1.213  0.0375 -0.1915  0.0072
 3931TIP3    H133284   6.719   0.898   1.151 -1.0671 -0.8076  1.3149
 3931TIP3    H233285   6.703   1.034   1.215 -1.6939 -1.4200  2.5176
 3932TIP3   OH233286   1.405   3.870  15.072  0.8818  0.5790  0.2742
 3932TIP3    H133287   1.466   3.892  15.001  1.4686  0.4319  0.7262
 3932TIP3    H233288   1.388   3.954  15.115  0.9083  0.5926  0.2587
 3933TIP3   OH233289   3.271   4.733   6.212 -0.1326 -0.5927  0.0860
 3933TIP3    H133290   3.180   4.751   6.236 -1.1186 -1.7722 -2.4155
 3933TIP3    H233291   3.291   4.649   6.252 -0.5551 -0.8716 -0.2786
 3934TIP3   OH233292   3.142   0.179   4.363  0.3273  0.3701 -0.1974
 3934TIP3    H133293   3.196   0.125   4.421  0.7849  0.7101 -0.2986
 3934TIP3    H233294   3.166   0.151   4.275 -0.2606 -0.0430 -0.2344
 3935TIP3   OH233295   5.582   3.360  13.627  0.5423  0.2451  0.0993
 3935TIP3    H133296   5.554   3.273  13.656  0.3551  0.2413 -0.0908
 3935TIP3    H233297   5.522   3.382  13.556  3.0975 -1.2724 -2.7470
 3936TIP3   OH233298   3.888   5.748  15.272 -0.3029  0.0763 -0.3235
 3936TIP3    H133299   3.812   5.748  15.214  1.1252  0.9129 -2.3029
 3936TIP3    H233300   3.961   5.719  15.217  1.4329  2.4602  0.5655
 3937TIP3   OH233301   3.801   6.453   6.067 -0.1348 -0.1080 -0.1669
 3937TIP3    H133302   3.861   6.382   6.089 -0.2815  0.0780  0.8618
 3937TIP3    H233303   3.715   6.423   6.097  0.0366  1.1001  1.6928
 3938TIP3   OH233304   1.915   1.279  14.141 -0.1754  0.3465 -0.0058
 3938TIP3    H133305   1.872   1.235  14.214  0.0388 -0.0036 -0.0885
 3938TIP3    H233306   1.973   1.343  14.183  0.0591  0.0413  0.1350
 3939TIP3   OH233307   0.909   1.970  15.295  0.0449 -0.5042 -0.5307
 3939TIP3    H133308   0.832   1.966  15.237 -0.3788 -0.0477 -0.0139
 3939TIP3    H233309   0.982   1.988  15.236 -0.3571 -0.1869 -0.9417
 3940TIP3   OH233310   4.754   3.884   1.989 -0.1559 -0.5034  0.3873
 3940TIP3    H133311   4.684   3.856   2.047 -0.4052 -3.2959 -1.0849
 3940TIP3    H233312   4.834   3.847   2.027  0.1699  0.4465  0.6591
 3941TIP3   OH233313   4.799   1.464  15.384  0.0023  0.1864 -0.0102
 3941TIP3    H133314   4.799   1.560  15.381 -0.5039  0.1712 -2.7183
 3941TIP3    H233315   4.883   1.439  15.346  0.4786 -0.4772  1.4263
 3942TIP3   OH233316   0.500   3.715  12.726  0.2178  0.1370 -0.0432
 3942TIP3    H133317   0.507   3.622  12.706 -1.9923 -0.2656  0.6865
 3942TIP3    H233318   0.552   3.727  12.805 -1.1300 -0.9718  1.0570
 3943TIP3   OH233319   4.399   4.696  12.678  0.2609 -0.0904 -0.4100
 3943TIP3    H133320   4.378   4.681  12.770  0.2927  1.2769 -0.1557
 3943TIP3    H233321   4.494   4.688  12.673  0.4954  1.9080  0.1318
 3944TIP3   OH233322   0.927   5.129   5.505 -0.7914  0.0273 -0.3031
 3944TIP3    H133323   0.896   5.184   5.577 -1.2774 -0.8593  0.1826
 3944TIP3    H233324   1.011   5.096   5.534 -1.0957 -0.5228 -0.0213
 3945TIP3   OH233325   2.912   2.950   3.479  0.4651 -0.1508 -0.1596
 3945TIP3    H133326   2.968   2.960   3.556 -0.4504  1.0487  0.3804
 3945TIP3    H233327   2.942   2.869   3.438  1.2137 -0.6169  1.2449
 3946TIP3   OH233328   0.528   6.757  10.411  0.0880  0.0309  0.0613
 3946TIP3    H133329   0.593   6.713  10.356  1.3010  0.2001  1.3259
 3946TIP3    H233330   0.444   6.726  10.377  0.8042 -0.2895 -1.5235
 3947TIP3   OH233331   0.486   5.980   2.082  0.0541 -0.5623 -0.1873
 3947TIP3    H133332   0.508   6.035   2.157 -3.4158  0.3073  0.3798
 3947TIP3    H233333   0.456   5.898   2.122 -0.8287 -0.4722 -0.6362
 3948TIP3   OH233334   4.953   3.840   2.207 -0.2330  0.2047 -0.8822
 3948TIP3    H133335   4.957   3.841   2.303 -0.3204  4.7293 -0.6958
 3948TIP3    H233336   5.028   3.787   2.180 -0.8212 -2.0664  1.6036
 3949TIP3   OH233337   3.889   0.790  16.152  0.0307  0.1936 -0.0373
 3949TIP3    H133338   3.864   0.712  16.102 -0.5280 -0.5958  1.4269
 3949TIP3    H233339   3.891   0.761  16.243  0.4423  1.7438  0.4820
 3950TIP3   OH233340   6.124   0.804  16.692 -0.0373  0.0971  0.3734
 3950TIP3    H133341   6.086   0.886  16.662  0.6886  0.3769  0.2145
 3950TIP3    H233342   6.075   0.784  16.772 -1.1572 -0.0385 -0.3216
 3951TIP3   OH233343   1.821   1.221  11.344  0.2778 -0.2153  0.0948
 3951TIP3    H133344   1.837   1.277  11.268  1.0911 -1.1009 -0.3997
 3951TIP3    H233345   1.907   1.188  11.368  0.2908  1.2167  2.3679
 3952TIP3   OH233346   4.723   0.506   5.039 -0.6089  0.5535  0.1781
 3952TIP3    H133347   4.757   0.449   4.970  0.6821  0.1579  1.1041
 3952TIP3    H233348   4.682   0.446   5.101  4.7772 -0.2725  3.6306
 3953TIP3   OH233349   1.260   0.613   2.352  0.3699  0.0930 -0.2340
 3953TIP3    H133350   1.319   0.632   2.425  0.3998  2.8378 -0.8636
 3953TIP3    H233351   1.172   0.616   2.391  0.3955  1.3783 -0.2268
 3954TIP3   OH233352   0.752   5.568  11.355  0.0308 -0.5176  0.2233
 3954TIP3    H133353   0.710   5.511  11.290 -0.0223  0.9700 -1.0956
 3954TIP3    H233354   0.780   5.644  11.305  0.2720  0.5394  1.9149
 3955TIP3   OH233355   2.111   6.652  14.830  0.1079  0.4964 -0.2905
 3955TIP3    H133356   2.159   6.713  14.886 -0.3535  0.8340 -0.2558
 3955TIP3    H233357   2.156   6.657  14.746 -0.7563  1.9531 -0.7054
 3956TIP3   OH233358   1.852   4.435   3.064  0.0940 -0.6542 -0.0581
 3956TIP3    H133359   1.898   4.352   3.080  1.4185  0.3534  1.7189
 3956TIP3    H233360   1.886   4.465   2.980  1.2886 -0.8560  0.3342
 3957TIP3   OH233361   4.038   4.495   3.018 -0.0686  0.2195  0.1696
 3957TIP3    H133362   4.091   4.491   2.938  1.8255  0.7783  1.3043
 3957TIP3    H233363   4.023   4.589   3.031  5.2439  1.0316  3.6911
 3958TIP3   OH233364   6.796   3.784  15.334  0.3123 -0.1634  1.0560
 3958TIP3    H133365   6.852   3.776  15.257  2.0446  0.5690  2.1640
 3958TIP3    H233366   6.782   3.694  15.363  1.2781 -0.3482  0.9787
 3959TIP3   OH233367   5.813   4.436  12.576 -0.1588  0.1053  0.3634
 3959TIP3    H133368   5.808   4.350  12.534  2.1395 -0.6464  1.4218
 3959TIP3    H233369   5.798   4.499  12.505 -1.5935 -1.1335 -0.4913
 3960TIP3   OH233370   6.497   4.346  14.616 -0.0230 -0.3992 -0.0941
 3960TIP3    H133371   6.521   4.281  14.550 -0.9383 -0.9183  0.0649
 3960TIP3    H233372   6.495   4.429  14.568 -1.2562 -0.8507 -0.8856
 3961TIP3   OH233373   1.431   0.887   1.590  0.8999 -0.4867  0.1611
 3961TIP3    H133374   1.512   0.933   1.567  0.1242  1.8992  1.8627
 3961TIP3    H233375   1.443   0.864   1.682 -0.7931  0.9830  0.7879
 3962TIP3   OH233376   0.244   0.358  14.577 -0.2105  0.0001  0.7107
 3962TIP3    H133377   0.156   0.327  14.553 -0.6726  0.7570  1.3491
 3962TIP3    H233378   0.238   0.453  14.569  1.1038 -0.0201 -0.9898
 3963TIP3   OH233379   0.432   3.278  16.938 -0.0295  0.4239  0.2964
 3963TIP3    H133380   0.441   3.358  16.886  0.8237 -0.4836 -1.0037
 3963TIP3    H233381   0.522   3.255  16.964 -0.0124 -1.1332 -0.9804
 3964TIP3   OH233382   3.213   4.823   5.402  0.1573 -0.7720 -0.1477
 3964TIP3    H133383   3.276   4.815   5.330 -0.3148 -0.6173 -0.5799
 3964TIP3    H233384   3.212   4.917   5.423 -0.0259 -0.7552 -0.2298
 3965TIP3   OH233385   6.352   2.452  14.894 -0.8036 -0.4502 -0.0160
 3965TIP3    H133386   6.338   2.468  14.801  2.5682 -0.3774 -0.6605
 3965TIP3    H233387   6.428   2.394  14.897 -1.6553 -1.5732  2.7024
 3966TIP3   OH233388   4.905   2.375   5.777  0.5143 -0.0529 -0.8241
 3966TIP3    H133389   4.865   2.346   5.858  1.6598  0.6443  0.0243
 3966TIP3    H233390   4.950   2.456   5.800  0.3850  0.4732 -2.2943
 3967TIP3   OH233391   0.281   4.098   0.847  0.6435  0.6918  0.0406
 3967TIP3    H133392   0.353   4.043   0.816  1.5657  0.8155  1.8509
 3967TIP3    H233393   0.318   4.186   0.853  0.0663  0.9362  0.0929
 3968TIP3   OH233394   0.812   3.487   0.796  0.3513  0.3354  0.2674
 3968TIP3    H133395   0.718   3.472   0.801  0.2917  0.3934 -0.5879
 3968TIP3    H233396   0.826   3.564   0.852  0.0692 -0.3418  1.3048
 3969TIP3   OH233397   5.475   6.009  11.727  0.0285  0.3519 -0.9117
 3969TIP3    H133398   5.484   6.008  11.632  0.4385  1.7436 -0.9027
 3969TIP3    H233399   5.417   6.083  11.745  2.0550  1.8000  0.0482
 3970TIP3   OH233400   0.965   3.658  15.396  0.1683  0.4497 -0.2993
 3970TIP3    H133401   0.962   3.576  15.445  0.9785  0.9172  0.5556
 3970TIP3    H233402   1.048   3.698  15.420 -0.3885  1.7225 -0.3934
 3971TIP3   OH233403   2.561   3.441   2.830  0.1825 -0.0647 -0.6107
 3971TIP3    H133404   2.472   3.476   2.839  0.2289 -0.0348 -0.2279
 3971TIP3    H233405   2.556   3.381   2.756 -1.1956 -3.2429  1.7990
 3972TIP3   OH233406   6.683   3.430   5.120  0.0243 -0.3065  1.0209
 3972TIP3    H133407   6.693   3.334   5.116 -1.1855 -0.4392  0.9253
 3972TIP3    H233408   6.599   3.447   5.079  0.4523  0.8634  0.5978
 3973TIP3   OH233409   4.259   5.750  16.962  0.5855 -0.1077  0.0130
 3973TIP3    H133410   4.238   5.735  16.870  1.1417 -0.7289 -0.0165
 3973TIP3    H233411   4.318   5.826  16.961  0.0546  0.3114 -0.0785
 3974TIP3   OH233412   6.005   5.072   0.671  0.0914  0.0917  0.7789
 3974TIP3    H133413   5.993   5.032   0.757  0.9270  0.3759  1.0381
 3974TIP3    H233414   5.949   5.150   0.673 -0.7275 -0.4747  0.6541
 3975TIP3   OH233415   3.752   1.209  13.328 -0.3038 -0.3411 -0.4366
 3975TIP3    H133416   3.770   1.163  13.411  1.1646 -0.5561 -0.8534
 3975TIP3    H233417   3.714   1.293  13.355 -1.9546 -1.2824  0.3706
 3976TIP3   OH233418   2.187   2.942   5.368 -0.3956 -0.4279  0.9842
 3976TIP3    H133419   2.223   2.915   5.452 -2.5440 -0.0856  2.0842
 3976TIP3    H233420   2.098   2.972   5.388 -1.7943 -2.3493 -1.7179
 3977TIP3   OH233421   1.428   3.484  11.092 -0.0534 -0.2502 -0.3130
 3977TIP3    H133422   1.493   3.555  11.097  0.0493 -0.1570 -2.1261
 3977TIP3    H233423   1.366   3.514  11.026 -0.4382 -1.5187 -0.5519
 3978TIP3   OH233424   4.716   0.046   1.491  0.0242  0.5360  0.2508
 3978TIP3    H133425   4.762  -0.033   1.519  0.5724  1.2524  1.4524
 3978TIP3    H233426   4.651   0.015   1.429 -0.2557 -0.9556  1.2467
 3979TIP3   OH233427   3.234   2.183  11.019 -0.3236 -0.2707 -0.1292
 3979TIP3    H133428   3.221   2.184  11.114 -1.5938 -0.5961 -0.2813
 3979TIP3    H233429   3.155   2.141  10.985  0.0290  0.0301 -1.3469
 3980TIP3   OH233430   1.197   0.988  12.043  0.2646 -0.3184  0.2071
 3980TIP3    H133431   1.102   0.977  12.045  0.2559 -0.2602  0.0920
 3980TIP3    H233432   1.227   0.946  12.124  0.3989 -2.6872 -0.9958
 3981TIP3   OH233433   3.852   3.077  13.537  0.3282  0.3907 -0.5597
 3981TIP3    H133434   3.837   3.029  13.456 -0.9269  0.4993 -0.4121
 3981TIP3    H233435   3.928   3.034  13.577 -0.3338 -1.0130 -0.7605
 3982TIP3   OH233436   4.898   5.670   4.305  0.5938 -0.3716 -0.0245
 3982TIP3    H133437   4.849   5.661   4.223  1.2597  0.5787 -0.5364
 3982TIP3    H233438   4.869   5.753   4.341  0.8917 -0.4146  0.3142
 3983TIP3   OH233439   3.649   5.633   5.053 -0.1374  0.2276  0.1266
 3983TIP3    H133440   3.662   5.577   5.129 -2.2482 -0.6174 -0.0733
 3983TIP3    H233441   3.629   5.719   5.091  0.2733  0.1660  0.4945
 3984TIP3   OH233442   2.326   3.752  16.525 -0.0314  0.0663  0.2572
 3984TIP3    H133443   2.391   3.732  16.458  0.3250 -0.4066  0.7350
 3984TIP3    H233444   2.312   3.846  16.517  0.9868  0.2450  0.3752
 3985TIP3   OH233445   1.195   4.642   0.256 -0.0323 -0.1494 -0.3679
 3985TIP3    H133446   1.289   4.644   0.237  0.8141  1.7592  3.0802
 3985TIP3    H233447   1.168   4.733   0.251 -1.5931 -0.6051 -0.6824
 3986TIP3   OH233448   5.013   5.853  11.770  0.6194  0.2022  0.2349
 3986TIP3    H133449   4.933   5.830  11.817  1.0635  1.4365  1.6822
 3986TIP3    H233450   5.003   5.946  11.749  1.1038  0.0385 -0.7891
 3987TIP3   OH233451   5.497   2.071  12.720 -0.3628 -0.1585  0.2121
 3987TIP3    H133452   5.444   2.025  12.785 -1.4776 -0.4512 -0.8754
 3987TIP3    H233453   5.539   2.002  12.669 -1.2757  0.0167 -0.8027
 3988TIP3   OH233454   2.828   3.575  11.551 -0.5122  0.0805 -0.1150
 3988TIP3    H133455   2.850   3.643  11.615  1.1209  0.2931 -0.8572
 3988TIP3    H233456   2.762   3.616  11.495 -0.7845  0.4375  0.4507
 3989TIP3   OH233457   4.480   0.174  14.807 -0.6873 -0.0892  0.5036
 3989TIP3    H133458   4.437   0.120  14.873  0.1354 -0.9139  0.3775
 3989TIP3    H233459   4.449   0.139  14.724  0.8279 -1.2310  0.3890
 3990TIP3   OH233460   4.359   2.304  14.515 -0.0586 -0.6472  0.0915
 3990TIP3    H133461   4.390   2.215  14.502  0.7060 -0.3804  0.0595
 3990TIP3    H233462   4.396   2.331  14.599  0.8597  0.1170 -0.5337
 3991TIP3   OH233463   5.508   1.135   5.247 -0.5224  0.1631 -0.0742
 3991TIP3    H133464   5.556   1.179   5.318 -1.2382  0.8454  0.0099
 3991TIP3    H233465   5.541   1.046   5.247  0.3475  0.4727  0.3374
 3992TIP3   OH233466   6.766   5.429  13.110 -0.4516  0.1660 -0.6314
 3992TIP3    H133467   6.760   5.484  13.188 -1.7756  0.1405 -0.6870
 3992TIP3    H233468   6.819   5.480  13.049  0.4686  0.2522  0.2087
 3993TIP3   OH233469   2.151   2.363   6.551 -0.1116 -0.3876  0.0904
 3993TIP3    H133470   2.167   2.455   6.569  0.1548  0.0823 -2.3156
 3993TIP3    H233471   2.095   2.363   6.473 -0.4924 -2.2536  0.3166
 3994TIP3   OH233472   5.300   4.864  11.137  0.2186 -0.5576  0.5610
 3994TIP3    H133473   5.343   4.946  11.161  0.2931 -0.6870  0.8807
 3994TIP3    H233474   5.207   4.881  11.151 -0.2059  0.6624 -2.8169
 3995TIP3   OH233475   0.742   0.110   0.693  0.1604 -0.2818 -0.3339
 3995TIP3    H133476   0.836   0.097   0.707  0.2008  0.7334  0.4765
 3995TIP3    H233477   0.737   0.185   0.634 -0.1510  0.0553  0.1185
 3996TIP3   OH233478   3.468   4.723   0.099 -0.0696 -0.2583  0.7288
 3996TIP3    H133479   3.389   4.698   0.146 -0.5547  1.7677  1.0918
 3996TIP3    H233480   3.539   4.679   0.145 -0.9085 -1.6630  0.7330
 3997TIP3   OH233481   6.491   0.153   4.271 -0.2315  0.0772  0.2221
 3997TIP3    H133482   6.548   0.152   4.193  0.2033  0.0070  0.5348
 3997TIP3    H233483   6.476   0.060   4.290  0.7297  0.0627  0.9801
 3998TIP3   OH233484   1.687   6.734  13.644  0.1425  0.1767 -0.0890
 3998TIP3    H133485   1.695   6.687  13.561 -1.0304  1.2751 -0.8841
 3998TIP3    H233486   1.663   6.823  13.618 -0.2927  0.5379  1.4412
 3999TIP3   OH233487   4.028   6.472   6.610  0.2372 -0.4889 -0.3876
 3999TIP3    H133488   4.097   6.502   6.670 -1.9444  2.2342  0.9694
 3999TIP3    H233489   4.019   6.544   6.547 -1.0088 -1.0281 -0.8450
 4000TIP3   OH233490   2.729   3.463   3.564  0.2729  0.2476 -0.5165
 4000TIP3    H133491   2.681   3.475   3.646 -0.2721 -1.1246 -0.6078
 4000TIP3    H233492   2.799   3.401   3.586  0.8974  0.8509 -0.7972
 4001TIP3   OH233493   5.123   2.355  12.795  0.4092 -0.7095  0.6539
 4001TIP3    H133494   5.146   2.340  12.703 -2.6984  1.4301 -0.6685
 4001TIP3    H233495   5.169   2.436  12.818 -1.0328  0.3870 -0.0974
 4002TIP3   OH233496   2.931   4.907   6.178  0.2116  0.1904 -0.2382
 4002TIP3    H133497   2.991   4.861   6.236 -1.6289  2.0848  3.5271
 4002TIP3    H233498   2.914   4.845   6.107  1.1976 -3.1150  2.1652
 4003TIP3   OH233499   4.867   4.956  14.743  0.2365 -0.4760  0.6102
 4003TIP3    H133500   4.789   4.929  14.792 -0.7338 -0.4445 -0.8620
 4003TIP3    H233501   4.892   5.040  14.783 -1.4850  0.3548  0.0601
 4004TIP3   OH233502   6.643   2.487   4.555 -0.1316 -0.5362  0.4985
 4004TIP3    H133503   6.589   2.549   4.506  1.0376 -0.0215 -0.1678
 4004TIP3    H233504   6.589   2.465   4.632 -2.2512 -1.8264 -1.2419
 4005TIP3   OH233505   2.162   2.499  14.129 -0.0303 -0.3088  0.2007
 4005TIP3    H133506   2.141   2.412  14.096  0.2956 -0.2208 -0.2445
 4005TIP3    H233507   2.216   2.484  14.206 -0.7167 -0.5131  0.6558
 4006TIP3   OH233508   6.130   3.110  16.244  0.4164  0.0553 -0.6090
 4006TIP3    H133509   6.170   3.024  16.233 -1.3389 -1.1380  1.5975
 4006TIP3    H233510   6.204   3.171  16.247  1.6727 -1.2308 -2.8169
 4007TIP3   OH233511   0.004   5.941  14.851  0.7244  0.3456 -0.0418
 4007TIP3    H133512   0.019   6.001  14.778 -1.6285  1.2116  0.1051
 4007TIP3    H233513   0.038   5.986  14.927 -0.0807  1.0725 -0.0951
 4008TIP3   OH233514   3.630   6.718  13.123  0.3160 -0.4911  0.2457
 4008TIP3    H133515   3.535   6.734  13.127  0.3169 -0.2801 -0.4427
 4008TIP3    H233516   3.656   6.752  13.037  1.4625  1.8025  1.4185
 4009TIP3   OH233517   5.598   0.297   3.541  0.4838  0.0525  0.4071
 4009TIP3    H133518   5.630   0.241   3.612  1.8293 -0.9373 -0.9159
 4009TIP3    H233519   5.517   0.254   3.513  1.9752 -1.9060 -1.2151
 4010TIP3   OH233520   5.948   2.700  13.201  0.6597  0.1285  0.3067
 4010TIP3    H133521   5.961   2.747  13.119  1.8892  0.9100  0.9240
 4010TIP3    H233522   6.000   2.620  13.192 -0.2726 -0.4437 -0.1740
 4011TIP3   OH233523   3.593   0.323   0.445 -0.2880 -0.1279 -0.9148
 4011TIP3    H133524   3.571   0.416   0.452  0.6209  0.0383  0.0671
 4011TIP3    H233525   3.517   0.282   0.404 -1.2585  0.8277 -0.0969
 4012TIP3   OH233526   3.025   3.622  13.161 -0.3717 -0.2199 -0.5263
 4012TIP3    H133527   2.986   3.676  13.092 -0.3154 -1.0250 -1.2022
 4012TIP3    H233528   2.952   3.597  13.217 -0.1060  2.6808  1.3782
 4013TIP3   OH233529   0.306   3.121   0.884  0.8270  0.3820 -0.2826
 4013TIP3    H133530   0.362   3.069   0.941 -1.2028 -1.5621  0.0598
 4013TIP3    H233531   0.327   3.092   0.795  1.4376  0.7963 -0.2787
 4014TIP3   OH233532   2.120   4.078   4.798 -0.1247  0.2176 -0.0100
 4014TIP3    H133533   2.062   4.025   4.853 -0.2682 -0.1484 -0.5086
 4014TIP3    H233534   2.195   4.020   4.781 -0.1852  0.2521 -0.3854
 4015TIP3   OH233535   3.203   3.493  12.763  0.3568 -0.1505 -0.0147
 4015TIP3    H133536   3.277   3.439  12.736  2.5292  3.8821 -3.3506
 4015TIP3    H233537   3.241   3.563  12.816 -1.4631  0.7011  0.2833
 4016TIP3   OH233538   6.170   2.948   0.310 -0.3170  0.6942  0.7827
 4016TIP3    H133539   6.091   3.000   0.295 -0.2732  0.8405  1.0625
 4016TIP3    H233540   6.146   2.860   0.280  0.1953  1.2486 -1.4616
 4017TIP3   OH233541   2.993   4.221   2.396  0.2575 -0.0676 -0.4588
 4017TIP3    H133542   2.907   4.214   2.438  0.1168 -2.6219 -0.9766
 4017TIP3    H233543   3.053   4.236   2.469 -0.6212  2.2301 -0.1391
 4018TIP3   OH233544   1.095   1.815   3.494 -0.9817 -0.2194 -0.5021
 4018TIP3    H133545   1.054   1.791   3.577  0.2309 -1.5663 -0.2454
 4018TIP3    H233546   1.085   1.736   3.439  1.1553 -0.5857 -0.4384
 4019TIP3   OH233547   5.466   6.799  15.731 -0.0423 -0.0524  0.1677
 4019TIP3    H133548   5.399   6.823  15.794 -0.0115  0.4844 -0.0025
 4019TIP3    H233549   5.436   6.836  15.648  0.3204 -0.0527  0.0341
 4020TIP3   OH233550   6.726   5.570  13.321 -0.2999 -0.3120 -0.0467
 4020TIP3    H133551   6.761   5.652  13.358  3.5715 -2.3679  1.3964
 4020TIP3    H233552   6.666   5.538  13.389 -1.9555  1.2877 -0.6805
 4021TIP3   OH233553   2.564   2.997   0.373 -0.4371 -0.1442 -0.3236
 4021TIP3    H133554   2.585   3.044   0.292  1.0253 -0.7746 -0.3387
 4021TIP3    H233555   2.470   3.008   0.383 -0.5076  0.6894 -1.6416
 4022TIP3   OH233556   1.640   4.977  17.273  0.7149 -0.0176  0.5824
 4022TIP3    H133557   1.633   5.054  17.217  0.0206  1.0188  2.0429
 4022TIP3    H233558   1.550   4.946  17.284  0.9129 -0.6015  0.6142
 4023TIP3   OH233559   0.055   2.535  12.838 -0.2601 -0.3973  0.3779
 4023TIP3    H133560   0.068   2.548  12.932  2.1823  0.3356 -0.0191
 4023TIP3    H233561   0.140   2.509  12.805 -1.5190 -2.6479 -1.3722
 4024TIP3   OH233562   1.600   5.529  11.876 -0.2330  0.5537  0.5361
 4024TIP3    H133563   1.626   5.443  11.841 -0.9942  0.2578  0.6875
 4024TIP3    H233564   1.510   5.541  11.846 -0.6449  0.6234  1.7507
 4025TIP3   OH233565   1.082   6.728   0.183  0.1404 -0.0704 -0.1359
 4025TIP3    H133566   1.056   6.787   0.113 -2.7375  0.6597  1.3934
 4025TIP3    H233567   1.054   6.772   0.263 -0.2567 -2.5650  1.2051
 4026TIP3   OH233568   4.400   0.687  13.810 -0.4900  0.4783 -0.6633
 4026TIP3    H133569   4.488   0.724  13.797 -0.7019  1.4762  0.5461
 4026TIP3    H233570   4.355   0.705  13.728  0.6363 -0.7189 -1.5930
 4027TIP3   OH233571   0.436   4.029  13.177 -0.3115  0.4411 -0.5627
 4027TIP3    H133572   0.447   3.988  13.263 -0.6107 -0.0519 -0.7597
 4027TIP3    H233573   0.349   4.068  13.180 -0.0975  0.9223 -0.4410
 4028TIP3   OH233574   5.110   2.353  11.638 -0.3390  0.3329 -0.5127
 4028TIP3    H133575   5.101   2.426  11.700  1.8325 -0.2839  0.6013
 4028TIP3    H233576   5.030   2.302  11.649 -2.2884  2.8218 -1.8303
 4029TIP3   OH233577   6.010   4.952  14.750  0.7880 -0.0354  0.4919
 4029TIP3    H133578   5.927   4.924  14.712  1.0625 -3.1917  1.8949
 4029TIP3    H233579   5.986   5.022  14.811 -0.6312 -0.0950  0.0402
 4030TIP3   OH233580   0.955   3.241   0.762 -0.0856  0.4369  0.3813
 4030TIP3    H133581   1.035   3.293   0.772 -0.5998  1.3579 -0.0839
 4030TIP3    H233582   0.889   3.305   0.738 -0.7330 -0.4609 -0.2803
 4031TIP3   OH233583   1.313   1.991  14.423  0.7330  0.0468 -0.4933
 4031TIP3    H133584   1.323   1.981  14.328  0.6189  0.5584 -0.5654
 4031TIP3    H233585   1.386   1.941  14.460  0.8405 -0.0681 -0.8563
 4032TIP3   OH233586   3.333   0.351   3.071 -0.1365 -0.5655  0.2735
 4032TIP3    H133587   3.393   0.362   3.145  0.7449 -0.1683 -0.4744
 4032TIP3    H233588   3.369   0.407   3.002 -2.6419  1.5217  0.5003
 4033TIP3   OH233589   1.972   3.423   4.231  0.4831 -0.1951 -0.1690
 4033TIP3    H133590   1.893   3.474   4.250  1.3695  1.5058 -0.8071
 4033TIP3    H233591   1.976   3.420   4.135  1.3610  0.0486 -0.1496
 4034TIP3   OH233592   0.191   0.427  12.354  0.0402  0.4275 -0.0629
 4034TIP3    H133593   0.264   0.487  12.367  0.2614  0.0288  0.6017
 4034TIP3    H233594   0.210   0.382  12.272  1.1124 -0.4604  0.6395
 4035TIP3   OH233595   6.035   5.581  13.606  0.2280 -0.3981 -0.2939
 4035TIP3    H133596   5.950   5.567  13.648 -0.5021  1.4980 -1.0130
 4035TIP3    H233597   6.098   5.581  13.678 -0.2765 -2.3533  0.2014
 4036TIP3   OH233598   6.513   5.578  14.601 -0.4235 -0.6303 -0.7004
 4036TIP3    H133599   6.502   5.649  14.664  2.8054  0.1931 -0.8604
 4036TIP3    H233600   6.455   5.508  14.633 -0.0801  0.3067  2.3142
 4037TIP3   OH233601   5.292   5.390   6.185  0.5581  0.1354 -0.1779
 4037TIP3    H133602   5.250   5.314   6.226  0.4710  0.3052  0.0461
 4037TIP3    H233603   5.312   5.361   6.096 -2.5866  0.9264 -1.2549
 4038TIP3   OH233604   0.717   0.744  16.480  0.3634  0.6414 -0.5772
 4038TIP3    H133605   0.674   0.829  16.482  0.8458  0.8973 -0.9641
 4038TIP3    H233606   0.809   0.764  16.463  0.0647 -0.0858 -3.6624
 4039TIP3   OH233607   6.684   0.899  11.433  0.5637 -0.0236 -0.6998
 4039TIP3    H133608   6.680   0.888  11.338 -2.3169 -0.2774 -0.6411
 4039TIP3    H233609   6.672   0.810  11.468  1.2519  0.1152 -0.0915
 4040TIP3   OH233610   2.576   2.855  11.066  0.1707  0.2851 -0.5036
 4040TIP3    H133611   2.642   2.808  11.015  0.6566 -0.5361  0.8227
 4040TIP3    H233612   2.506   2.791  11.079 -0.4024  0.8069 -0.9745
 4041TIP3   OH233613   4.080   2.504   1.934  0.5126  0.1934 -0.2427
 4041TIP3    H133614   4.162   2.546   1.909 -0.7491  2.6194 -0.5589
 4041TIP3    H233615   4.107   2.419   1.969  3.3551  1.5971  1.3975
 4042TIP3   OH233616   1.853   4.467   6.175 -0.1997  0.3815 -0.1229
 4042TIP3    H133617   1.842   4.439   6.266  1.4421  0.5827  0.1712
 4042TIP3    H233618   1.875   4.560   6.181  1.8863 -0.0434 -0.5608
 4043TIP3   OH233619   3.969   5.645  17.296 -0.3074  0.0127 -0.4645
 4043TIP3    H133620   3.916   5.646  17.216 -0.3806  1.1827 -0.4252
 4043TIP3    H233621   3.908   5.621  17.365 -0.9285  1.7335 -0.3581
 4044TIP3   OH233622   3.532   4.384   1.516  0.3704 -0.0525  0.5651
 4044TIP3    H133623   3.619   4.348   1.536 -0.0362 -0.6195  1.3394
 4044TIP3    H233624   3.484   4.312   1.477 -0.0326  0.0189  0.9291
 4045TIP3   OH233625   5.501   5.409  10.546  0.4719 -0.1348 -0.2360
 4045TIP3    H133626   5.460   5.434  10.464 -0.3623  0.7998  0.4469
 4045TIP3    H233627   5.546   5.327  10.526 -1.1721 -0.8570 -1.1943
 4046TIP3   OH233628   2.808   3.455   1.518  0.3625 -0.7289  0.3560
 4046TIP3    H133629   2.842   3.392   1.454 -3.0851 -0.7277 -1.7227
 4046TIP3    H233630   2.821   3.541   1.477 -0.3831 -0.5926  0.3933
 4047TIP3   OH233631   0.129   0.490   5.624 -0.1008 -0.5621  0.6701
 4047TIP3    H133632   0.072   0.425   5.584  0.1225 -0.4241  0.1102
 4047TIP3    H233633   0.074   0.533   5.690 -0.8111 -0.0988 -0.1876
 4048TIP3   OH233634   2.533   0.987  17.134 -0.4190  0.1051  0.0532
 4048TIP3    H133635   2.621   0.950  17.126  0.4228  1.7712  0.9334
 4048TIP3    H233636   2.531   1.058  17.069 -1.3518 -0.2939 -0.3777
 4049TIP3   OH233637   5.409   0.797  17.324  0.4655  0.1326 -0.0602
 4049TIP3    H133638   5.496   0.761  17.307  0.3080  0.2521 -1.1535
 4049TIP3    H233639   5.352   0.758  17.258  0.6416  3.7190 -2.6387
 4050TIP3   OH233640   1.870   3.167   3.112 -0.3223 -0.6062 -0.3075
 4050TIP3    H133641   1.877   3.231   3.182  0.4468 -1.8938  0.8429
 4050TIP3    H233642   1.775   3.159   3.096 -0.4540  0.3008  0.0021
 4051TIP3   OH233643   5.527   1.031  17.201 -0.5621 -0.1848  0.4080
 4051TIP3    H133644   5.552   0.982  17.124 -0.1271  0.0854  0.3763
 4051TIP3    H233645   5.487   0.966  17.259 -1.8141 -0.2181 -0.4449
 4052TIP3   OH233646   0.653   4.579  16.041  0.2747 -0.4083 -0.5057
 4052TIP3    H133647   0.558   4.569  16.033 -0.0594  0.8759  1.1622
 4052TIP3    H233648   0.664   4.650  16.104  2.3386 -1.7382  0.7472
 4053TIP3   OH233649   1.317   1.891   0.132 -0.2180  0.4376 -0.5792
 4053TIP3    H133650   1.309   1.928   0.219 -0.7953  0.7286 -0.7485
 4053TIP3    H233651   1.404   1.917   0.102 -0.0927  0.4911 -0.1644
 4054TIP3   OH233652   5.676   0.494   4.126 -0.4176 -0.7880 -0.5127
 4054TIP3    H133653   5.724   0.492   4.043  0.0951 -0.6398 -0.2239
 4054TIP3    H233654   5.635   0.581   4.128 -2.4886 -1.6683 -1.7434
 4055TIP3   OH233655   3.394   1.379  14.081  0.0174 -0.2937  0.5889
 4055TIP3    H133656   3.338   1.316  14.036 -1.4704  1.4703 -0.1675
 4055TIP3    H233657   3.482   1.358  14.051 -0.6098 -1.0182 -0.8805
 4056TIP3   OH233658   4.813   5.919   4.388  0.2666  0.3305 -0.2738
 4056TIP3    H133659   4.854   5.989   4.338  0.9944 -0.0781 -0.2532
 4056TIP3    H233660   4.749   5.964   4.444 -0.5075  0.8036 -1.4878
 4057TIP3   OH233661   6.139   3.809  16.169 -0.6967 -0.1196 -0.0762
 4057TIP3    H133662   6.137   3.904  16.156  0.3020  0.2878  2.2104
 4057TIP3    H233663   6.052   3.787  16.199 -0.4612  0.4072  1.0676
 4058TIP3   OH233664   2.413   4.160   2.574  0.4150  0.2602  0.0613
 4058TIP3    H133665   2.488   4.102   2.560  0.7800  0.4732  1.0007
 4058TIP3    H233666   2.441   4.217   2.646 -0.6921  0.2697  0.4976
 4059TIP3   OH233667   2.298   2.801  16.502  0.3441  0.5779  0.0990
 4059TIP3    H133668   2.236   2.768  16.437  1.1214 -0.3008 -0.2316
 4059TIP3    H233669   2.278   2.753  16.582  0.0789  0.8851  0.2188
 4060TIP3   OH233670   1.262   1.154   0.045  0.2121 -0.4874  0.1745
 4060TIP3    H133671   1.312   1.072   0.053 -1.0986 -1.2587  0.8298
 4060TIP3    H233672   1.176   1.133   0.081  0.0430  1.3885  0.9815
 4061TIP3   OH233673   0.693   2.298  14.849  0.7223  0.2208 -0.4795
 4061TIP3    H133674   0.719   2.388  14.830  1.6760  0.0307 -0.1253
 4061TIP3    H233675   0.775   2.248  14.850  0.2742 -0.5424 -0.0842
 4062TIP3   OH233676   4.097   5.613   3.566 -0.5006 -0.4265  0.2575
 4062TIP3    H133677   4.085   5.518   3.576 -1.5626 -0.3269 -0.0010
 4062TIP3    H233678   4.125   5.642   3.653 -2.1948 -0.6850  0.9264
 4063TIP3   OH233679   0.793   0.764   5.057 -0.8095  0.1319  0.2453
 4063TIP3    H133680   0.773   0.673   5.036 -2.3199  0.5337 -0.2032
 4063TIP3    H233681   0.848   0.759   5.135 -0.2329 -1.1721 -0.2022
 4064TIP3   OH233682   5.076   6.663  15.891 -0.1133 -0.3628 -0.0480
 4064TIP3    H133683   5.041   6.629  15.974  2.3118 -1.4680  0.6256
 4064TIP3    H233684   5.162   6.621  15.883 -0.3461 -0.4541 -3.2545
 4065TIP3   OH233685   4.564   0.729   3.852  0.2989  0.0870 -0.5973
 4065TIP3    H133686   4.554   0.823   3.870  1.9937  0.0746  0.6957
 4065TIP3    H233687   4.498   0.687   3.906 -0.6282  0.5277 -1.3641
 4066TIP3   OH233688   3.671   3.593   3.779  0.0243  0.2981 -0.4311
 4066TIP3    H133689   3.708   3.548   3.855 -1.4896 -0.7499 -0.2714
 4066TIP3    H233690   3.636   3.674   3.815  0.9496  0.6748 -0.3520
 4067TIP3   OH233691   6.112   5.137   0.399 -0.1279  0.0294  0.2271
 4067TIP3    H133692   6.128   5.220   0.354  1.8863 -1.4223 -2.0415
 4067TIP3    H233693   6.136   5.154   0.490  2.0035  1.5409 -0.5179
 4068TIP3   OH233694   6.614   5.130  17.042 -0.0312 -0.2110 -0.4787
 4068TIP3    H133695   6.656   5.063  16.988 -1.0743 -1.4240  0.1633
 4068TIP3    H233696   6.581   5.194  16.979 -0.9908 -1.4576 -1.2912
 4069TIP3   OH233697   4.662   3.185  15.553  0.5533  0.6103 -0.1026
 4069TIP3    H133698   4.584   3.229  15.586 -0.7681 -1.5835 -0.0900
 4069TIP3    H233699   4.717   3.172  15.631 -0.7223 -0.9692  0.5839
 4070TIP3   OH233700   1.587   3.716  11.010 -0.5059  0.2193 -0.6516
 4070TIP3    H133701   1.669   3.696  10.966 -1.3328  0.3774 -2.3764
 4070TIP3    H233702   1.548   3.785  10.956 -1.6068  0.3903  0.3289
 4071TIP3   OH233703   1.595   2.134   5.988 -0.5836  0.3922 -0.1017
 4071TIP3    H133704   1.687   2.110   5.976  0.2123  2.9296  0.2929
 4071TIP3    H233705   1.557   2.060   6.034  1.4230 -0.4643  0.2962
 4072TIP3   OH233706   4.869   6.444  16.822 -0.1318 -0.7877  0.5839
 4072TIP3    H133707   4.776   6.428  16.806 -0.6888  1.4337  1.2572
 4072TIP3    H233708   4.871   6.503  16.897  1.7746 -0.0241 -0.0004
 4073TIP3   OH233709   1.443   1.518  15.442  0.3307 -0.4691  0.0307
 4073TIP3    H133710   1.483   1.534  15.528  2.4125 -1.1060 -0.7607
 4073TIP3    H233711   1.480   1.585  15.385 -1.1039  0.0011 -0.3737
 4074TIP3   OH233712   0.949   1.696   0.145  0.5106 -0.0650  0.5697
 4074TIP3    H133713   0.930   1.781   0.104  1.3180 -0.1699 -0.0491
 4074TIP3    H233714   1.003   1.650   0.081 -1.8309 -2.0308 -0.1546
 4075TIP3   OH233715   2.121   3.651   4.783 -0.3903  0.4868 -0.1231
 4075TIP3    H133716   2.161   3.731   4.815  0.0633 -0.0389  0.6592
 4075TIP3    H233717   2.057   3.627   4.851 -1.0166  0.5581 -0.6806
 4076TIP3   OH233718   0.861   4.255  12.399  0.6432 -0.1362 -0.1902
 4076TIP3    H133719   0.917   4.268  12.323 -1.2501 -0.4092 -1.7148
 4076TIP3    H233720   0.814   4.174  12.382 -0.6531  0.3746  0.7086
 4077TIP3   OH233721   3.403   4.742   1.230 -0.0318 -0.9334  0.3827
 4077TIP3    H133722   3.472   4.762   1.294 -1.1385  1.5217  0.9076
 4077TIP3    H233723   3.356   4.668   1.269 -0.8555  0.6782  2.6685
 4078TIP3   OH233724   2.934   1.327   4.357 -0.6446  0.4916  0.2050
 4078TIP3    H133725   2.891   1.383   4.423 -0.3776 -0.4229  1.1748
 4078TIP3    H233726   2.864   1.306   4.295 -1.3219 -0.0176  1.1242
 4079TIP3   OH233727   5.726   3.257   5.538  0.1227  0.2104 -0.0004
 4079TIP3    H133728   5.672   3.244   5.615  0.9995  0.6983  0.7150
 4079TIP3    H233729   5.790   3.186   5.540 -0.0639  0.0198 -0.4814
 4080TIP3   OH233730   4.608   6.746   3.535 -0.8438  0.0433 -0.0711
 4080TIP3    H133731   4.612   6.840   3.516  1.6310 -0.0571 -0.4773
 4080TIP3    H233732   4.544   6.737   3.606 -0.8984  2.0708  0.1749
 4081TIP3   OH233733   6.443   1.859  13.006 -0.4012 -0.1041  0.2989
 4081TIP3    H133734   6.433   1.905  12.923 -0.2674  0.6705  0.6985
 4081TIP3    H233735   6.391   1.910  13.068 -0.3375 -0.5539  0.7293
 4082TIP3   OH233736   0.268   5.794  11.898  0.0823 -0.1820  0.2397
 4082TIP3    H133737   0.187   5.834  11.930 -0.5007 -0.3717 -0.9361
 4082TIP3    H233738   0.327   5.867  11.883 -0.9236  0.2785 -1.7587
 4083TIP3   OH233739   2.805   1.968  14.982 -0.2924 -0.1739  0.4240
 4083TIP3    H133740   2.871   2.033  14.958 -0.4637 -0.2859 -0.3780
 4083TIP3    H233741   2.829   1.941  15.070  0.3847  0.2265  0.3667
 4084TIP3   OH233742   2.228   4.183  11.894  0.2320 -0.2733  0.8316
 4084TIP3    H133743   2.294   4.178  11.963  1.8648  0.7140 -0.5800
 4084TIP3    H233744   2.251   4.262  11.845 -2.1399  0.1959  0.3958
 4085TIP3   OH233745   3.453   3.469   5.987  0.5689 -0.0134 -0.2865
 4085TIP3    H133746   3.524   3.437   5.931  1.9263  1.1611  0.6939
 4085TIP3    H233747   3.497   3.518   6.056 -1.1490 -0.1922  1.0032
 4086TIP3   OH233748   3.692   4.711  14.157 -0.4723 -0.0577  0.1003
 4086TIP3    H133749   3.719   4.621  14.140 -0.1549  0.0871 -0.1599
 4086TIP3    H233750   3.773   4.759  14.172 -0.6647  0.1015  0.6637
 4087TIP3   OH233751   1.601   0.132  11.420 -0.2344 -0.0965 -0.3758
 4087TIP3    H133752   1.539   0.128  11.493 -0.6141 -1.3448 -0.7263
 4087TIP3    H233753   1.546   0.144  11.342  0.1249  0.7216 -0.5115
 4088TIP3   OH233754   0.016   6.693  15.283 -0.1789  0.0321  0.3910
 4088TIP3    H133755  -0.062   6.742  15.258 -0.6011 -1.9184 -2.5308
 4088TIP3    H233756   0.074   6.698  15.207  0.3305 -2.7767  0.4710
 4089TIP3   OH233757   2.680   4.462   3.843  0.1487  0.2027 -0.9007
 4089TIP3    H133758   2.627   4.541   3.832  0.5376  0.5283 -0.4742
 4089TIP3    H233759   2.757   4.491   3.892  0.2318 -0.4682 -0.6182
 4090TIP3   OH233760   5.040   2.784   4.486  0.2055 -0.2496  0.3525
 4090TIP3    H133761   5.084   2.807   4.404 -1.4151 -2.4765 -1.2694
 4090TIP3    H233762   5.000   2.866   4.516  0.5106  0.5543 -1.3114
 4091TIP3   OH233763   2.715   2.300   5.635  0.4930 -0.2401  0.3789
 4091TIP3    H133764   2.677   2.348   5.562  3.2222  0.6310 -0.6196
 4091TIP3    H233765   2.704   2.208   5.613 -3.0871 -0.1892  1.3716
 4092TIP3   OH233766   1.382   5.749  14.545  0.1718 -0.1882  0.3918
 4092TIP3    H133767   1.310   5.696  14.580 -0.9794 -0.0227 -1.5601
 4092TIP3    H233768   1.347   5.785  14.464  2.4471 -0.0120 -0.5791
 4093TIP3   OH233769   5.240   2.486  14.340  0.0966  0.1675  1.0979
 4093TIP3    H133770   5.158   2.498  14.389 -1.5241  0.1002 -1.4440
 4093TIP3    H233771   5.236   2.395  14.310  0.2147  0.6760 -0.5253
 4094TIP3   OH233772   6.510   1.361   4.125 -0.1194 -0.9021 -0.0658
 4094TIP3    H133773   6.424   1.337   4.090 -0.3298 -0.3987  0.1080
 4094TIP3    H233774   6.538   1.283   4.173  0.5463 -1.9335 -2.0253
 4095TIP3   OH233775   5.417   4.620   0.928  0.0592 -0.5795 -0.2460
 4095TIP3    H133776   5.439   4.535   0.967  1.0793 -0.1589  0.1343
 4095TIP3    H233777   5.454   4.616   0.839 -0.3664 -0.7328 -0.4167
 4096TIP3   OH233778   1.714   0.562  14.322 -0.1347 -0.4180  0.1348
 4096TIP3    H133779   1.781   0.601  14.264 -0.5540  0.3008  0.1216
 4096TIP3    H233780   1.711   0.621  14.397 -1.6774  0.3054 -0.4542
 4097TIP3   OH233781   1.521   2.564   4.287 -0.0019  0.2881 -0.5637
 4097TIP3    H133782   1.600   2.550   4.235 -0.0894  0.9477 -0.8868
 4097TIP3    H233783   1.482   2.644   4.250 -0.0574  0.7792  0.5227
 4098TIP3   OH233784   4.880   0.724  14.890 -0.0838  0.6570  0.3002
 4098TIP3    H133785   4.942   0.666  14.845 -0.5749  0.5332 -0.2318
 4098TIP3    H233786   4.903   0.717  14.983  1.1326  1.1382  0.0529
 4099TIP3   OH233787   1.093   0.184   4.901  0.2675  0.1688 -0.5523
 4099TIP3    H133788   1.058   0.188   4.990 -0.8565 -0.2797 -0.9545
 4099TIP3    H233789   1.167   0.123   4.906 -0.6014 -0.8688 -0.1756
 4100TIP3   OH233790   3.971   0.317  12.701 -0.4206 -0.1692  0.0745
 4100TIP3    H133791   3.885   0.353  12.679  0.3054  0.7878 -1.3362
 4100TIP3    H233792   3.969   0.227  12.668 -0.6884  0.0216 -0.4272
 4101TIP3   OH233793   3.777   1.045   2.776  0.4312  0.7843 -0.1746
 4101TIP3    H133794   3.863   1.020   2.810  0.3532  0.5919 -0.1207
 4101TIP3    H233795   3.792   1.129   2.732  0.9189  0.1157 -1.3223
 4102TIP3   OH233796   1.349   3.725  15.643  0.0113  0.0977  0.3404
 4102TIP3    H133797   1.378   3.810  15.609  0.0059  0.0162  0.1309
 4102TIP3    H233798   1.428   3.671  15.641 -0.2423 -0.2662 -0.6715
 4103TIP3   OH233799   5.455   3.059  12.076  0.8100  0.1798 -0.5325
 4103TIP3    H133800   5.418   3.142  12.106  1.9197 -0.0282  1.5528
 4103TIP3    H233801   5.379   3.003  12.058  0.0895  0.9802 -0.0362
 4104TIP3   OH233802   1.148   1.391   6.062 -0.8062 -0.7207  0.4064
 4104TIP3    H133803   1.077   1.400   5.998 -1.1837 -1.5055  0.7063
 4104TIP3    H233804   1.108   1.346   6.136 -0.4643  0.5034  1.3720
 4105TIP3   OH233805   0.030   0.803   0.468  0.0059  0.0687 -0.3045
 4105TIP3    H133806   0.013   0.721   0.513  0.1045  0.5477  0.6324
 4105TIP3    H233807  -0.032   0.865   0.508  0.5088  0.6441 -0.4051
 4106TIP3   OH233808   2.336   2.249  16.041  0.2041  0.4129  0.9495
 4106TIP3    H133809   2.338   2.319  16.107  0.6602 -0.5053  1.9381
 4106TIP3    H233810   2.295   2.290  15.964  0.5491  1.7907  1.4616
 4107TIP3   OH233811   1.768   4.438   4.057  0.2312  0.5676 -0.3419
 4107TIP3    H133812   1.856   4.452   4.093 -0.2002 -0.1494  1.1043
 4107TIP3    H233813   1.718   4.403   4.131 -0.6987 -1.1492 -1.7122
 4108TIP3   OH233814   1.114   1.390  12.813 -0.2668  0.4498 -0.2094
 4108TIP3    H133815   1.201   1.420  12.785 -0.5844  1.5793 -0.0442
 4108TIP3    H233816   1.129   1.348  12.898  0.2245 -0.0873 -0.5531
 4109TIP3   OH233817   4.634   1.978   4.225  0.1416  0.0375  0.3048
 4109TIP3    H133818   4.581   2.003   4.300  1.1210  1.2526  0.6246
 4109TIP3    H233819   4.685   1.903   4.256 -1.2054 -1.0088  0.0564
 4110TIP3   OH233820   0.943   0.568  15.387 -0.6456 -0.4324 -0.0958
 4110TIP3    H133821   0.943   0.482  15.428 -0.4470 -0.2189  0.3571
 4110TIP3    H233822   0.962   0.551  15.294 -0.6270 -0.8735 -0.0105
 4111TIP3   OH233823   2.338   4.698  17.005  0.2202  0.4391 -0.1436
 4111TIP3    H133824   2.378   4.781  16.981  0.9760  0.5215  1.2788
 4111TIP3    H233825   2.398   4.631  16.972  0.9762  0.5400  0.9622
 4112TIP3   OH233826   6.585   3.980  15.206  0.1991 -0.1749  0.5139
 4112TIP3    H133827   6.667   4.012  15.243  0.7855 -0.9570 -0.0602
 4112TIP3    H233828   6.564   3.902  15.258  0.1735 -0.3493  0.2443
 4113TIP3   OH233829   5.692   4.830  15.601  0.2208 -0.2672  0.2606
 4113TIP3    H133830   5.663   4.757  15.655  2.3682 -0.3465  1.4032
 4113TIP3    H233831   5.671   4.803  15.511 -0.4693 -1.5693  0.7874
 4114TIP3   OH233832   0.437   5.917  13.644 -0.6544  0.2607  0.1344
 4114TIP3    H133833   0.511   5.872  13.685  0.0967  1.3365  0.0005
 4114TIP3    H233834   0.422   5.870  13.562  0.1635  0.2922 -0.0408
 4115TIP3   OH233835   3.868   0.211   1.968  0.2183 -0.4088  0.3224
 4115TIP3    H133836   3.874   0.154   1.891  1.9815  0.7275 -0.4403
 4115TIP3    H233837   3.910   0.161   2.038 -1.6276 -1.5586  0.6978
 4116TIP3   OH233838   5.157   2.027   5.305  0.1914 -0.2579  0.3652
 4116TIP3    H133839   5.211   2.081   5.247  0.2261 -0.8553 -0.1706
 4116TIP3    H233840   5.212   1.951   5.325 -0.1801 -0.5173  0.4105
 4117TIP3   OH233841   5.342   2.489  14.836  0.0711  0.0201 -0.6236
 4117TIP3    H133842   5.387   2.546  14.898  0.0299 -2.1671  1.5885
 4117TIP3    H233843   5.385   2.505  14.752  0.7070  2.4906  0.0853
 4118TIP3   OH233844   6.175   0.146  15.279 -0.0062 -0.4322 -0.9881
 4118TIP3    H133845   6.204   0.236  15.269  1.8160 -1.0900 -2.1316
 4118TIP3    H233846   6.224   0.113  15.354 -2.0850  0.0034  0.6665
 4119TIP3   OH233847   1.593   6.307  13.257 -0.5615  0.3086  0.3772
 4119TIP3    H133848   1.545   6.294  13.176  0.7156 -0.1060 -0.3378
 4119TIP3    H233849   1.676   6.261  13.244  0.0422  1.0010  1.5658
 4120TIP3   OH233850   5.077   1.236  14.428  0.3538  0.1807  0.6242
 4120TIP3    H133851   5.157   1.195  14.395  1.4697  1.5493  1.5226
 4120TIP3    H233852   5.011   1.166  14.425  1.5469 -0.9499 -0.2278
 4121TIP3   OH233853   5.357   1.328  11.374  0.0899 -0.3131  0.2625
 4121TIP3    H133854   5.332   1.284  11.292 -0.3143  1.4533 -0.6148
 4121TIP3    H233855   5.289   1.394  11.387  2.0372  1.8105  0.1014
 4122TIP3   OH233856   0.880   4.082   0.045  0.4404 -0.2156  0.2930
 4122TIP3    H133857   0.914   4.158  -0.003  0.4166 -0.7598 -0.6153
 4122TIP3    H233858   0.921   4.088   0.131 -0.8313  1.7554  0.8488
 4123TIP3   OH233859   3.490   6.673  12.665  0.0449  0.2643  1.1454
 4123TIP3    H133860   3.523   6.586  12.643 -0.0650 -0.1064  2.3540
 4123TIP3    H233861   3.395   6.664  12.658  0.0688  0.5898  0.2633
 4124TIP3   OH233862   1.575   5.203  14.540  0.1731  0.4460 -0.0240
 4124TIP3    H133863   1.648   5.198  14.479  0.0937 -0.1194 -0.0786
 4124TIP3    H233864   1.614   5.233  14.622  0.7337 -1.1991  0.3499
 4125TIP3   OH233865   3.761   4.891   0.787  0.0348 -0.0192  0.4983
 4125TIP3    H133866   3.668   4.868   0.797 -0.8754  1.7890 -2.3926
 4125TIP3    H233867   3.797   4.822   0.732  0.5727 -0.9950  2.0462
 4126TIP3   OH233868   5.327   3.424  13.550  0.2673 -0.2675 -0.1885
 4126TIP3    H133869   5.244   3.397  13.590 -0.9724  0.6408 -1.9404
 4126TIP3    H233870   5.305   3.435  13.457  1.6138  2.7049 -0.2811
 4127TIP3   OH233871   3.887   4.252  13.916  0.4143 -0.3340  0.0032
 4127TIP3    H133872   3.969   4.204  13.900 -0.0375 -1.6392  1.3081
 4127TIP3    H233873   3.863   4.288  13.831  1.1659 -1.8709 -0.9098
 4128TIP3   OH233874   4.306   0.733   2.656  0.3443  0.8117 -0.0276
 4128TIP3    H133875   4.273   0.716   2.744  0.7961 -0.8888 -0.1313
 4128TIP3    H233876   4.398   0.754   2.668  1.2559 -2.5205 -0.2053
 4129TIP3   OH233877   0.351   5.569  11.749 -0.1191  0.3816 -0.2610
 4129TIP3    H133878   0.340   5.610  11.834  1.3592  0.1647  0.0585
 4129TIP3    H233879   0.445   5.569  11.734 -0.3449  0.3642 -1.8730
 4130TIP3   OH233880   4.578   5.949  10.691  0.0548  0.3550 -0.2056
 4130TIP3    H133881   4.493   5.951  10.737  0.1556 -0.1338  0.0111
 4130TIP3    H233882   4.556   5.930  10.600 -0.1394  1.2108 -0.3441
 4131TIP3   OH233883   6.033   4.532  15.100  0.1288 -0.5213  0.4102
 4131TIP3    H133884   6.088   4.574  15.167 -0.6280 -1.8797  1.9457
 4131TIP3    H233885   6.095   4.509  15.030  0.7337  2.0743 -0.0108
 4132TIP3   OH233886   2.411   0.271   1.662 -0.1520 -0.4270 -0.3098
 4132TIP3    H133887   2.345   0.308   1.721  1.4420  1.4578  0.3984
 4132TIP3    H233888   2.366   0.262   1.578 -1.1128  1.6331 -0.0737
 4133TIP3   OH233889   0.359   1.040   0.432 -0.6374 -0.1126 -0.3376
 4133TIP3    H133890   0.306   1.117   0.454 -0.2263  0.1378 -0.2238
 4133TIP3    H233891   0.399   1.014   0.514  2.6952  2.1638 -1.0516
 4134TIP3   OH233892   3.025   5.127   0.965  0.1365 -0.5222  0.3311
 4134TIP3    H133893   2.949   5.089   1.009  0.4797 -0.5534  0.9097
 4134TIP3    H233894   3.089   5.139   1.035  0.0039  1.2256  0.1740
 4135TIP3   OH233895   2.558   4.531   1.618 -0.2354  0.3043 -0.0198
 4135TIP3    H133896   2.493   4.475   1.660  0.5986  0.3780  1.4033
 4135TIP3    H233897   2.618   4.470   1.576 -1.1392  0.2343 -1.2724
 4136TIP3   OH233898   6.770   5.816   6.442  0.0667 -1.1544 -0.0496
 4136TIP3    H133899   6.686   5.803   6.398  0.1308  0.9683 -0.9540
 4136TIP3    H233900   6.833   5.828   6.371  0.7073 -0.5301  0.5972
 4137TIP3   OH233901   0.551   0.753  10.635  0.8381  0.3697 -0.4351
 4137TIP3    H133902   0.558   0.658  10.627  2.1407  0.4208 -0.0862
 4137TIP3    H233903   0.635   0.781  10.671 -0.0549  1.4877  0.9541
 4138TIP3   OH233904   1.455   2.986  14.165  0.8019  0.1188 -0.2626
 4138TIP3    H133905   1.507   2.909  14.147  0.7884  0.2796 -1.0088
 4138TIP3    H233906   1.466   3.042  14.088  0.5910  0.7363  0.1448
 4139TIP3   OH233907   1.518   4.337  16.014 -0.6384  0.0431 -0.1171
 4139TIP3    H133908   1.552   4.392  15.943 -0.2830  0.7877  0.6133
 4139TIP3    H233909   1.452   4.282  15.972  0.1182 -0.0920 -1.1849
 4140TIP3   OH233910   3.600   3.451   2.147  0.0175 -0.4762 -0.2104
 4140TIP3    H133911   3.694   3.433   2.138  0.1216 -0.9632  1.5526
 4140TIP3    H233912   3.594   3.516   2.216 -0.9370 -0.2773 -0.4685
 4141TIP3   OH233913   6.730   1.577  13.576  0.4862  0.7314  0.3240
 4141TIP3    H133914   6.787   1.518  13.527 -2.2976 -0.5493 -1.6835
 4141TIP3    H233915   6.728   1.658  13.525  0.0121  0.5373  0.0323
 4142TIP3   OH233916   2.275   0.841  14.360 -0.4295  0.3314  0.5072
 4142TIP3    H133917   2.216   0.799  14.423 -0.2072 -0.6975  0.0559
 4142TIP3    H233918   2.294   0.772  14.296  2.2385  0.2401  1.2888
 4143TIP3   OH233919   4.440   0.555   4.965 -0.4556  0.4556  0.3403
 4143TIP3    H133920   4.522   0.538   4.920  0.4187  0.2486  1.9491
 4143TIP3    H233921   4.439   0.492   5.038 -1.3631  1.3847  1.1664
 4144TIP3   OH233922   6.568   4.432  13.728 -0.3462 -0.7085 -0.5700
 4144TIP3    H133923   6.551   4.526  13.738  0.1345 -0.5662 -1.0645
 4144TIP3    H233924   6.495   4.389  13.774 -2.0625 -0.1354 -2.6397
 4145TIP3   OH233925   0.804   1.753   2.031 -0.8183 -0.1342 -0.1111
 4145TIP3    H133926   0.894   1.724   2.041 -0.5206  1.6685  4.3562
 4145TIP3    H233927   0.753   1.673   2.022  0.9025 -1.3740  0.8734
 4146TIP3   OH233928   6.280   0.777  13.127  0.2188  0.0110 -0.5939
 4146TIP3    H133929   6.238   0.695  13.153 -2.9752  1.2954 -1.2999
 4146TIP3    H233930   6.272   0.778  13.031  2.2133  0.2234 -0.8051
 4147TIP3   OH233931   2.968   4.093   1.250  0.0778 -0.1602  0.4462
 4147TIP3    H133932   2.982   4.159   1.181 -0.7354  0.1208  0.5383
 4147TIP3    H233933   2.924   4.021   1.205  0.3922 -0.3707  0.4778
 4148TIP3   OH233934   2.659   0.958  13.071 -0.1076  0.2380  0.4874
 4148TIP3    H133935   2.744   0.949  13.027 -0.7254  0.4463 -0.7976
 4148TIP3    H233936   2.628   0.868  13.080 -0.4299  0.2403 -0.4615
 4149TIP3   OH233937   4.689   5.233  11.541 -0.1477 -0.5562  0.4240
 4149TIP3    H133938   4.758   5.298  11.531  1.3780 -2.0397  0.7853
 4149TIP3    H233939   4.648   5.254  11.625  1.2732 -0.8745  1.2215
 4150TIP3   OH233940   0.435   4.459   0.067  0.3001  0.0302 -0.0473
 4150TIP3    H133941   0.461   4.497   0.150 -0.0934  0.0035  0.0904
 4150TIP3    H233942   0.482   4.376   0.063  0.3022  0.0203  0.1605
 4151TIP3   OH233943   3.620   4.582   1.728  0.7162  0.4228  0.0293
 4151TIP3    H133944   3.573   4.601   1.809 -1.3605  0.4240 -1.1045
 4151TIP3    H233945   3.576   4.504   1.693  0.6789  1.2004 -1.7407
 4152TIP3   OH233946   3.781   3.985  15.652  0.1084  0.2893  0.3759
 4152TIP3    H133947   3.814   3.910  15.702  0.7248  1.1558  1.2956
 4152TIP3    H233948   3.739   3.945  15.575  1.8897 -0.9456 -0.0236
 4153TIP3   OH233949   5.182   0.730  12.416  0.0878 -0.2765 -0.2279
 4153TIP3    H133950   5.199   0.689  12.331 -0.0745 -0.6082 -0.1035
 4153TIP3    H233951   5.212   0.665  12.480 -0.1670 -0.1964 -0.0266
 4154TIP3   OH233952   3.141   1.362  16.830  0.3668 -0.0118  0.3533
 4154TIP3    H133953   3.107   1.422  16.897  0.6668 -1.1377  1.5712
 4154TIP3    H233954   3.125   1.407  16.747  0.2853  1.5904  1.1890
 4155TIP3   OH233955   3.904   4.834  13.942  0.1825 -0.4782  0.2286
 4155TIP3    H133956   3.983   4.824  13.889 -0.0092 -0.2022 -0.1136
 4155TIP3    H233957   3.835   4.851  13.878 -0.2617 -1.2869  0.4858
 4156TIP3   OH233958   4.412   1.115  11.815  0.0082  0.3745  0.1122
 4156TIP3    H133959   4.499   1.078  11.834  0.5250  2.0334  1.1217
 4156TIP3    H233960   4.405   1.111  11.720  0.2418 -1.8115  0.1374
 4157TIP3   OH233961   0.750   1.339  13.717  0.0050  0.2850 -0.4150
 4157TIP3    H133962   0.672   1.377  13.675  0.1021  1.0394  0.0546
 4157TIP3    H233963   0.715   1.286  13.789 -0.0910  0.4045 -0.3731
 4158TIP3   OH233964   5.176   4.346  16.844 -0.2549  0.8003  0.1270
 4158TIP3    H133965   5.217   4.303  16.919 -0.2553  1.8452  0.7568
 4158TIP3    H233966   5.192   4.287  16.770 -0.7977 -0.5558  1.0610
 4159TIP3   OH233967   4.247   1.979  16.239  0.1968  0.7759  0.1185
 4159TIP3    H133968   4.257   2.053  16.179 -0.3525 -0.6699 -1.8538
 4159TIP3    H233969   4.175   1.928  16.202  1.0559 -1.1431  0.9677
 4160TIP3   OH233970   3.258   0.393  13.793  0.6398 -0.4515 -0.3205
 4160TIP3    H133971   3.256   0.483  13.826 -1.4961 -1.1945  1.8500
 4160TIP3    H233972   3.342   0.358  13.825  1.4643  0.6978 -1.1395
 4161TIP3   OH233973   0.475   3.507  16.751 -0.0287  0.3381  0.0313
 4161TIP3    H133974   0.475   3.521  16.656  0.3839 -0.7247 -0.1375
 4161TIP3    H233975   0.384   3.523  16.778 -0.2357  0.2351 -0.6017
 4162TIP3   OH233976   5.352   0.234   2.212  0.1492  0.0814  0.4224
 4162TIP3    H133977   5.376   0.299   2.146 -1.5526 -0.8799 -1.2526
 4162TIP3    H233978   5.400   0.260   2.290  4.2126 -0.0395 -1.7514
 4163TIP3   OH233979   4.829   4.637  12.541 -0.3723 -0.1715 -0.0953
 4163TIP3    H133980   4.780   4.602  12.467  2.0992 -0.7427 -1.6045
 4163TIP3    H233981   4.887   4.565  12.567  0.1446  0.6553  1.1249
 4164TIP3   OH233982   3.046   1.046  12.199 -0.1317 -0.1214  0.4711
 4164TIP3    H133983   3.084   1.085  12.278  0.1224 -0.9961  0.7881
 4164TIP3    H233984   3.038   0.953  12.220 -0.5763 -0.2698 -0.3367
 4165TIP3   OH233985   2.486   4.335  13.243 -0.3739  0.0837 -0.2213
 4165TIP3    H133986   2.520   4.360  13.157  0.1935  0.0893  0.0007
 4165TIP3    H233987   2.446   4.249  13.229  0.3467 -0.2416 -0.3455
 4166TIP3   OH233988   5.700   1.444   4.871 -0.7064  0.3189 -0.1024
 4166TIP3    H133989   5.741   1.395   4.800 -1.0518 -3.3642  2.0043
 4166TIP3    H233990   5.771   1.499   4.905  0.1713  0.1823 -1.5837
 4167TIP3   OH233991   2.961   2.638  11.640 -0.1781 -0.0991  0.6423
 4167TIP3    H133992   2.955   2.576  11.567 -0.6316  0.1168  0.4937
 4167TIP3    H233993   2.871   2.669  11.653  0.0860  0.7157  0.5525
 4168TIP3   OH233994   0.183   0.944  16.477 -0.0213  0.1112 -0.2442
 4168TIP3    H133995   0.244   0.895  16.423  0.3886 -0.6677  0.8930
 4168TIP3    H233996   0.238   1.002  16.530 -0.4799  1.5869 -1.3323
 4169TIP3   OH233997   3.857   3.862   2.507 -0.1683  0.1012 -0.1308
 4169TIP3    H133998   3.881   3.925   2.574 -1.9991  2.2778 -1.3837
 4169TIP3    H233999   3.929   3.864   2.444 -0.2826  1.1237 -0.2433
 4170TIP3   OH234000   1.269   3.700   0.344 -0.3105 -0.2944  0.0411
 4170TIP3    H134001   1.179   3.706   0.311 -1.1386  1.5238  2.3593
 4170TIP3    H234002   1.263   3.639   0.418  0.5300 -0.6472 -0.1632
 4171TIP3   OH234003   5.475   2.171  14.615  0.1439 -0.9238 -0.0365
 4171TIP3    H134004   5.508   2.253  14.579 -1.0825 -1.1653 -1.8507
 4171TIP3    H234005   5.522   2.103  14.567 -2.4264 -1.2712 -2.3401
 4172TIP3   OH234006   1.326   1.744   0.731  0.2383 -1.0868 -0.7498
 4172TIP3    H134007   1.294   1.831   0.753  1.3279 -0.6880 -0.6477
 4172TIP3    H234008   1.255   1.685   0.754 -0.6906 -0.1897 -1.2473
 4173TIP3   OH234009   3.116   4.568   4.731  0.0136 -0.3335 -0.0354
 4173TIP3    H134010   3.139   4.478   4.753  0.2489 -0.6315 -1.4307
 4173TIP3    H234011   3.135   4.576   4.637 -2.4033  0.3814 -0.5434
 4174TIP3   OH234012   2.844   0.883   4.907  0.1818 -0.0594 -0.2569
 4174TIP3    H134013   2.793   0.931   4.973 -1.3742 -2.4956  0.4474
 4174TIP3    H234014   2.799   0.902   4.825  0.3277  0.6391 -0.1835
 4175TIP3   OH234015   6.724   0.051   5.717  0.2581  0.3833 -0.2028
 4175TIP3    H134016   6.691   0.042   5.628  0.8708 -0.9285 -0.3181
 4175TIP3    H234017   6.804  -0.001   5.719  1.7358  2.5768  0.3789
 4176TIP3   OH234018   3.415   2.825  15.630  0.1348  0.1643  0.1622
 4176TIP3    H134019   3.341   2.810  15.571 -1.4176  1.9729  1.5251
 4176TIP3    H234020   3.446   2.912  15.607  1.0018 -0.0490  0.5088
 4177TIP3   OH234021   4.177   2.763  15.237 -0.0700  0.0809 -0.5152
 4177TIP3    H134022   4.266   2.769  15.202 -0.5398  0.6651 -1.6923
 4177TIP3    H234023   4.144   2.680  15.202  0.5472 -0.9812  1.3057
 4178TIP3   OH234024   0.871   5.449  17.129  0.2325 -0.3043 -0.1783
 4178TIP3    H134025   0.925   5.387  17.178 -1.1932 -0.1628  1.6938
 4178TIP3    H234026   0.923   5.529  17.126  0.3328 -0.2873  1.2403
 4179TIP3   OH234027   1.324   1.860  16.386 -0.4400 -0.1772 -0.0065
 4179TIP3    H134028   1.305   1.777  16.430 -1.0177  0.8995  1.8902
 4179TIP3    H234029   1.259   1.865  16.316 -1.3324 -0.6712  0.7604
 4180TIP3   OH234030   3.161   5.844  15.167 -0.3929 -0.4345 -0.0217
 4180TIP3    H134031   3.112   5.762  15.178  0.1952 -0.7914 -0.0296
 4180TIP3    H234032   3.181   5.847  15.073 -0.8562 -0.0154 -0.1163
 4181TIP3   OH234033   0.200   4.664  14.899 -0.2385 -0.5760 -0.0911
 4181TIP3    H134034   0.115   4.655  14.855 -0.0112  1.1092 -0.9657
 4181TIP3    H234035   0.258   4.604  14.853 -0.7744 -1.2193  0.0583
 4182TIP3   OH234036   6.640   2.388  14.854  0.3946 -0.1344  0.1006
 4182TIP3    H134037   6.620   2.296  14.869 -1.3977 -0.5647 -3.6798
 4182TIP3    H234038   6.692   2.389  14.774 -1.5049  2.1312 -1.2617
 4183TIP3   OH234039   1.943   1.890  16.158 -0.2725 -0.0032  0.1489
 4183TIP3    H134040   1.987   1.943  16.224  0.7119  1.6536 -1.7401
 4183TIP3    H234041   2.012   1.866  16.096 -0.6789 -3.4889  0.8037
 4184TIP3   OH234042   1.841   5.438  13.640  0.2043 -0.5798 -0.0239
 4184TIP3    H134043   1.934   5.415  13.644  0.9175  2.1599  2.0793
 4184TIP3    H234044   1.840   5.534  13.642 -2.6925 -0.5314  1.3199
 4185TIP3   OH234045   2.991   0.774  12.197  0.1572 -0.2254  0.2433
 4185TIP3    H134046   2.926   0.752  12.130 -1.3988 -0.4885  1.7731
 4185TIP3    H234047   3.073   0.736  12.164 -0.5809 -0.4526 -1.4306
 4186TIP3   OH234048   3.533   4.996  13.135  0.2968  0.2961  0.4257
 4186TIP3    H134049   3.602   5.061  13.121  0.6420  0.0809  1.0771
 4186TIP3    H234050   3.580   4.918  13.165 -0.0481 -0.4422 -0.8662
 4187TIP3   OH234051   2.516   2.816  12.754  0.1519 -0.9284  0.2618
 4187TIP3    H134052   2.428   2.799  12.721 -1.2548  0.3204  2.9931
 4187TIP3    H234053   2.527   2.910  12.742  0.5232 -0.8490  1.2064
 4188TIP3   OH234054   4.643   0.090  11.292 -0.1047  0.1612  0.7190
 4188TIP3    H134055   4.616   0.041  11.214  1.5731 -0.7897  0.6789
 4188TIP3    H234056   4.709   0.034  11.334  1.0265  1.8539  1.3265
 4189TIP3   OH234057   6.122   4.884  13.796 -0.0766 -0.7032 -0.1392
 4189TIP3    H134058   6.163   4.798  13.783 -2.5825 -2.1681  0.9100
 4189TIP3    H234059   6.103   4.888  13.890 -2.3513 -0.1966 -0.5594
 4190TIP3   OH234060   2.890   4.064  16.572  0.0204  0.4575  0.4822
 4190TIP3    H134061   2.818   4.006  16.549  2.0537 -0.8887 -3.1676
 4190TIP3    H234062   2.855   4.152  16.559 -1.4792 -0.0810  0.7058
 4191TIP3   OH234063   0.679   5.425  16.904 -0.4738  0.0486 -0.1215
 4191TIP3    H134064   0.749   5.387  16.957  0.7425  1.5353 -0.5640
 4191TIP3    H234065   0.684   5.519  16.922 -1.7021  0.2978 -0.9408
 4192TIP3   OH234066   1.368   3.738   0.751 -0.1559  0.2964 -0.2807
 4192TIP3    H134067   1.345   3.750   0.843  0.6274  0.3999 -0.0845
 4192TIP3    H234068   1.429   3.665   0.751 -0.4646  0.0348 -0.7714
 4193TIP3   OH234069   6.653   2.794  16.164 -0.3114 -0.1788 -0.4647
 4193TIP3    H134070   6.729   2.745  16.195 -0.7723 -0.0752  0.9085
 4193TIP3    H234071   6.609   2.824  16.244 -1.4147  0.3520 -1.2330
 4194TIP3   OH234072   5.009   5.580  13.442  0.1291 -0.1821  0.3642
 4194TIP3    H134073   5.071   5.524  13.395  0.1373 -1.0097  1.3363
 4194TIP3    H234074   4.926   5.568  13.396  0.0181 -1.3817  0.8404
 4195TIP3   OH234075   6.324   6.213   0.432 -0.3015 -0.0081  0.6093
 4195TIP3    H134076   6.409   6.252   0.452  1.1148 -2.4645 -0.2168
 4195TIP3    H234077   6.319   6.213   0.337 -0.4761 -1.3107  0.5983
 4196TIP3   OH234078   5.871   5.383  12.648 -0.0860  0.4686  0.3230
 4196TIP3    H134079   5.937   5.390  12.717  0.9712 -1.9681 -0.3454
 4196TIP3    H234080   5.919   5.351  12.572 -1.3591  2.4462 -1.4203
 4197TIP3   OH234081   5.008   3.538  12.983  0.1508 -0.6083 -0.2255
 4197TIP3    H134082   4.987   3.612  13.040 -0.1676 -1.3926  0.7131
 4197TIP3    H234083   5.086   3.566  12.935 -0.0214  0.3662  0.0454
 4198TIP3   OH234084   6.621   3.443   3.003 -0.2568  0.9341  0.6669
 4198TIP3    H134085   6.638   3.368   3.061  1.7590  1.1201  0.3884
 4198TIP3    H234086   6.708   3.478   2.983 -0.8739  1.1575 -2.0981
 4199TIP3   OH234087   6.761   4.862  12.469  0.2613  0.4752 -0.4160
 4199TIP3    H134088   6.752   4.957  12.476  1.0233  0.5926 -0.9250
 4199TIP3    H234089   6.808   4.836  12.549 -1.0077  0.3534  0.3245
 4200TIP3   OH234090   6.733   2.099  14.872 -0.4408  0.1529  0.1641
 4200TIP3    H134091   6.791   2.052  14.813 -1.1546 -0.0167 -0.4236
 4200TIP3    H234092   6.791   2.140  14.936  0.4259  1.0395 -1.1412
 4201TIP3   OH234093   2.880   1.760  13.472  0.1204  0.1178 -0.2798
 4201TIP3    H134094   2.878   1.853  13.494 -1.7166 -0.2408  1.3914
 4201TIP3    H234095   2.857   1.757  13.379 -0.8040  1.3000 -0.1149
 4202TIP3   OH234096   3.532   1.600  15.200 -0.5490  0.0665  0.1969
 4202TIP3    H134097   3.570   1.513  15.209 -0.9583 -0.2539 -0.9813
 4202TIP3    H234098   3.607   1.659  15.192 -0.1356  0.2475  3.6903
 4203TIP3   OH234099   6.267   1.950  14.991 -0.3481 -0.3549  0.1948
 4203TIP3    H134100   6.262   1.993  15.076  1.2277  2.0429 -0.8225
 4203TIP3    H234101   6.358   1.918  14.986 -0.3592 -0.2763 -0.6462
 4204TIP3   OH234102   6.778   0.113  11.513  0.0451  0.2529  0.5056
 4204TIP3    H134103   6.861   0.115  11.560  0.5976  2.0883 -0.4559
 4204TIP3    H234104   6.795   0.059  11.436 -0.1378 -0.6565  1.0803
 4205TIP3   OH234105   5.952   4.126  16.175 -0.5826 -0.0586  0.6831
 4205TIP3    H134106   5.902   4.150  16.097 -0.9768 -0.2847  0.8635
 4205TIP3    H234107   5.897   4.063  16.221 -0.3423  0.0486  1.1310
 4206TIP3   OH234108   0.065   2.033   4.231 -0.4504 -0.1552  0.3163
 4206TIP3    H134109   0.090   2.114   4.276 -1.1117 -0.1866  0.7485
 4206TIP3    H234110   0.118   2.033   4.151  1.2550 -0.4165  1.3874
 4207TIP3   OH234111   4.227   2.690  16.088 -0.0068  0.1274  0.1760
 4207TIP3    H134112   4.262   2.643  16.163 -0.0515 -1.2509 -0.6489
 4207TIP3    H234113   4.132   2.689  16.101  0.0458  0.9455  0.7000
 4208TIP3   OH234114   1.947   4.999  14.670 -0.0545 -0.3741 -0.7140
 4208TIP3    H134115   1.945   4.987  14.765 -0.7233  0.4551 -0.6150
 4208TIP3    H234116   1.968   4.912  14.635 -0.3346 -0.8064  0.1670
 4209TIP3   OH234117   1.257   5.750  15.751  0.4135 -0.2997 -0.4001
 4209TIP3    H134118   1.244   5.673  15.806 -0.2817  1.3830  1.9179
 4209TIP3    H234119   1.240   5.718  15.662 -1.0750 -2.5443  0.5931
 4210TIP3   OH234120   4.023   6.686   6.457 -0.3269 -0.1146 -0.0481
 4210TIP3    H134121   3.976   6.767   6.436 -0.4754 -0.0066  0.6634
 4210TIP3    H234122   4.023   6.636   6.376 -0.7910  0.3240 -0.3243
 4211TIP3   OH234123   0.839   0.726   2.450  0.1668 -0.2489  0.2243
 4211TIP3    H134124   0.816   0.813   2.482  0.1129 -0.9412  2.2112
 4211TIP3    H234125   0.861   0.739   2.358 -2.6475  1.3859 -0.3402
 4212TIP3   OH234126   4.186   3.249   4.852 -0.5037  0.5121 -0.0714
 4212TIP3    H134127   4.148   3.161   4.860 -0.4301  0.4574 -0.3024
 4212TIP3    H234128   4.114   3.308   4.873 -0.4687  0.3882  0.3957
 4213TIP3   OH234129   5.865   5.408   4.042  0.4466 -0.2452  0.3072
 4213TIP3    H134130   5.837   5.334   4.096  0.8699  0.7008  1.8818
 4213TIP3    H234131   5.935   5.372   3.988 -0.4292 -1.3864 -0.1251
 4214TIP3   OH234132   6.761   1.882   0.202 -0.0249  0.2953 -0.4537
 4214TIP3    H134133   6.845   1.837   0.198 -0.5466 -0.6158 -2.1047
 4214TIP3    H234134   6.702   1.820   0.245  0.1672  1.0187  0.9025
 4215TIP3   OH234135   3.214   0.396   4.521  0.1784 -0.1500  0.0543
 4215TIP3    H134136   3.191   0.325   4.462 -0.7483 -0.7969  1.1477
 4215TIP3    H234137   3.187   0.476   4.476 -0.5710 -0.6323 -0.3679
 4216TIP3   OH234138   5.449   5.160   2.991  0.1038 -0.2807  0.6485
 4216TIP3    H134139   5.416   5.250   2.998  1.6748  0.3853  0.0102
 4216TIP3    H234140   5.543   5.169   3.006  0.2951 -1.8158  0.4434
 4217TIP3   OH234141   0.134   2.312   4.255 -0.5995  0.0541  0.0079
 4217TIP3    H134142   0.088   2.396   4.259  0.5204  0.7203 -0.2781
 4217TIP3    H234143   0.211   2.331   4.200 -0.9304 -1.4653 -1.0339
 4218TIP3   OH234144   6.397   2.574  15.133  0.6552  0.0186  0.9385
 4218TIP3    H134145   6.380   2.504  15.070  0.0004  0.2147  0.8965
 4218TIP3    H234146   6.433   2.645  15.080 -0.0255  0.2348  0.7600
 4219TIP3   OH234147   1.251   4.778  16.738 -0.4427 -0.4522 -0.1296
 4219TIP3    H134148   1.163   4.753  16.711 -0.1670  0.6027 -2.1881
 4219TIP3    H234149   1.284   4.832  16.666  1.8745 -0.7687  0.6169
 4220TIP3   OH234150   3.497   4.007  13.126 -0.4013 -0.2498  0.7642
 4220TIP3    H134151   3.435   4.049  13.066  1.3211  0.5518 -0.5266
 4220TIP3    H234152   3.564   4.073  13.142  2.0762 -2.1887 -0.8384
 4221TIP3   OH234153   5.166   2.728   4.870  0.2480 -0.4363  0.1431
 4221TIP3    H134154   5.132   2.809   4.909 -0.9419  0.1343 -1.9114
 4221TIP3    H234155   5.150   2.661   4.936 -2.2815  0.3479  0.4351
 4222TIP3   OH234156   2.013   2.529   4.041  0.1116 -0.1963  0.4336
 4222TIP3    H134157   1.997   2.434   4.049 -1.3588 -0.1056 -0.8499
 4222TIP3    H234158   1.940   2.569   4.089 -0.8669  0.2599 -1.3514
 4223TIP3   OH234159   1.241   3.477  14.979 -0.3692 -0.8254  0.3961
 4223TIP3    H134160   1.268   3.510  14.893  1.0735 -0.4058  0.9853
 4223TIP3    H234161   1.172   3.413  14.959  0.1700 -0.9878 -1.0949
 4224TIP3   OH234162   1.103   0.091  12.624  0.0229 -0.2313 -0.6567
 4224TIP3    H134163   1.178   0.146  12.604 -0.1763 -0.3345 -1.8035
 4224TIP3    H234164   1.136   0.001  12.616 -0.1857 -0.2766 -1.0894
 4225TIP3   OH234165   2.899   5.801   6.247 -0.3444 -0.0401 -0.0352
 4225TIP3    H134166   2.941   5.730   6.295  1.5010  0.6005 -0.6080
 4225TIP3    H234167   2.909   5.878   6.303 -2.1113 -0.1360  0.4709
 4226TIP3   OH234168   1.910   3.971  12.486 -0.8189  0.2012  0.4845
 4226TIP3    H134169   1.929   4.045  12.427  1.4666  0.5430  1.5246
 4226TIP3    H234170   1.861   3.909  12.432 -2.4309  2.2403 -0.5579
 4227TIP3   OH234171   5.633   0.573  17.074  0.2238  0.7577 -0.2148
 4227TIP3    H134172   5.627   0.563  17.169  0.9752 -1.2591 -0.3182
 4227TIP3    H234173   5.552   0.618  17.049 -0.3107  0.6995  1.3044
 4228TIP3   OH234174   0.835   5.861   0.362 -0.5768 -0.3797 -0.3832
 4228TIP3    H134175   0.873   5.775   0.384 -1.4523 -0.5171  0.6848
 4228TIP3    H234176   0.786   5.885   0.440 -2.2854  0.0206 -1.5421
 4229TIP3   OH234177   4.048   2.000  12.379 -0.1766  0.3071 -0.0313
 4229TIP3    H134178   4.065   1.966  12.291  2.0133  0.6053  0.2061
 4229TIP3    H234179   3.992   1.934  12.419 -0.1073 -0.5129 -1.2124
 4230TIP3   OH234180   1.186   0.370  13.063 -0.9246 -0.2749 -0.1507
 4230TIP3    H134181   1.246   0.444  13.049 -0.8141 -0.3541 -0.0956
 4230TIP3    H234182   1.109   0.391  13.009 -0.7134 -0.3316 -0.4718
 4231TIP3   OH234183   6.482   3.003   2.172 -0.1647  0.1068 -0.0797
 4231TIP3    H134184   6.453   3.081   2.124 -0.4172  0.1437  0.1341
 4231TIP3    H234185   6.571   3.024   2.200  0.3506 -0.2794 -1.3457
 4232TIP3   OH234186   1.277   1.746   5.267  0.8271  0.4673 -0.3402
 4232TIP3    H134187   1.272   1.834   5.306 -0.2383  1.0853 -1.7865
 4232TIP3    H234188   1.282   1.762   5.173 -0.0216 -1.0443 -0.6643
 4233TIP3   OH234189   4.648   1.362   2.216  0.2694  0.0831  0.0968
 4233TIP3    H134190   4.702   1.284   2.226 -0.0179 -0.1483 -0.1384
 4233TIP3    H234191   4.622   1.362   2.124  1.8078  1.4743 -0.3888
 4234TIP3   OH234192   1.217   0.930  16.973 -0.2214 -0.0897 -0.3943
 4234TIP3    H134193   1.154   0.992  16.936 -2.2657 -2.2089 -0.6746
 4234TIP3    H234194   1.192   0.923  17.065 -0.2516 -0.7629 -0.4532
 4235TIP3   OH234195   3.753   6.434   2.204  0.0076  0.5148  0.7040
 4235TIP3    H134196   3.797   6.382   2.137  2.4857  0.8547  1.9387
 4235TIP3    H234197   3.672   6.386   2.222 -0.6904  0.3606 -2.3528
 4236TIP3   OH234198   6.208   5.598   3.625  0.3326 -0.2517  0.0135
 4236TIP3    H134199   6.141   5.541   3.588  0.8048 -0.0124 -1.2570
 4236TIP3    H234200   6.291   5.562   3.593  0.7681 -0.0436  0.8700
 4237TIP3   OH234201   2.038   3.759   2.767 -0.4128  0.3798  0.0216
 4237TIP3    H134202   2.055   3.810   2.688 -1.6119  0.8526  0.0507
 4237TIP3    H234203   2.124   3.727   2.794 -0.0201 -0.2018 -1.7455
 4238TIP3   OH234204   0.558   4.342  14.373 -0.0640  0.1270 -0.0777
 4238TIP3    H134205   0.605   4.399  14.434 -1.5940  2.4095 -0.8795
 4238TIP3    H234206   0.528   4.401  14.304 -1.2483 -1.8011 -1.2992
 4239TIP3   OH234207   5.774   6.305   2.745 -0.1345 -0.3707  0.2674
 4239TIP3    H134208   5.746   6.262   2.665  0.6427 -0.2511 -0.0715
 4239TIP3    H234209   5.771   6.236   2.812 -1.3063 -0.3424  0.2668
 4240TIP3   OH234210   3.891   0.052   1.728  0.7860  0.3676 -0.1789
 4240TIP3    H134211   3.891  -0.039   1.697 -0.4130  0.8760 -1.8530
 4240TIP3    H234212   3.833   0.098   1.666 -1.8596  1.5257  2.8963
 4241TIP3   OH234213   6.187   4.135  11.657  0.0452 -0.8721  0.1502
 4241TIP3    H134214   6.177   4.183  11.575  0.5749 -0.4331  0.3385
 4241TIP3    H234215   6.170   4.044  11.634 -0.8440 -0.6181 -0.2364
 4242TIP3   OH234216   4.990   0.262   2.319  0.1776 -0.0884  0.0574
 4242TIP3    H134217   4.896   0.253   2.301 -0.2153  0.0045  1.8199
 4242TIP3    H234218   5.010   0.352   2.294 -0.1453 -0.1853 -0.5659
 4243TIP3   OH234219   5.560   5.300  13.108 -0.1149 -0.3570  0.1724
 4243TIP3    H134220   5.623   5.296  13.036  1.0160  1.2387  1.0155
 4243TIP3    H234221   5.606   5.262  13.183 -0.3750  0.2058  0.6296
 4244TIP3   OH234222   4.173   0.708  13.608  0.0767 -0.0262 -0.0466
 4244TIP3    H134223   4.154   0.747  13.522  1.4135  1.7591  0.4054
 4244TIP3    H234224   4.179   0.614  13.591  0.9101  0.3316 -2.0573
 4245TIP3   OH234225   6.527   3.646  15.923  0.0513  0.2923  0.4262
 4245TIP3    H134226   6.487   3.565  15.890 -1.8296  1.1720  0.4112
 4245TIP3    H234227   6.571   3.684  15.847  1.0766 -0.7454  0.4665
 4246TIP3   OH234228   2.397   3.555  14.896  0.2920  0.2954  0.5116
 4246TIP3    H134229   2.439   3.632  14.857 -0.2986  0.3421 -0.0548
 4246TIP3    H234230   2.467   3.490  14.901  0.3265  0.1775 -0.9804
 4247TIP3   OH234231   0.532   1.765   4.757 -0.1862  0.1822 -0.2248
 4247TIP3    H134232   0.496   1.684   4.722 -0.6150 -1.0358  2.7131
 4247TIP3    H234233   0.486   1.834   4.709 -0.8850 -1.3023 -1.7990
 4248TIP3   OH234234   5.941   2.990   5.616  0.0498  0.0628 -0.8208
 4248TIP3    H134235   5.949   2.911   5.669 -4.2009  0.6627  1.1350
 4248TIP3    H234236   5.916   2.958   5.529 -4.0933 -0.9970  0.5276
 4249TIP3   OH234237   5.837   2.249  14.812  0.3049 -0.2702 -0.1295
 4249TIP3    H134238   5.808   2.330  14.771  1.8018  0.4109  0.0792
 4249TIP3    H234239   5.922   2.271  14.851 -0.5784 -1.1224  2.5064
 4250TIP3   OH234240   0.639   0.464  16.434 -0.3620 -0.7992  0.0274
 4250TIP3    H134241   0.641   0.483  16.528  1.4635 -1.5715  0.1791
 4250TIP3    H234242   0.680   0.541  16.394 -1.3900 -0.3463 -0.1856
 4251TIP3   OH234243   4.556   5.784   5.354 -0.1962 -0.5513  0.4786
 4251TIP3    H134244   4.512   5.833   5.284 -1.2520  0.0249  1.5174
 4251TIP3    H234245   4.649   5.801   5.340 -0.4468  0.3703 -0.1820
 4252TIP3   OH234246   5.119   3.706  12.633  0.1727  0.4330  0.1440
 4252TIP3    H134247   5.036   3.694  12.588  0.3720  1.3053 -0.4792
 4252TIP3    H234248   5.185   3.700  12.564  0.7540 -1.5358  0.7982
 4253TIP3   OH234249   1.208   2.613   4.552  0.1006  0.0996 -0.0380
 4253TIP3    H134250   1.227   2.656   4.635  0.1110 -0.4788  0.2632
 4253TIP3    H234251   1.225   2.520   4.569 -1.1428 -0.1919 -0.3200
 4254TIP3   OH234252   5.794   1.426   4.054 -0.4439  0.4069 -0.3069
 4254TIP3    H134253   5.762   1.486   4.122  0.5839  1.8911 -1.0532
 4254TIP3    H234254   5.766   1.466   3.972 -0.2281 -0.4546 -0.8083
 4255TIP3   OH234255   5.763   5.780   6.056 -0.2876 -0.3298  0.0497
 4255TIP3    H134256   5.696   5.804   5.992  0.8149  0.5704 -0.7981
 4255TIP3    H234257   5.846   5.792   6.010  0.4849 -1.0731  1.1928
 4256TIP3   OH234258   6.149   2.686   2.462  0.1131 -0.5475 -1.0771
 4256TIP3    H134259   6.144   2.771   2.504 -1.1357 -0.2975 -1.6747
 4256TIP3    H234260   6.067   2.678   2.414 -0.6488 -2.8739  0.4255
 4257TIP3   OH234261   4.055   4.133  17.347  0.1707  0.1771 -0.3871
 4257TIP3    H134262   4.019   4.215  17.382 -1.3218 -0.0974 -1.2038
 4257TIP3    H234263   4.108   4.099  17.419 -2.2596 -0.0367  1.4676
 4258TIP3   OH234264   3.908   3.238   4.227  0.0267  0.6712  0.2199
 4258TIP3    H134265   3.818   3.270   4.224  0.0361  0.6965 -2.1941
 4258TIP3    H234266   3.900   3.143   4.212  0.3704  0.6443  0.1995
 4259TIP3   OH234267   4.427   4.311  13.483 -0.1862 -0.8761  0.5915
 4259TIP3    H134268   4.437   4.305  13.578 -1.2330 -2.4423  0.6305
 4259TIP3    H234269   4.512   4.283  13.448  1.0683  2.0363  1.0230
 4260TIP3   OH234270   0.456   4.474  12.816 -1.0426  0.5075  0.1523
 4260TIP3    H134271   0.502   4.543  12.767 -1.4482  0.6848  0.0240
 4260TIP3    H234272   0.508   4.464  12.896 -0.9474  0.9165  0.1443
 4261TIP3   OH234273   5.285   0.329   4.730 -0.8134 -0.5267 -0.0023
 4261TIP3    H134274   5.199   0.369   4.745 -1.0282 -1.0418  0.1420
 4261TIP3    H234275   5.272   0.267   4.659 -0.6467 -0.8711  0.2618
 4262TIP3   OH234276   4.769   5.127  13.109 -0.5182 -0.1834  0.1842
 4262TIP3    H134277   4.828   5.087  13.046 -1.4292 -1.3219  0.0080
 4262TIP3    H234278   4.721   5.193  13.059 -0.2583 -0.1138  0.0260
 4263TIP3   OH234279   3.563   3.596  14.806  0.4767 -0.0544 -0.4696
 4263TIP3    H134280   3.479   3.638  14.822  0.7589  1.0383 -1.6786
 4263TIP3    H234281   3.541   3.506  14.783 -0.2547 -0.1601  0.5703
 4264TIP3   OH234282   4.583   2.827  14.531 -0.2612 -0.9761 -0.1976
 4264TIP3    H134283   4.650   2.808  14.597 -0.0145 -0.0253 -0.1536
 4264TIP3    H234284   4.632   2.832  14.449  0.0265  1.2279  0.0315
 4265TIP3   OH234285   5.967   5.887   4.676 -0.2901  0.2669 -0.1583
 4265TIP3    H134286   6.053   5.920   4.703 -0.1815 -0.7353  0.7910
 4265TIP3    H234287   5.929   5.850   4.756 -0.9332 -0.7364 -0.9049
 4266TIP3   OH234288   5.966   5.880   0.610  0.4819  0.3415 -0.3245
 4266TIP3    H134289   5.874   5.855   0.617 -0.0324  1.7888 -1.3608
 4266TIP3    H234290   6.013   5.797   0.601 -0.3555 -0.6375  3.1285
 4267TIP3   OH234291   1.399   1.713   4.356  0.0359  0.1477  0.3662
 4267TIP3    H134292   1.446   1.771   4.297 -0.4383  2.0444  1.7760
 4267TIP3    H234293   1.456   1.704   4.432 -0.8574  0.6218  1.1100
 4268TIP3   OH234294   4.311   5.229  14.239  0.0933 -0.1860  0.4391
 4268TIP3    H134295   4.270   5.167  14.178  0.1784  0.2408 -0.0643
 4268TIP3    H234296   4.240   5.286  14.266  0.0021 -0.5413  0.9529
 4269TIP3   OH234297   2.159   2.710   3.348 -0.0079 -0.4367 -0.2894
 4269TIP3    H134298   2.119   2.779   3.294 -0.1379  0.8292  1.3428
 4269TIP3    H234299   2.090   2.685   3.410  0.9949  0.2108  1.1483
 4270TIP3   OH234300   3.398   3.933   3.457 -0.8706  0.0604  0.5188
 4270TIP3    H134301   3.478   3.894   3.421  0.7609  0.5096  3.4047
 4270TIP3    H234302   3.424   4.020   3.486 -2.5396  0.3766  1.1837
 4271TIP3   OH234303   5.725   1.165  16.964  0.1774  0.6476  0.3498
 4271TIP3    H134304   5.682   1.172  17.049 -1.5316  0.6181 -0.4813
 4271TIP3    H234305   5.776   1.084  16.969 -0.6320  0.1657  1.0304
 4272TIP3   OH234306   1.565   3.088  16.949  0.2792 -0.1657  0.2708
 4272TIP3    H134307   1.512   3.073  17.027  1.0515 -2.5347  0.4479
 4272TIP3    H234308   1.509   3.063  16.876 -0.1515  1.2214  0.0981
 4273TIP3   OH234309   5.629   3.862   0.525 -0.1721 -0.0758  0.0939
 4273TIP3    H134310   5.648   3.914   0.446 -0.7732 -0.5636 -0.3799
 4273TIP3    H234311   5.685   3.785   0.517 -0.8574 -0.5476 -0.3063
 4274TIP3   OH234312   2.812   4.525   4.451 -0.0159 -0.0220  0.1191
 4274TIP3    H134313   2.832   4.447   4.503  0.7485 -1.2138 -1.8412
 4274TIP3    H234314   2.719   4.540   4.464 -0.0929 -1.0438  0.8280
 4275TIP3   OH234315   4.729   5.360   2.138 -0.1449 -0.5282 -0.3396
 4275TIP3    H134316   4.772   5.429   2.190  1.1018  0.1519 -2.1739
 4275TIP3    H234317   4.800   5.298   2.118 -1.1030 -2.0191  0.6903
 4276TIP3   OH234318   0.311   3.219  11.215  0.0461 -0.1302 -0.0501
 4276TIP3    H134319   0.329   3.300  11.261 -0.7177 -0.2313  0.4494
 4276TIP3    H234320   0.341   3.234  11.125  1.0989  0.2362  0.3559
 4277TIP3   OH234321   4.577   3.783   6.094 -0.0713  1.1523  0.0990
 4277TIP3    H134322   4.534   3.762   6.011 -0.5202 -3.3028  1.1720
 4277TIP3    H234323   4.513   3.761   6.161  1.3678  1.4689  1.6594
 4278TIP3   OH234324   1.413   1.717   5.594 -0.0341  0.0612 -0.1990
 4278TIP3    H134325   1.320   1.738   5.599  0.0140  0.6517 -1.4395
 4278TIP3    H234326   1.447   1.737   5.682 -0.7691  1.4088 -0.1941
 4279TIP3   OH234327   3.419   6.516   5.280 -0.0894  0.2047 -0.1768
 4279TIP3    H134328   3.447   6.439   5.329  0.4193  0.8309  0.5424
 4279TIP3    H234329   3.482   6.584   5.305 -1.5216  1.3140  0.5126
 4280TIP3   OH234330   1.216   2.878  16.900 -0.0739 -0.2033  0.1084
 4280TIP3    H134331   1.172   2.824  16.835  0.0247 -0.6615  0.4123
 4280TIP3    H234332   1.255   2.950  16.850 -0.4635 -0.2503 -0.2627
 4281TIP3   OH234333   1.852   2.823  15.861  0.5098  0.0086 -0.5366
 4281TIP3    H134334   1.784   2.888  15.881  0.3656 -0.1087 -0.6487
 4281TIP3    H234335   1.804   2.741  15.848  0.7672 -0.3151  0.4845
 4282TIP3   OH234336   5.484   3.917   0.001 -0.6040 -0.5483  1.0066
 4282TIP3    H134337   5.396   3.938   0.031 -0.3890  1.9677  0.1147
 4282TIP3    H234338   5.475   3.899  -0.093 -0.5953 -3.8486  1.4929
 4283TIP3   OH234339   3.643   1.234   3.161 -0.2362  0.2838  0.1438
 4283TIP3    H134340   3.601   1.168   3.106 -0.9629 -0.6270  1.7110
 4283TIP3    H234341   3.711   1.186   3.209 -0.2947  0.8132  0.7818
 4284TIP3   OH234342   6.216   2.815  12.699  0.3883  0.0277  0.0658
 4284TIP3    H134343   6.137   2.773  12.664  0.1716  0.5040 -0.0315
 4284TIP3    H234344   6.287   2.779  12.646  0.2402 -0.4157  0.1614
 4285TIP3   OH234345   0.394   2.736   2.887 -0.0012 -0.0443 -0.1887
 4285TIP3    H134346   0.320   2.748   2.946  0.2170 -0.7927  0.2484
 4285TIP3    H234347   0.367   2.667   2.827  0.7769 -1.1592  0.7197
 4286TIP3   OH234348   6.037   4.345   2.782 -0.2997 -0.2479  0.1278
 4286TIP3    H134349   6.054   4.258   2.747 -1.2271 -0.8859  1.2121
 4286TIP3    H234350   5.950   4.367   2.750 -2.6290 -2.1903  4.3572
 4287TIP3   OH234351   4.611   0.846   0.163 -0.1566  0.4223  0.1685
 4287TIP3    H134352   4.612   0.843   0.259  0.7772  1.6931  0.2175
 4287TIP3    H234353   4.703   0.841   0.137 -0.4744 -1.6630 -0.7683
 4288TIP3   OH234354   2.667   4.417  14.107 -0.2307 -0.0862 -0.3589
 4288TIP3    H134355   2.720   4.345  14.072  0.1342 -0.1140  0.2366
 4288TIP3    H234356   2.581   4.378  14.121 -0.6790  0.1602 -2.0866
 4289TIP3   OH234357   4.779   6.048  15.417 -0.2259 -0.2685  0.2562
 4289TIP3    H134358   4.867   6.015  15.435  0.1234  0.6459  0.2940
 4289TIP3    H234359   4.792   6.141  15.401 -0.9907 -0.3856 -1.1923
 4290TIP3   OH234360   1.606   1.550  12.373  0.5116  1.1154 -0.1664
 4290TIP3    H134361   1.549   1.547  12.296 -0.6387 -0.0263  0.6917
 4290TIP3    H234362   1.642   1.461  12.379 -0.7815  0.6666  1.5732
 4291TIP3   OH234363   1.027   2.264  15.779  0.0916 -0.5136 -0.0599
 4291TIP3    H134364   1.078   2.209  15.719  1.6613  2.8101 -2.0771
 4291TIP3    H234365   0.944   2.277  15.735 -0.4960 -1.6095  0.6786
 4292TIP3   OH234366   0.828   0.797   3.255 -0.4372 -0.1129  0.2126
 4292TIP3    H134367   0.912   0.752   3.243 -1.0930 -1.3573  0.1155
 4292TIP3    H234368   0.830   0.826   3.347 -0.1362 -0.6298  0.3769
 4293TIP3   OH234369   2.517   4.059   6.396 -0.6040  0.4699 -0.0663
 4293TIP3    H134370   2.454   4.016   6.454  0.6100 -0.6314  0.4939
 4293TIP3    H234371   2.545   3.990   6.335 -0.4904  1.1305 -0.7673
 4294TIP3   OH234372   4.976   0.001  15.081  0.2780 -0.1313 -0.1216
 4294TIP3    H134373   4.977  -0.073  15.020 -1.4400 -0.7795  0.5760
 4294TIP3    H234374   4.921  -0.029  15.153  0.4411  1.4513  0.6931
 4295TIP3   OH234375   1.445   3.056   4.229  0.1875 -1.4575 -0.1344
 4295TIP3    H134376   1.385   3.131   4.223 -1.9911 -3.2342 -3.4155
 4295TIP3    H234377   1.526   3.088   4.190 -0.8071 -0.8157 -1.7922
 4296TIP3   OH234378   2.086   2.519   5.737  0.4028 -0.1378 -0.2029
 4296TIP3    H134379   2.178   2.493   5.732  0.3993 -0.1093 -0.4545
 4296TIP3    H234380   2.061   2.503   5.828  0.3473 -1.1869 -0.3984
 4297TIP3   OH234381   6.736   5.949  10.851 -0.3489 -0.1884  0.4429
 4297TIP3    H134382   6.709   5.860  10.829 -1.2425  0.3206 -0.5916
 4297TIP3    H234383   6.657   5.991  10.885 -0.0815  0.3732  0.3900
 4298TIP3   OH234384   4.067   5.524   3.984 -0.6608  0.4688  0.4662
 4298TIP3    H134385   4.008   5.449   3.973  0.4561 -0.1842 -1.6928
 4298TIP3    H234386   4.155   5.487   3.972  0.0030  1.8942  0.7844
 4299TIP3   OH234387   3.378   6.540  14.703 -0.1290  0.0981 -0.2423
 4299TIP3    H134388   3.396   6.619  14.754  0.2996 -0.3209  0.2630
 4299TIP3    H234389   3.319   6.489  14.758 -4.3485  2.1147 -2.4616
 4300TIP3   OH234390   0.929   6.213  15.134  0.3100  0.3055  0.6215
 4300TIP3    H134391   0.846   6.211  15.183  0.7157  0.0465  1.3100
 4300TIP3    H234392   0.902   6.213  15.042 -0.4743  1.0458  0.8360
 4301TIP3   OH234393   6.151   3.367   4.316  0.2531  0.3614 -0.4077
 4301TIP3    H134394   6.154   3.444   4.259 -3.3821  0.3545 -0.8163
 4301TIP3    H234395   6.143   3.293   4.256 -1.4934  0.1801 -0.0043
 4302TIP3   OH234396   0.669   5.774   3.065  0.2271 -0.2187 -0.4120
 4302TIP3    H134397   0.699   5.698   3.115 -0.4202 -0.5162 -0.4639
 4302TIP3    H234398   0.607   5.738   3.002  0.6386  0.2306 -1.0770
 4303TIP3   OH234399   5.557   3.271   4.289 -0.2464 -0.1684  0.1112
 4303TIP3    H134400   5.621   3.259   4.220 -1.1633  0.5422 -0.8915
 4303TIP3    H234401   5.597   3.231   4.366  0.8584 -0.8342 -0.7825
 4304TIP3   OH234402   2.781   1.486   1.570  0.5743 -0.3173  0.0474
 4304TIP3    H134403   2.824   1.564   1.536  0.5128 -0.6888 -0.9040
 4304TIP3    H234404   2.805   1.485   1.663  2.1645 -0.2003 -0.3246
 4305TIP3   OH234405   3.628   0.431  16.319  0.3888  0.6905 -0.3045
 4305TIP3    H134406   3.622   0.517  16.278  1.5344  1.1896  0.5175
 4305TIP3    H234407   3.709   0.434  16.370  0.9087 -1.1756 -0.9275
 4306TIP3   OH234408   5.878   2.124  12.518 -0.5868 -0.0683 -0.4738
 4306TIP3    H134409   5.808   2.078  12.472 -1.9620  0.2846  1.1928
 4306TIP3    H234410   5.872   2.215  12.487 -1.1242  0.0427 -0.0510
 4307TIP3   OH234411   6.603   3.927  12.475 -0.3437 -0.0174  0.5746
 4307TIP3    H134412   6.602   3.882  12.391 -2.0507 -1.8805  1.5047
 4307TIP3    H234413   6.632   3.861  12.538 -0.8378  0.7828  1.6926
 4308TIP3   OH234414   4.825   6.505   0.781 -0.5592  0.5720  0.2526
 4308TIP3    H134415   4.774   6.572   0.826 -2.0849 -1.8168  2.3543
 4308TIP3    H234416   4.777   6.491   0.699 -1.4668  0.6056  0.7548
 4309TIP3   OH234417   0.339   5.688   3.469 -0.5205  0.3831 -0.4070
 4309TIP3    H134418   0.308   5.763   3.520 -0.8647  0.4424 -0.7002
 4309TIP3    H234419   0.279   5.617   3.491 -1.2595  0.6610 -1.4429
 4310TIP3   OH234420   5.944   2.864   4.974  0.3935 -0.1596  0.5301
 4310TIP3    H134421   5.901   2.949   4.985 -0.2599 -0.5318  0.9293
 4310TIP3    H234422   6.021   2.868   5.029 -0.1884 -0.1975  1.3579
 4311TIP3   OH234423   0.023   2.781   4.709  0.4227 -0.2303 -0.2174
 4311TIP3    H134424   0.057   2.754   4.794  0.1712 -0.6690 -0.2535
 4311TIP3    H234425  -0.071   2.794   4.723  0.4684  0.1941 -0.3071
 4312TIP3   OH234426   0.653   0.698  14.764  0.1676 -0.1927  0.2195
 4312TIP3    H134427   0.696   0.748  14.695 -0.7241 -1.0007 -0.9429
 4312TIP3    H234428   0.560   0.720  14.756 -0.3130 -2.2924 -0.6014
 4313TIP3   OH234429   0.498   6.444  16.288  0.0513  0.0959  0.0947
 4313TIP3    H134430   0.561   6.372  16.294 -1.2610 -1.0278  0.9542
 4313TIP3    H234431   0.540   6.507  16.230  2.2183 -0.3226  1.1146
 4314TIP3   OH234432   1.137   0.743  13.765  0.3271  0.0424 -0.3131
 4314TIP3    H134433   1.189   0.823  13.752  0.7132 -0.5366 -3.0454
 4314TIP3    H234434   1.196   0.673  13.738  0.0513 -1.2623  2.2083
 4315TIP3   OH234435   2.606   6.614  16.230 -0.3408  0.2621 -0.2931
 4315TIP3    H134436   2.619   6.670  16.154  0.2178  1.5972  0.7538
 4315TIP3    H234437   2.621   6.671  16.306 -1.5695 -0.8459  0.8474
 4316TIP3   OH234438   1.331   0.295   3.246 -0.2322 -0.3436 -0.1480
 4316TIP3    H134439   1.414   0.266   3.282 -0.0056 -0.5845 -0.8479
 4316TIP3    H234440   1.286   0.336   3.320  0.4415 -0.3403  0.2719
 4317TIP3   OH234441   6.270   4.867   5.941  0.2647 -0.7598  0.2522
 4317TIP3    H134442   6.366   4.866   5.935  0.3347 -0.5647  1.1821
 4317TIP3    H234443   6.244   4.777   5.922  0.7274 -1.1044  1.1594
 4318TIP3   OH234444   4.951   3.396  13.222 -1.0820  0.3149  0.0016
 4318TIP3    H134445   4.966   3.423  13.131  0.4513 -1.2809 -0.2903
 4318TIP3    H234446   5.031   3.421  13.268 -0.7408 -1.1986  0.2914
 4319TIP3   OH234447   0.362   1.253  16.302 -0.1934 -0.3372  0.1773
 4319TIP3    H134448   0.444   1.287  16.266  0.4848 -0.9622  1.0824
 4319TIP3    H234449   0.295   1.315  16.272  0.4901 -0.2230 -1.1912
 4320TIP3   OH234450   5.582   5.976   5.303 -0.4094 -0.0708  0.0390
 4320TIP3    H134451   5.519   6.044   5.278  0.9815  1.1856 -0.2060
 4320TIP3    H234452   5.640   6.019   5.366 -0.0239 -1.3111  0.5542
 4321TIP3   OH234453   1.375   5.944   2.948 -0.4018  0.4227 -0.5074
 4321TIP3    H134454   1.466   5.924   2.925 -0.6728  0.0057 -1.2447
 4321TIP3    H234455   1.368   6.039   2.941  0.1637  0.5321  0.2665
 4322TIP3   OH234456   3.529   6.318  15.118  0.1707 -0.2162  0.0291
 4322TIP3    H134457   3.443   6.349  15.145  0.1278  0.4753 -0.8604
 4322TIP3    H234458   3.590   6.378  15.160  0.3834 -2.0759  2.5655
 4323TIP3   OH234459   3.814   2.311   4.007 -0.2941 -0.9955  0.0002
 4323TIP3    H134460   3.782   2.307   4.097 -0.6711  0.6353 -0.0353
 4323TIP3    H234461   3.900   2.354   4.015  0.2045 -1.8973 -0.3163
 4324TIP3   OH234462   0.518   0.881   5.053 -0.1950 -0.1033 -0.0614
 4324TIP3    H134463   0.613   0.868   5.046  0.3830  1.4619  3.2548
 4324TIP3    H234464   0.493   0.916   4.967  2.3158  0.0200 -0.8400
 4325TIP3   OH234465   2.581   3.232  11.538  0.0133  0.6376  0.3682
 4325TIP3    H134466   2.485   3.228  11.542  0.0318 -0.5290  0.1942
 4325TIP3    H234467   2.601   3.250  11.447 -0.0398  0.5897  0.3467
 4326TIP3   OH234468   4.617   5.316  12.115  0.4372 -0.7227 -0.8334
 4326TIP3    H134469   4.658   5.390  12.071  1.9278 -1.7914 -1.3174
 4326TIP3    H234470   4.685   5.249  12.120 -0.0428 -1.1445  1.9664
 4327TIP3   OH234471   0.611   2.366   2.860 -0.1654 -0.0818 -0.5518
 4327TIP3    H134472   0.549   2.293   2.863  0.3748 -0.5425 -0.3029
 4327TIP3    H234473   0.662   2.351   2.781  0.0694 -0.0830 -0.4017
 4328TIP3   OH234474   4.484   2.640   1.913 -0.3335 -0.6941  0.3658
 4328TIP3    H134475   4.538   2.630   1.834  1.7821  0.9525  1.4995
 4328TIP3    H234476   4.539   2.607   1.984 -1.5565 -0.6379  1.3657
 4329TIP3   OH234477   5.190   1.869   4.775  0.0182 -0.2256  0.3122
 4329TIP3    H134478   5.187   1.828   4.689 -0.2402 -1.6198  0.9561
 4329TIP3    H234479   5.228   1.802   4.832  1.7565  1.2413  1.0011
 4330TIP3   OH234480   5.123   2.978  17.211  0.3085 -0.2006  0.3296
 4330TIP3    H134481   5.156   2.983  17.300  0.5801 -1.2247  0.2953
 4330TIP3    H234482   5.201   2.985  17.156  0.3170 -1.1593  0.2125
 4331TIP3   OH234483   0.658   3.163   5.271  0.4582  1.0572 -0.2856
 4331TIP3    H134484   0.670   3.253   5.240  0.0301 -0.0073 -3.9881
 4331TIP3    H234485   0.744   3.123   5.265 -0.0540  0.1693 -2.7395
 4332TIP3   OH234486   0.158   0.244   0.781  0.9513  0.3936  0.7889
 4332TIP3    H134487   0.244   0.266   0.817  0.0948  0.8563  2.6467
 4332TIP3    H234488   0.100   0.243   0.856 -0.3440 -1.7610 -0.1681
 4333TIP3   OH234489   2.916   4.344  12.063  0.3307  0.2023  0.0124
 4333TIP3    H134490   2.903   4.273  12.000 -0.8613  0.7587 -0.3878
 4333TIP3    H234491   2.962   4.302  12.136 -1.8370 -1.4395  0.5529
 4334TIP3   OH234492   0.277   1.926  11.651  0.4067 -0.0954  0.1119
 4334TIP3    H134493   0.301   1.931  11.559  3.2348 -0.4587  0.7204
 4334TIP3    H234494   0.303   1.838  11.678 -3.1528 -1.1233  0.6527
 4335TIP3   OH234495   2.907   3.813  14.567  0.7389 -0.1864  0.4533
 4335TIP3    H134496   2.853   3.892  14.557  2.6861  1.2459  0.6856
 4335TIP3    H234497   2.913   3.800  14.662  0.3473 -0.7112  0.4149
 4336TIP3   OH234498   1.167   2.477  16.110 -0.0158 -0.3877  0.1351
 4336TIP3    H134499   1.234   2.445  16.170  0.0633  0.3114  0.4348
 4336TIP3    H234500   1.088   2.429  16.134 -0.1043  0.2348  1.1467
 4337TIP3   OH234501   5.976   1.794  15.936  0.2628  0.5734  0.1213
 4337TIP3    H134502   6.052   1.736  15.932  0.2366  0.5218  0.3608
 4337TIP3    H234503   5.973   1.823  16.027 -1.4907 -1.3790  0.7591
 4338TIP3   OH234504   3.844   3.313  13.707  0.9015  0.7087  0.3281
 4338TIP3    H134505   3.842   3.244  13.640  2.1852  0.8007  0.1666
 4338TIP3    H234506   3.885   3.272  13.783 -2.9876 -0.2370  2.1301
 4339TIP3   OH234507   6.343   0.328  17.030 -0.1711 -0.7304  0.5283
 4339TIP3    H134508   6.418   0.361  16.980  0.2311 -0.3053  1.4041
 4339TIP3    H234509   6.337   0.236  17.006 -0.9815 -0.2057 -1.5455
 4340TIP3   OH234510   5.894   2.625   5.730  0.2116  0.0983 -0.4781
 4340TIP3    H134511   5.827   2.557   5.722  1.8275 -1.7276  0.4627
 4340TIP3    H234512   5.916   2.647   5.639 -1.7896  0.9211 -0.7955
 4341TIP3   OH234513   1.586   1.062   5.995  0.5618 -0.1267  0.3813
 4341TIP3    H134514   1.555   1.142   6.037 -0.3511 -0.3482  0.1642
 4341TIP3    H234515   1.535   0.992   6.037 -1.6165 -0.2235 -2.1344
 4342TIP3   OH234516   5.101   5.583  14.912 -0.2770  0.9474  0.0478
 4342TIP3    H134517   5.067   5.672  14.924  1.5208  1.7594 -0.5621
 4342TIP3    H234518   5.113   5.550  15.001  0.4502  1.8904  0.3079
 4343TIP3   OH234519   6.462   2.119   1.815  0.8183 -0.2530 -0.5293
 4343TIP3    H134520   6.513   2.196   1.836 -0.1892  0.3300 -0.1491
 4343TIP3    H234521   6.372   2.143   1.835  0.7326 -2.5006  2.5031
 4344TIP3   OH234522   0.477   2.542  14.978  0.0653  0.2024  0.1121
 4344TIP3    H134523   0.392   2.573  15.007  1.0888  0.8714  2.6098
 4344TIP3    H234524   0.503   2.476  15.042  1.8574  0.7649  0.0422
 4345TIP3   OH234525   2.583   5.551  10.742  0.3751  0.2432  0.0976
 4345TIP3    H134526   2.553   5.501  10.665 -1.4718  0.8540  0.3676
 4345TIP3    H234527   2.663   5.594  10.712  0.4974 -0.6928 -1.0129
 4346TIP3   OH234528   1.531   5.682  10.719  0.0819 -0.4231  0.5067
 4346TIP3    H134529   1.593   5.753  10.736  1.0273 -1.2145  0.4476
 4346TIP3    H234530   1.510   5.691  10.626  0.2999 -0.3095  0.4671
 4347TIP3   OH234531   3.714   2.693  14.560 -0.5370  0.4463  0.1910
 4347TIP3    H134532   3.793   2.747  14.560 -0.2462  0.0321 -0.3225
 4347TIP3    H234533   3.696   2.676  14.467  0.6454 -2.1401  0.3397
 4348TIP3   OH234534   2.031   1.337   4.414  0.0597 -0.6338 -0.5799
 4348TIP3    H134535   1.942   1.373   4.419  0.4928  0.9233 -2.5902
 4348TIP3    H234536   2.063   1.364   4.327  2.4396 -1.2758  0.0160
 4349TIP3   OH234537   5.975   0.343  13.373 -0.1604  0.0189 -0.0203
 4349TIP3    H134538   5.974   0.325  13.467 -0.4567 -1.0244 -0.2110
 4349TIP3    H234539   5.890   0.311  13.342  0.7274 -1.5842 -0.9634
 4350TIP3   OH234540   6.198   5.625  13.854 -0.6554 -0.2001  0.3700
 4350TIP3    H134541   6.266   5.633  13.920  0.9049 -0.2764 -1.1445
 4350TIP3    H234542   6.211   5.701  13.796 -0.7047 -1.1342 -0.9219
 4351TIP3   OH234543   5.503   5.922  15.580 -0.4801 -0.4422 -0.0205
 4351TIP3    H134544   5.459   5.877  15.507  0.5928 -2.7422  0.6554
 4351TIP3    H234545   5.487   5.866  15.656 -1.9772  2.1409  1.6967
 4352TIP3   OH234546   6.546   6.706  12.661 -0.7280  0.3159  0.2067
 4352TIP3    H134547   6.624   6.740  12.705 -1.1755  1.0354  0.4531
 4352TIP3    H234548   6.472   6.750  12.704 -1.2496 -0.0536 -0.2918
 4353TIP3   OH234549   4.494   3.285  12.105  0.1300 -0.4101  0.4744
 4353TIP3    H134550   4.435   3.336  12.049 -0.5853 -1.6362  0.0489
 4353TIP3    H234551   4.501   3.335  12.186  0.4156  0.9297 -0.3579
 4354TIP3   OH234552   6.664   0.197   4.901  0.0927 -0.0701 -0.0557
 4354TIP3    H134553   6.669   0.283   4.943  0.8539  0.7319 -1.7196
 4354TIP3    H234554   6.755   0.169   4.892 -0.1562 -1.2373  0.7759
 4355TIP3   OH234555   2.522   5.082   3.600 -0.2007  0.3054  0.5660
 4355TIP3    H134556   2.496   5.173   3.618  0.4941  0.3129  1.5801
 4355TIP3    H234557   2.617   5.082   3.607 -0.2619 -0.7139  1.6053
 4356TIP3   OH234558   0.259   6.728   2.883 -0.4810 -0.0369  0.5602
 4356TIP3    H134559   0.182   6.681   2.916 -1.0149 -0.1052 -0.7143
 4356TIP3    H234560   0.236   6.820   2.892 -1.2640 -0.0558 -0.9841
 4357TIP3   OH234561   2.986   0.016  11.763  0.1060  0.2746 -0.3294
 4357TIP3    H134562   3.069   0.063  11.770  0.7605 -0.9665  0.6973
 4357TIP3    H234563   2.960   0.027  11.671  0.5438  2.0539 -0.2782
 4358TIP3   OH234564   4.196   0.339  17.212 -0.3253 -0.4924  0.2306
 4358TIP3    H134565   4.220   0.381  17.129  1.1296  0.7283  1.2261
 4358TIP3    H234566   4.194   0.411  17.275  0.6963 -1.7075  1.6889
 4359TIP3   OH234567   2.266   0.404   4.517  0.0954 -0.1101  0.3189
 4359TIP3    H134568   2.171   0.403   4.524  0.1055  0.1637  0.4897
 4359TIP3    H234569   2.294   0.320   4.555  0.0087  0.3958  1.5375
 4360TIP3   OH234570   2.509   5.675  16.137  0.2993  0.1125  0.2345
 4360TIP3    H134571   2.549   5.619  16.070 -0.0216  0.2118 -0.0422
 4360TIP3    H234572   2.458   5.615  16.192  2.3939 -0.3365  1.8271
 4361TIP3   OH234573   4.321   2.332   2.163 -0.5311  0.1636 -0.3140
 4361TIP3    H134574   4.369   2.254   2.190  0.0544  0.0777 -1.5672
 4361TIP3    H234575   4.233   2.301   2.142  0.1456 -0.4835 -2.4026
 4362TIP3   OH234576   3.219   1.157  16.425 -0.4714  0.1379  0.4143
 4362TIP3    H134577   3.149   1.093  16.410 -1.6284  0.9306  2.1468
 4362TIP3    H234578   3.175   1.242  16.422  0.2297  0.6151  2.2751
 4363TIP3   OH234579   2.715   0.692  14.164  0.4475  0.6213 -0.2490
 4363TIP3    H134580   2.666   0.772  14.146  1.1887  0.8619 -1.2765
 4363TIP3    H234581   2.696   0.634  14.090  2.7072  1.2181 -1.3894
 4364TIP3   OH234582   5.093   1.431   1.873 -0.0573  0.1041  0.0241
 4364TIP3    H134583   5.099   1.442   1.778  0.7517  0.0036  0.0566
 4364TIP3    H234584   5.183   1.414   1.901 -0.1483  1.0720  0.9353
 4365TIP3   OH234585   3.063   4.867  12.156 -0.3519  1.1351 -0.3620
 4365TIP3    H134586   3.152   4.897  12.175 -0.4336  1.0637  0.1494
 4365TIP3    H234587   3.066   4.773  12.173 -0.6330  1.2030  0.0534
 4366TIP3   OH234588   6.688   3.690   1.241  0.1704 -0.2265  0.1572
 4366TIP3    H134589   6.778   3.721   1.226  1.2608 -3.2168 -0.2776
 4366TIP3    H234590   6.667   3.640   1.162 -1.6791 -0.0334  0.4909
 4367TIP3   OH234591   3.277   0.770  13.092  0.0969 -0.3762 -0.2336
 4367TIP3    H134592   3.252   0.699  13.151  1.2409 -0.2349  0.4491
 4367TIP3    H234593   3.217   0.842  13.114  0.6682 -0.2408  0.9418
 4368TIP3   OH234594   4.366   0.534  16.324 -0.3644  0.6324 -0.5360
 4368TIP3    H134595   4.349   0.606  16.385 -2.3660  0.9989 -1.4204
 4368TIP3    H234596   4.446   0.560  16.278  0.5699  0.8491  1.1519
 4369TIP3   OH234597   0.860   0.635   5.537  0.5094  0.1041  0.1815
 4369TIP3    H134598   0.858   0.566   5.470 -0.2288  0.0542  0.2375
 4369TIP3    H234599   0.953   0.653   5.551  0.7582 -1.3237  0.6112
 4370TIP3   OH234600   2.289   2.893  10.688 -0.1344  1.2232 -0.1040
 4370TIP3    H134601   2.344   2.971  10.697 -0.5211  1.3508  1.4644
 4370TIP3    H234602   2.351   2.821  10.680  0.2309  1.6693 -1.7657
 4371TIP3   OH234603   4.859   0.864   2.115 -0.2981 -0.1350  0.0498
 4371TIP3    H134604   4.780   0.812   2.102  0.0806 -1.1089  1.4184
 4371TIP3    H234605   4.915   0.842   2.041 -0.8192 -0.3657 -0.2818
 4372TIP3   OH234606   2.195   3.488   2.479 -0.0226 -0.1076 -0.1130
 4372TIP3    H134607   2.156   3.426   2.418  1.2087 -0.8494 -0.1709
 4372TIP3    H234608   2.283   3.504   2.445  0.3760  0.1380  0.9908
 4373TIP3   OH234609   0.824   2.209   2.059  0.0169 -0.1324  0.0024
 4373TIP3    H134610   0.770   2.262   2.001  1.0038  1.1943  0.2502
 4373TIP3    H234611   0.781   2.123   2.061 -1.1925  0.4291 -1.0066
 4374TIP3   OH234612   3.559   0.662  14.645  0.2271  0.4278  0.2251
 4374TIP3    H134613   3.631   0.665  14.709  1.2154 -1.2097 -0.7342
 4374TIP3    H234614   3.600   0.684  14.561 -0.1194 -1.5106 -0.5078
 4375TIP3   OH234615   2.411   3.601   2.350  0.3866  0.3016 -0.0057
 4375TIP3    H134616   2.362   3.576   2.272  1.2934 -2.5809  0.2095
 4375TIP3    H234617   2.502   3.605   2.321  0.4886  1.6276  0.4310
 4376TIP3   OH234618   3.295   2.626  17.150  0.3143 -0.3621 -0.0664
 4376TIP3    H134619   3.270   2.538  17.177  0.0649  0.6033  3.3802
 4376TIP3    H234620   3.390   2.623  17.142  0.2594 -1.0443 -0.4866
 4377TIP3   OH234621   5.726   3.500  16.639 -0.0630  0.3737 -0.2181
 4377TIP3    H134622   5.711   3.519  16.731  0.0551  0.7392 -0.2713
 4377TIP3    H234623   5.812   3.460  16.636  0.0638  0.6434 -0.2022
 4378TIP3   OH234624   3.110   2.753   2.076 -0.1084  0.4887  0.0534
 4378TIP3    H134625   3.066   2.724   2.156  2.7517  0.4103  1.7783
 4378TIP3    H234626   3.040   2.766   2.012 -2.1961 -3.4890  1.2247
 4379TIP3   OH234627   6.490   2.433  13.071 -0.2846 -0.1954 -0.1195
 4379TIP3    H134628   6.544   2.356  13.054  0.4475  0.4819 -0.9469
 4379TIP3    H234629   6.426   2.433  13.000  0.6534  0.7578 -1.0074
 4380TIP3   OH234630   2.497   1.922   4.890  0.4056 -0.4901  0.4367
 4380TIP3    H134631   2.512   1.915   4.984  2.3494  1.1419  0.3113
 4380TIP3    H234632   2.508   2.015   4.871 -0.9287 -0.6331 -1.2751
 4381TIP3   OH234633   1.524   2.131   2.058 -0.1783  0.3453  0.3753
 4381TIP3    H134634   1.469   2.058   2.028  0.8313  0.0939 -0.9831
 4381TIP3    H234635   1.528   2.190   1.983  0.6292  0.8083  0.7707
 4382TIP3   OH234636   0.004   5.108  14.170  0.6157  0.5208 -0.0982
 4382TIP3    H134637  -0.026   5.199  14.168  0.4171  0.4616  0.0902
 4382TIP3    H234638  -0.075   5.056  14.152  0.0060  0.2438  2.8063
 4383TIP3   OH234639   0.054   0.518   0.819 -0.3482 -0.4029  0.6876
 4383TIP3    H134640   0.136   0.503   0.773 -0.0736 -0.8699  1.3205
 4383TIP3    H234641   0.046   0.444   0.879 -0.0283  0.8673  2.3663
 4384TIP3   OH234642   2.534   1.007   5.356  0.0106  0.2865  0.5298
 4384TIP3    H134643   2.462   0.956   5.393 -0.3392  1.7599  1.9919
 4384TIP3    H234644   2.579   1.044   5.431  0.8031  1.3821 -0.4434
 4385TIP3   OH234645   6.245   0.516   1.947  0.0441 -0.1657 -0.1689
 4385TIP3    H134646   6.338   0.517   1.924 -0.0300 -0.1193 -0.4664
 4385TIP3    H234647   6.206   0.586   1.894 -0.1909 -0.2937 -0.1659
 4386TIP3   OH234648   0.470   1.487   5.036 -0.0773  0.5782  0.3262
 4386TIP3    H134649   0.456   1.403   5.080 -0.0426  0.7049  0.5817
 4386TIP3    H234650   0.394   1.497   4.978  1.0946 -0.8019 -1.5975
 4387TIP3   OH234651   4.291   6.763   0.020 -0.1333 -0.0733 -0.0669
 4387TIP3    H134652   4.268   6.672   0.034  1.3455 -0.3261  0.9107
 4387TIP3    H234653   4.211   6.812   0.041 -0.6714 -1.0790  0.2773
 4388TIP3   OH234654   5.163   5.102  13.493  0.0599  0.2136  0.7131
 4388TIP3    H134655   5.114   5.095  13.576 -0.5550  1.5015  0.4893
 4388TIP3    H234656   5.176   5.196  13.482  1.5411 -0.0403  0.1321
 4389TIP3   OH234657   6.099   0.712  15.645 -0.2068  0.0849  0.5328
 4389TIP3    H134658   6.013   0.753  15.657 -0.7786 -0.6251 -0.8833
 4389TIP3    H234659   6.105   0.647  15.714 -1.2016 -0.4639  0.1189
 4390TIP3   OH234660   6.742   2.341   0.506  0.2958 -0.6338  0.0947
 4390TIP3    H134661   6.647   2.351   0.512  0.3678  0.0229  0.2241
 4390TIP3    H234662   6.770   2.316   0.594  0.4736  1.3495  0.6656
 4391TIP3   OH234663   0.206   4.944   3.018 -0.3322  0.1890  0.5213
 4391TIP3    H134664   0.241   4.988   2.940 -0.8524 -0.8680 -0.3403
 4391TIP3    H234665   0.156   5.012   3.063 -0.7444  0.6099 -0.5336
 4392TIP3   OH234666   5.584   0.985   4.832  0.0620 -0.0024  0.1115
 4392TIP3    H134667   5.605   0.935   4.911  1.3905  0.5319  0.1283
 4392TIP3    H234668   5.591   0.921   4.761  0.5167 -0.1224  0.2603
 4393TIP3   OH234669   1.198   1.295  13.881 -0.2887 -0.1105 -0.6957
 4393TIP3    H134670   1.243   1.224  13.835  0.0718  0.3050 -0.9933
 4393TIP3    H234671   1.267   1.358  13.901 -0.5444 -0.0160 -0.0998
 4394TIP3   OH234672   4.357   4.480  12.249 -0.1860  0.3317  0.0353
 4394TIP3    H134673   4.368   4.393  12.288 -1.8678  1.0366  2.3085
 4394TIP3    H234674   4.335   4.463  12.158  2.3168 -1.4770 -0.3534
 4395TIP3   OH234675   5.647   5.771  10.307 -0.2914 -0.3408  0.5241
 4395TIP3    H134676   5.732   5.801  10.339 -0.3393 -2.9441  3.5293
 4395TIP3    H234677   5.667   5.724  10.226  0.8709  0.4039  0.3542
 4396TIP3   OH234678   4.844   5.165  15.175 -0.5036  0.0459  0.7126
 4396TIP3    H134679   4.780   5.179  15.105  0.2405  0.7149  0.1497
 4396TIP3    H234680   4.814   5.222  15.246 -0.5863  0.3004  0.4771
 4397TIP3   OH234681   2.379   6.145  13.800  0.0642  0.2653 -0.7682
 4397TIP3    H134682   2.457   6.121  13.750  0.6666  2.4592 -0.9649
 4397TIP3    H234683   2.312   6.161  13.734 -1.1942 -3.2780 -0.5651
 4398TIP3   OH234684   1.404   0.339   2.991  0.4107 -0.4290  0.0571
 4398TIP3    H134685   1.459   0.266   2.962 -0.6240 -0.5998 -1.6303
 4398TIP3    H234686   1.368   0.310   3.075  1.2046 -1.2059  0.1418
 4399TIP3   OH234687   2.381   4.764   5.337  0.0296  0.0481  0.3417
 4399TIP3    H134688   2.407   4.815   5.414  3.3366 -0.1672 -0.4870
 4399TIP3    H234689   2.397   4.823   5.263  0.1477 -0.8836 -0.3861
 4400TIP3   OH234690   1.249   1.562   2.272 -0.1735  0.2693  0.0119
 4400TIP3    H134691   1.194   1.492   2.305 -1.6803  1.1176 -0.6231
 4400TIP3    H234692   1.334   1.549   2.315 -1.3521 -0.0371  2.3735
 4401TIP3   OH234693   4.274   5.151   0.127  0.0568 -0.1770 -0.1777
 4401TIP3    H134694   4.217   5.213   0.172 -0.2397 -1.9128  1.9442
 4401TIP3    H234695   4.270   5.178   0.035 -1.8911  1.5012  0.3295
 4402TIP3   OH234696   2.362   3.940   3.568  0.1266 -0.6864  0.2363
 4402TIP3    H134697   2.453   3.936   3.535 -0.3102 -1.1155 -0.9962
 4402TIP3    H234698   2.363   3.887   3.647  1.1235 -0.0372  0.6771
 4403TIP3   OH234699   2.899   5.695   0.246 -0.2756  0.3095 -0.3544
 4403TIP3    H134700   2.928   5.720   0.333  0.4027  0.5355 -0.6380
 4403TIP3    H234701   2.941   5.611   0.230  0.5896  0.8384 -0.9363
 4404TIP3   OH234702   5.175   5.704  14.274 -0.3341  0.1111 -0.9062
 4404TIP3    H134703   5.133   5.657  14.346  0.5310  0.9285  0.1623
 4404TIP3    H234704   5.240   5.642  14.240  2.2285  1.0704  1.7961
 4405TIP3   OH234705   4.288   2.654  11.699 -0.3531 -0.4513  0.3701
 4405TIP3    H134706   4.371   2.701  11.703 -0.6013  0.0150  0.1940
 4405TIP3    H234707   4.305   2.571  11.744  0.4376 -0.7304 -0.4123
 4406TIP3   OH234708   0.319   6.569   4.006 -0.0930 -0.1801 -0.1903
 4406TIP3    H134709   0.286   6.595   4.092  3.5701 -0.7496  1.5964
 4406TIP3    H234710   0.375   6.642   3.979  0.5968 -0.9829 -0.9819
 4407TIP3   OH234711   1.551   4.529  13.416  0.1422 -0.0426 -0.0208
 4407TIP3    H134712   1.514   4.589  13.351 -1.8381 -2.0834 -0.8965
 4407TIP3    H234713   1.643   4.519  13.389 -0.2545  0.2980 -1.6400
 4408TIP3   OH234714   4.750   0.190  17.343  0.2812 -0.2602  0.0893
 4408TIP3    H134715   4.684   0.256  17.319  1.3495  0.1017 -2.0789
 4408TIP3    H234716   4.829   0.241  17.362 -0.0146 -0.6756  2.8671
 4409TIP3   OH234717   3.310   4.961  13.003  0.6358 -0.0633 -0.3161
 4409TIP3    H134718   3.341   4.871  13.015 -0.3377 -0.1554  2.0652
 4409TIP3    H234719   3.370   5.014  13.056  1.8395  0.9010 -2.5161
 4410TIP3   OH234720   1.283   5.066  12.459  0.0512 -0.4400  0.0437
 4410TIP3    H134721   1.225   4.995  12.486  0.7349 -1.3613 -0.8105
 4410TIP3    H234722   1.266   5.077  12.365 -0.7684  1.2395  0.3538
 4411TIP3   OH234723   3.685   0.306  13.653 -0.3279 -0.0340  0.2205
 4411TIP3    H134724   3.701   0.307  13.559 -0.1766 -1.5261  0.2081
 4411TIP3    H234725   3.685   0.213  13.677  1.0352  0.3364  1.9228
 4412TIP3   OH234726   0.655   6.272   5.248  0.1854 -0.0752 -0.1372
 4412TIP3    H134727   0.626   6.182   5.232  1.5833 -0.4175 -0.9243
 4412TIP3    H234728   0.740   6.278   5.204 -0.0435  1.7445 -0.3941
 4413TIP3   OH234729   4.722   1.171   4.844  0.0600  0.0816 -0.1760
 4413TIP3    H134730   4.725   1.094   4.900 -2.2394  1.0224  1.3752
 4413TIP3    H234731   4.807   1.214   4.857  0.3943 -0.8613  0.8852
 4414TIP3   OH234732   4.122   5.018   1.167 -0.5440  0.1214  0.4088
 4414TIP3    H134733   4.094   4.931   1.196 -1.8922  0.3189 -0.1782
 4414TIP3    H234734   4.182   5.048   1.234 -1.5966 -0.4696  1.6559
 4415TIP3   OH234735   4.421   5.004  13.054 -0.1841  0.0371 -0.2552
 4415TIP3    H134736   4.377   4.949  13.119 -0.5414 -0.1916 -0.6839
 4415TIP3    H234737   4.401   5.093  13.081 -0.1470 -0.0514  0.0732
 4416TIP3   OH234738   2.204   1.236  16.313 -0.0968 -0.3237  0.5497
 4416TIP3    H134739   2.152   1.234  16.393 -2.1140 -1.7828 -0.6845
 4416TIP3    H234740   2.156   1.296  16.255  0.3736 -0.5877 -0.1250
 4417TIP3   OH234741   6.154   6.100   3.192  0.0346 -0.0711  0.3613
 4417TIP3    H134742   6.133   6.006   3.189 -1.6233  0.2679 -1.7154
 4417TIP3    H234743   6.218   6.112   3.122 -0.4574  0.4572 -0.0076
 4418TIP3   OH234744   6.012   1.036  12.376  0.3607  0.3817  0.0680
 4418TIP3    H134745   5.990   0.986  12.298 -0.9442  0.8857  0.0705
 4418TIP3    H234746   6.075   1.101  12.346  0.2775  0.2275 -0.4552
 4419TIP3   OH234747   4.678   4.876   5.133 -0.2823  0.1314 -0.3679
 4419TIP3    H134748   4.648   4.790   5.104 -1.0069  0.0564  0.5670
 4419TIP3    H234749   4.631   4.938   5.078  0.6315 -0.0678 -1.4005
 4420TIP3   OH234750   1.556   5.050   3.170 -0.1924  0.1447  0.1612
 4420TIP3    H134751   1.539   5.047   3.264 -0.8546 -0.3406  0.0299
 4420TIP3    H234752   1.527   4.965   3.137 -0.4157  0.4852 -0.5533
 4421TIP3   OH234753   2.732   3.833   4.702  0.0367  0.0450 -0.2207
 4421TIP3    H134754   2.760   3.742   4.710  1.3029  0.3666 -0.7022
 4421TIP3    H234755   2.735   3.868   4.791 -1.0797 -0.5379  0.0630
 4422TIP3   OH234756   6.646   2.011   3.754  0.2969 -0.0801 -0.3836
 4422TIP3    H134757   6.645   1.933   3.698 -0.6312 -0.2657 -0.1265
 4422TIP3    H234758   6.736   2.017   3.786  0.8949  0.1075 -2.0039
 4423TIP3   OH234759   2.714   5.971  15.529 -0.7578 -0.6728  0.9220
 4423TIP3    H134760   2.777   5.967  15.457  1.0786  1.7874  2.2553
 4423TIP3    H234761   2.628   5.975  15.485  0.3356  1.9473 -1.2656
 4424TIP3   OH234762   2.078   5.565  15.844 -0.0634 -0.3391  0.0881
 4424TIP3    H134763   2.159   5.614  15.830 -0.3408 -0.0008 -0.3918
 4424TIP3    H234764   2.010   5.621  15.806 -0.4236 -0.9710 -0.2132
 4425TIP3   OH234765   0.089   5.894  14.362  0.3140 -0.5396  0.2512
 4425TIP3    H134766   0.178   5.863  14.346 -0.4432 -2.2797 -0.8845
 4425TIP3    H234767   0.052   5.828  14.421 -0.4231 -0.1585  0.2155
 4426TIP3   OH234768   2.556   2.849   3.696 -0.4560 -0.0336 -0.3189
 4426TIP3    H134769   2.548   2.855   3.601  1.8423  0.0360 -0.5711
 4426TIP3    H234770   2.520   2.763   3.718  0.6817 -0.8763 -1.5427
 4427TIP3   OH234771   3.053   4.390   2.018  0.0404 -0.6088  0.7681
 4427TIP3    H134772   2.973   4.370   1.969 -0.4344 -1.9202  2.0086
 4427TIP3    H234773   3.122   4.387   1.952 -0.7774 -0.6707 -0.1109
 4428TIP3   OH234774   4.185   1.504  14.979  0.0046  0.4615  0.0093
 4428TIP3    H134775   4.096   1.498  15.013 -1.2819 -0.5338 -3.1285
 4428TIP3    H234776   4.214   1.414  14.969  1.0450  0.7608  0.2033
 4429TIP3   OH234777   3.061   2.375  14.966  0.2886 -0.2376  0.4703
 4429TIP3    H134778   3.125   2.342  15.029  0.2020  0.2519  0.8267
 4429TIP3    H234779   3.084   2.467  14.954 -1.4092  0.4564  2.0092
 4430TIP3   OH234780   4.133   6.356  14.372 -0.1868  0.1310  0.7228
 4430TIP3    H134781   4.127   6.418  14.300  1.2867  0.7463  1.1114
 4430TIP3    H234782   4.092   6.276  14.337 -2.0001  1.2413  0.1864
 4431TIP3   OH234783   3.098   6.437   0.212  0.0748 -0.0299  0.0675
 4431TIP3    H134784   3.148   6.494   0.270  1.0937  0.1688 -0.9633
 4431TIP3    H234785   3.008   6.467   0.220 -0.0825 -0.8911  2.5542
 4432TIP3   OH234786   3.635   2.191  16.287  0.3136 -0.2047 -0.1408
 4432TIP3    H134787   3.727   2.165  16.283 -0.1181 -1.7019 -1.1910
 4432TIP3    H234788   3.618   2.208  16.379  1.6405  0.1292  0.0613
 4433TIP3   OH234789   2.941   5.966   4.643 -0.1096  0.4555 -0.7430
 4433TIP3    H134790   2.867   5.911   4.618 -0.0724  0.0492  0.0170
 4433TIP3    H234791   3.018   5.916   4.616 -0.0781  0.1622 -0.1266
 4434TIP3   OH234792   5.859   1.618  12.648  0.1769 -0.0059  0.0583
 4434TIP3    H134793   5.813   1.649  12.571 -0.7911  0.5117  0.8225
 4434TIP3    H234794   5.796   1.627  12.719  0.3774 -2.2953  0.5926
 4435TIP3   OH234795   3.505   3.189   1.098 -0.2811  0.0977 -0.1064
 4435TIP3    H134796   3.529   3.107   1.054 -0.0438  1.0139 -1.7541
 4435TIP3    H234797   3.586   3.221   1.136 -0.8586 -1.8452  3.2074
 4436TIP3   OH234798   1.750   4.575   4.668  0.1512 -0.1735 -0.0034
 4436TIP3    H134799   1.738   4.670   4.675 -1.9266 -0.3923 -0.0086
 4436TIP3    H234800   1.722   4.553   4.579 -0.2550 -0.8964  0.2927
 4437TIP3   OH234801   1.818   2.775  16.192  0.2990  0.0873 -0.1492
 4437TIP3    H134802   1.791   2.738  16.107 -2.5579  0.4171  0.5064
 4437TIP3    H234803   1.795   2.707  16.255  0.5467  0.6439  0.5462
 4438TIP3   OH234804   3.571   5.623   3.952  0.4317  0.0921 -0.1659
 4438TIP3    H134805   3.644   5.645   4.010  0.0740 -1.2039  0.8412
 4438TIP3    H234806   3.561   5.528   3.961 -0.8900  0.1328 -0.8611
 4439TIP3   OH234807   0.052   0.726   0.198 -0.5819 -0.1357  0.3901
 4439TIP3    H134808   0.091   0.803   0.158  0.7409 -0.6814  0.5807
 4439TIP3    H234809   0.055   0.743   0.292 -2.0135  0.3620  0.3707
 4440TIP3   OH234810   6.243   6.142   4.312  0.1223 -0.0469  0.2366
 4440TIP3    H134811   6.181   6.213   4.327  1.0607  0.6903  0.8049
 4440TIP3    H234812   6.263   6.147   4.218 -0.4567 -0.1102  0.1087
 4441TIP3   OH234813   2.959   0.129   5.248 -0.0544 -0.1661  0.1285
 4441TIP3    H134814   2.966   0.110   5.341  1.6013 -1.4594 -0.2318
 4441TIP3    H234815   3.012   0.063   5.205  0.3995  1.2723 -1.6605
 4442TIP3   OH234816   1.816   4.422  17.155  0.0598  0.0872  0.6207
 4442TIP3    H134817   1.863   4.484  17.099  0.4334 -0.5713  0.1912
 4442TIP3    H234818   1.885   4.375  17.202 -0.1681 -0.6334  0.2551
 4443TIP3   OH234819   4.694   0.860  12.070  0.0977  0.1820 -0.4201
 4443TIP3    H134820   4.733   0.941  12.038  1.2566 -0.3955 -0.5098
 4443TIP3    H234821   4.699   0.868  12.166 -0.0594  0.3330 -0.4226
 4444TIP3   OH234822   1.012   5.326  13.986 -0.0994  0.0644 -0.2464
 4444TIP3    H134823   1.049   5.282  13.910  0.0317 -1.1014  0.4752
 4444TIP3    H234824   1.065   5.405  13.996 -0.1428  0.2538 -1.3759
 4445TIP3   OH234825   1.221   4.825   5.154 -0.0826  0.3317  0.8445
 4445TIP3    H134826   1.283   4.885   5.113 -0.5414  0.6918  0.6704
 4445TIP3    H234827   1.264   4.799   5.236  1.3566 -1.2827 -0.3431
 4446TIP3   OH234828   6.638   4.651   1.037 -0.0709  0.5361 -0.0572
 4446TIP3    H134829   6.605   4.629   1.124 -0.8938 -0.3765 -0.5786
 4446TIP3    H234830   6.600   4.584   0.980  0.5932  1.0250 -1.0915
 4447TIP3   OH234831   2.007   1.704   3.216  0.2377 -0.6388  0.1208
 4447TIP3    H134832   1.960   1.659   3.146  1.2108 -0.4134 -0.6943
 4447TIP3    H234833   2.032   1.788   3.178  1.1917 -0.7069  0.5718
 4448TIP3   OH234834   5.474   3.293   1.923 -0.6093 -0.3833  0.0188
 4448TIP3    H134835   5.446   3.344   1.998 -0.4544  1.0703 -0.8891
 4448TIP3    H234836   5.484   3.204   1.957 -0.2132  0.3113  1.7929
 4449TIP3   OH234837   2.946   5.647  17.142 -0.4680  0.3350  0.2071
 4449TIP3    H134838   2.883   5.577  17.159 -0.4592 -0.2873 -1.9832
 4449TIP3    H234839   3.028   5.602  17.123 -0.0775  1.0184  0.2131
 4450TIP3   OH234840   6.303   2.960  14.131  0.6975  0.0594 -0.2110
 4450TIP3    H134841   6.272   3.043  14.167 -0.2426 -1.5170  2.9356
 4450TIP3    H234842   6.356   2.985  14.055  0.7869  3.5210  0.8351
 4451TIP3   OH234843   1.312   4.397  15.770  0.0593  0.4098  0.6144
 4451TIP3    H134844   1.323   4.325  15.832 -0.4780  0.9784  1.3858
 4451TIP3    H234845   1.225   4.432  15.789  0.5744  1.7023  0.7310
 4452TIP3   OH234846   0.832   4.334   1.800  0.3944 -0.2380  0.2555
 4452TIP3    H134847   0.861   4.354   1.711  1.2932 -0.2051  0.5431
 4452TIP3    H234848   0.890   4.264   1.829  0.7657  0.4161  1.1510
 4453TIP3   OH234849   2.707   3.919   0.606 -0.4193 -0.6357 -0.9494
 4453TIP3    H134850   2.740   4.008   0.593  1.6840 -1.2660 -0.4623
 4453TIP3    H234851   2.633   3.911   0.546 -1.0112  1.6039 -0.5924
 4454TIP3   OH234852   3.803   1.374  16.770 -0.6558 -0.4781 -0.1976
 4454TIP3    H134853   3.842   1.287  16.782  2.1687  0.9407  1.9993
 4454TIP3    H234854   3.724   1.372  16.824  0.5900 -1.0478  1.7066
 4455TIP3   OH234855   1.291   0.699  12.762  0.4500  0.1695 -0.2802
 4455TIP3    H134856   1.338   0.714  12.680 -0.8787  2.0712 -0.7576
 4455TIP3    H234857   1.295   0.783  12.808  0.0272 -0.4815  1.0105
 4456TIP3   OH234858   5.901   5.308   3.314  0.1949  0.1280 -0.7522
 4456TIP3    H134859   5.946   5.223   3.315 -0.3411 -0.2605  2.7792
 4456TIP3    H234860   5.814   5.289   3.348  0.4364  2.2084  1.2682
 4457TIP3   OH234861   2.193   4.653   4.333  0.5020  0.6329 -0.3445
 4457TIP3    H134862   2.205   4.588   4.402  0.3443  0.9535 -0.0144
 4457TIP3    H234863   2.280   4.689   4.318  0.3529  1.3562  0.4715
 4458TIP3   OH234864   2.360   0.312   2.650  0.2268  0.2764  0.5256
 4458TIP3    H134865   2.397   0.332   2.736  0.1726 -3.4198  1.5662
 4458TIP3    H234866   2.437   0.294   2.595  0.2111 -0.2964  0.6794
 4459TIP3   OH234867   2.908   5.335   0.830 -0.3455  0.3564 -0.3225
 4459TIP3    H134868   2.960   5.410   0.860 -0.8972  0.4198  0.5237
 4459TIP3    H234869   2.940   5.261   0.882  0.3288 -0.0442 -1.2916
 4460TIP3   OH234870   0.169   2.760   4.209  0.1033 -0.5043  0.0342
 4460TIP3    H134871   0.221   2.683   4.230 -0.8521 -1.0382  0.4953
 4460TIP3    H234872   0.171   2.813   4.290  0.5877 -0.1357 -0.2130
 4461TIP3   OH234873   3.228   4.536   0.190 -0.5397  0.1126 -0.1544
 4461TIP3    H134874   3.276   4.503   0.115 -0.4850  1.1823 -0.6097
 4461TIP3    H234875   3.137   4.544   0.159 -0.4037  1.1559 -0.3285
 4462TIP3   OH234876   2.512   5.921   6.157  0.4146 -0.3195  0.3741
 4462TIP3    H134877   2.526   5.829   6.179 -0.8212 -1.1889 -2.1103
 4462TIP3    H234878   2.598   5.952   6.128  0.8320 -0.6635  1.2086
 4463TIP3   OH234879   4.161   0.469   2.578  0.2838 -0.8859 -0.3979
 4463TIP3    H134880   4.198   0.557   2.572  0.1868 -0.8325 -0.1977
 4463TIP3    H234881   4.165   0.436   2.488  0.0120 -0.5500 -0.5399
 4464TIP3   OH234882   6.219   1.996  10.624 -0.0437 -0.3770  0.1403
 4464TIP3    H134883   6.268   2.000  10.707  0.5050  2.9115 -0.1837
 4464TIP3    H234884   6.148   2.060  10.636  0.9905  1.3921 -2.3770
 4465TIP3   OH234885   6.231   1.478  11.872 -0.1213  0.0012 -0.6876
 4465TIP3    H134886   6.233   1.505  11.963 -0.8346  1.1995 -1.0045
 4465TIP3    H234887   6.303   1.415  11.863 -1.1733 -1.5425  1.1161
 4466TIP3   OH234888   5.334   4.092  10.518 -0.1793 -0.0021  0.2621
 4466TIP3    H134889   5.263   4.044  10.560  1.2247 -0.2915  2.4688
 4466TIP3    H234890   5.335   4.176  10.563  0.0212  0.5371 -0.7182
 4467TIP3   OH234891   3.738   4.872   1.062  0.9273 -0.1169 -0.2353
 4467TIP3    H134892   3.746   4.901   0.971 -0.9294  0.0301 -0.3924
 4467TIP3    H234893   3.816   4.819   1.078  0.8563 -0.8591 -2.1830
 4468TIP3   OH234894   5.317   1.196  12.237 -0.5100 -0.4205 -0.4714
 4468TIP3    H134895   5.394   1.250  12.221 -0.3655 -0.2239  0.7822
 4468TIP3    H234896   5.316   1.133  12.164  1.5429 -1.2107  0.1181
 4469TIP3   OH234897   3.105   3.541   1.133 -0.0951  0.2558 -0.1005
 4469TIP3    H134898   3.053   3.462   1.123  0.8010 -0.2659 -0.7946
 4469TIP3    H234899   3.184   3.524   1.083  1.2124  0.6125  1.7320
 4470TIP3   OH234900   6.387   6.522   1.240 -0.1848 -0.3709 -0.3888
 4470TIP3    H134901   6.429   6.563   1.316  0.5769 -0.6685 -0.6399
 4470TIP3    H234902   6.419   6.573   1.165 -0.2876 -0.5828 -0.5773
 4471TIP3   OH234903   5.748   2.929  12.436 -0.3258 -0.2796  0.0814
 4471TIP3    H134904   5.672   2.893  12.482 -0.8841 -1.1162 -1.4522
 4471TIP3    H234905   5.767   2.865  12.367  2.7722 -0.9568  1.3633
 4472TIP3   OH234906   6.000   1.900  12.207  0.7095  0.4002  0.0847
 4472TIP3    H134907   5.975   1.825  12.153 -1.3295  1.3014 -0.3095
 4472TIP3    H234908   6.049   1.861  12.280 -2.5347 -1.7429  1.3595
 4473TIP3   OH234909   3.209   1.092   2.955  0.2452  0.2302  0.2558
 4473TIP3    H134910   3.161   1.016   2.987  2.0273 -1.0336  0.1064
 4473TIP3    H234911   3.233   1.140   3.034  0.6000 -0.3212  0.4864
 4474TIP3   OH234912   4.089   3.892  13.021 -0.4361 -0.6659 -0.2337
 4474TIP3    H134913   4.028   3.955  13.057  1.2875  1.7858 -1.3382
 4474TIP3    H234914   4.106   3.830  13.092 -2.6976 -0.3332  0.6615
 4475TIP3   OH234915   4.702   3.458  16.343 -0.5253 -0.3432  0.1844
 4475TIP3    H134916   4.783   3.409  16.327 -0.5751 -0.6382  0.8201
 4475TIP3    H234917   4.655   3.406  16.408  0.5585  1.7924  2.8349
 4476TIP3   OH234918   1.593   5.447  15.423 -0.2579 -0.4409  0.3705
 4476TIP3    H134919   1.613   5.499  15.500  0.5716 -0.3321  0.0909
 4476TIP3    H234920   1.510   5.405  15.443 -0.2091 -0.1568  1.1893
 4477TIP3   OH234921   6.522   2.817  12.919 -0.1049  0.9665 -0.5977
 4477TIP3    H134922   6.531   2.908  12.892  0.1316  1.7693  1.8833
 4477TIP3    H234923   6.583   2.808  12.992 -1.4663 -0.6398  0.4213
 4478TIP3   OH234924   6.284   0.748  12.847  0.1048  0.1431  0.2015
 4478TIP3    H134925   6.194   0.760  12.818  0.2080  0.1846 -0.0978
 4478TIP3    H234926   6.331   0.719  12.769 -0.0246 -1.6895  0.7440
 4479TIP3   OH234927   3.002   2.913  17.204  0.1389 -0.0513 -0.2591
 4479TIP3    H134928   2.961   2.894  17.119  0.0576 -0.7864 -0.0565
 4479TIP3    H234929   2.932   2.902  17.268  0.8967 -2.6912  0.2488
 4480TIP3   OH234930   4.766   1.610   2.128 -0.3624 -0.1592  0.2929
 4480TIP3    H134931   4.673   1.620   2.144 -0.6096 -0.0434 -1.0651
 4480TIP3    H234932   4.774   1.529   2.079  0.1059  0.3998 -0.5901
 4481TIP3   OH234933   4.853   3.621   5.441  0.5285 -0.3981  0.7118
 4481TIP3    H134934   4.787   3.577   5.495  0.8138  0.2105  1.5793
 4481TIP3    H234935   4.870   3.703   5.487  0.4175  0.3756 -0.5727
 4482TIP3   OH234936   3.043   4.902  15.679 -0.1809  0.0657 -0.1818
 4482TIP3    H134937   3.073   4.965  15.745 -1.3691 -0.2492  0.6980
 4482TIP3    H234938   3.114   4.900  15.614 -0.3639  2.8080 -0.6085
 4483TIP3   OH234939   0.708   0.057  13.999 -0.6454 -0.0533  0.3117
 4483TIP3    H134940   0.702   0.096  13.911 -1.1025 -0.3021  0.2288
 4483TIP3    H234941   0.622   0.075  14.038 -1.3209 -2.0385 -0.1776
 4484TIP3   OH234942   1.287   2.999   0.523 -0.1239 -0.0455 -0.3321
 4484TIP3    H134943   1.260   3.041   0.442 -0.6026  0.3514  0.0192
 4484TIP3    H234944   1.214   3.015   0.583  1.0629  1.4415  0.7953
 4485TIP3   OH234945   6.039   6.223  15.739  0.4970  0.2229  0.0068
 4485TIP3    H134946   6.073   6.144  15.781  2.0644 -0.0681 -1.7167
 4485TIP3    H234947   5.950   6.199  15.711  0.3943 -0.4007  0.8400
 4486TIP3   OH234948   1.558   3.385  14.190 -0.2713 -0.3200  0.2256
 4486TIP3    H134949   1.625   3.318  14.174 -2.7801 -3.1370  0.5838
 4486TIP3    H234950   1.476   3.336  14.194 -2.4221  2.9220 -0.2210
 4487TIP3   OH234951   4.730   1.044   5.577  0.3032  0.6006 -0.4106
 4487TIP3    H134952   4.637   1.022   5.581 -0.0137  2.0316  1.9642
 4487TIP3    H234953   4.738   1.098   5.499 -0.6226 -0.4112 -1.2425
 4488TIP3   OH234954   5.407   5.115   4.390 -0.3802 -0.4075  0.8131
 4488TIP3    H134955   5.362   5.169   4.455  0.2464  2.0030 -0.6424
 4488TIP3    H234956   5.379   5.025   4.410 -1.5239  0.4164  3.3016
 4489TIP3   OH234957   4.325   2.262  13.250 -0.6461  0.0412 -0.3681
 4489TIP3    H134958   4.328   2.167  13.253  1.2522  0.0592 -0.4832
 4489TIP3    H234959   4.410   2.290  13.285 -1.3452  1.7041  0.0976
 4490TIP3   OH234960   4.310   1.370   2.654  0.0218  0.4216 -0.5312
 4490TIP3    H134961   4.280   1.294   2.603 -0.2154 -0.3235  0.6719
 4490TIP3    H234962   4.384   1.405   2.604  0.8148 -1.2379 -0.5973
 4491TIP3   OH234963   5.703   1.598  14.056 -0.1883 -0.1280  0.5168
 4491TIP3    H134964   5.759   1.525  14.033 -0.1717 -0.3129  1.1241
 4491TIP3    H234965   5.738   1.672  14.007  2.8234  0.6256  3.4564
 4492TIP3   OH234966   4.004   6.282   6.080  0.1429 -0.3025 -0.1972
 4492TIP3    H134967   4.084   6.325   6.112 -0.1872  0.5265 -0.4813
 4492TIP3    H234968   4.033   6.231   6.005  0.2685  0.6372 -0.7981
 4493TIP3   OH234969   1.665   5.112  13.345 -0.0270  0.5122 -0.1008
 4493TIP3    H134970   1.617   5.122  13.263  0.5680 -0.8783 -0.6452
 4493TIP3    H234971   1.644   5.192  13.394 -1.2053  0.9072 -1.1685
 4494TIP3   OH234972   5.258   0.184   3.518 -0.0272  0.4214  0.3150
 4494TIP3    H134973   5.163   0.170   3.524 -0.2178  1.4710  0.0033
 4494TIP3    H234974   5.267   0.264   3.467  1.0690 -0.3190 -0.7173
 4495TIP3   OH234975   2.215   3.077   1.559  0.1818  0.0438  0.3629
 4495TIP3    H134976   2.252   3.148   1.610  0.1547  0.9572 -0.8414
 4495TIP3    H234977   2.194   3.117   1.474 -2.4034 -0.7059  0.5602
 4496TIP3   OH234978   5.039   6.712   5.174  0.2023 -0.0031  0.5589
 4496TIP3    H134979   5.016   6.625   5.142 -1.7618  1.0988 -1.2872
 4496TIP3    H234980   4.990   6.722   5.255 -1.2945  0.1250 -0.3231
 4497TIP3   OH234981   2.594   1.726   1.517  0.0345 -0.4910 -0.3516
 4497TIP3    H134982   2.663   1.695   1.576  1.0532 -0.7569 -1.6435
 4497TIP3    H234983   2.641   1.765   1.444 -1.1460 -1.6356 -1.7838
 4498TIP3   OH234984   4.502   0.251   1.113 -0.7617 -0.4311 -0.0358
 4498TIP3    H134985   4.585   0.212   1.084  0.2062  1.3926  0.1403
 4498TIP3    H234986   4.473   0.303   1.038 -0.6336  0.6113  0.6107
 4499TIP3   OH234987   4.402   6.733   2.050 -0.2786 -0.0894 -0.8156
 4499TIP3    H134988   4.309   6.710   2.054 -0.1670 -0.3807  0.5796
 4499TIP3    H234989   4.447   6.649   2.061  0.1347  0.4112  1.8754
 4500TIP3   OH234990   2.384   4.156  11.294 -0.0286  0.1256 -0.6642
 4500TIP3    H134991   2.400   4.230  11.353 -1.0571 -0.2413  0.1150
 4500TIP3    H234992   2.377   4.196  11.207 -0.5678  0.9551 -0.2586
 4501TIP3   OH234993   0.198   5.453  11.144  0.3085  0.0367  0.2760
 4501TIP3    H134994   0.248   5.450  11.063  2.0637 -3.1993  1.2940
 4501TIP3    H234995   0.263   5.476  11.211 -0.6817  0.6658  1.0595
 4502TIP3   OH234996   5.584   5.754  13.112  0.4722  0.1460 -0.0878
 4502TIP3    H134997   5.674   5.721  13.112  0.5116  0.1040 -2.3903
 4502TIP3    H234998   5.593   5.846  13.086 -0.1056  0.2779  0.1750
 4503TIP3   OH234999   2.701   4.383   3.365 -0.0210 -0.0088 -0.3364
 4503TIP3    H135000   2.680   4.336   3.446  1.0795  0.5898  0.3111
 4503TIP3    H235001   2.707   4.475   3.391 -1.2375  0.4158 -1.4208
 4504TIP3   OH235002   5.403   1.809  14.928  0.3656  0.1119 -0.4922
 4504TIP3    H135003   5.400   1.885  14.870 -2.1283  0.3404 -0.1628
 4504TIP3    H235004   5.452   1.839  15.005 -1.6311  1.8365  0.1799
 4505TIP3   OH235005   4.265   2.668  12.739  0.6596 -0.3106 -0.4573
 4505TIP3    H135006   4.201   2.731  12.773  0.9362  0.7259 -1.7932
 4505TIP3    H235007   4.285   2.612  12.814 -1.6516 -0.5605  0.0563
 4506TIP3   OH235008   6.049   0.455   3.942  0.0910  0.5692  0.3475
 4506TIP3    H135009   6.072   0.530   3.886  2.0443  0.2310  0.6287
 4506TIP3    H235010   6.133   0.416   3.966 -0.8249 -0.8832  1.3743
 4507TIP3   OH235011   1.762   5.480   5.390  0.1385  0.2142 -0.3858
 4507TIP3    H135012   1.800   5.438   5.313  0.1683  2.0535 -1.4246
 4507TIP3    H235013   1.667   5.472   5.378 -0.0007 -3.0343  1.4655
 4508TIP3   OH235014   3.929   3.970   3.449 -0.9408  0.0208 -0.0330
 4508TIP3    H135015   4.023   3.978   3.465 -1.2318  0.5711  1.6535
 4508TIP3    H235016   3.904   4.055   3.414 -0.6722 -0.4581 -1.4592
 4509TIP3   OH235017   3.756   0.017  13.636 -0.1479 -0.1186 -0.1287
 4509TIP3    H135018   3.845  -0.016  13.636 -0.6945 -1.6847 -0.5834
 4509TIP3    H235019   3.721  -0.006  13.550 -0.1261  3.0601 -1.1364
 4510TIP3   OH235020   5.097   5.462   4.405  0.6215  0.5909 -0.3603
 4510TIP3    H135021   5.012   5.501   4.384 -0.2778 -1.0972 -0.0576
 4510TIP3    H235022   5.161   5.530   4.385 -0.8880  2.3764  0.6251
 4511TIP3   OH235023   0.071   1.408  16.205  0.1806  0.5115 -0.2032
 4511TIP3    H135024   0.121   1.481  16.241  1.0553  0.0352 -0.4394
 4511TIP3    H235025   0.018   1.377  16.279 -0.3115  1.4629 -0.1384
 4512TIP3   OH235026   0.126   3.510  16.200 -0.3607  0.1678  0.2868
 4512TIP3    H135027   0.161   3.450  16.266  0.2475 -0.7521 -0.8428
 4512TIP3    H235028   0.129   3.596  16.242  1.9431 -0.0877  0.7681
 4513TIP3   OH235029   5.857   1.250   5.627 -0.4732  0.1609  0.3402
 4513TIP3    H135030   5.896   1.278   5.710  0.1925  0.5994 -0.1108
 4513TIP3    H235031   5.920   1.277   5.560 -1.3840  0.5649 -0.3893
 4514TIP3   OH235032   4.844   6.796  12.042  0.0022 -0.1342 -0.0183
 4514TIP3    H135033   4.797   6.712  12.040 -2.0824  0.8765  1.9265
 4514TIP3    H235034   4.894   6.793  12.123 -0.9913  0.9009  0.6670
 4515TIP3   OH235035   6.474   4.968  15.111  0.4343  0.0027 -0.7993
 4515TIP3    H135036   6.416   5.000  15.042  0.0192 -0.5369 -0.7069
 4515TIP3    H235037   6.418   4.913  15.166  0.9058 -0.0798 -0.3909
 4516TIP3   OH235038   1.880   5.327   5.184  0.3492  0.1161  0.5126
 4516TIP3    H135039   1.920   5.257   5.235 -1.9488 -0.5015  1.6054
 4516TIP3    H235040   1.869   5.290   5.097  0.3425 -0.4193  0.7390
 4517TIP3   OH235041   5.009   2.785   3.142  0.0435 -0.6438  0.2539
 4517TIP3    H135042   5.059   2.724   3.087 -0.6473 -1.2555  0.2905
 4517TIP3    H235043   4.925   2.742   3.156 -0.1894 -0.0087  0.9005
 4518TIP3   OH235044   5.643   6.614   1.079 -0.3835  0.2360  0.1862
 4518TIP3    H135045   5.568   6.604   1.020 -0.8140  1.6780  0.4503
 4518TIP3    H235046   5.716   6.638   1.022  0.0958 -1.8718 -0.1623
 4519TIP3   OH235047   5.555   0.545  13.538  0.2001  0.2764 -0.0844
 4519TIP3    H135048   5.505   0.537  13.619  0.0410 -6.2343 -0.3239
 4519TIP3    H235049   5.645   0.557  13.566  0.2155 -2.3678  1.2984
 4520TIP3   OH235050   5.429   1.196   2.038 -0.5418  0.2245  0.4410
 4520TIP3    H135051   5.451   1.273   2.090 -1.6019  1.3674 -0.7017
 4520TIP3    H235052   5.421   1.125   2.101  0.9234  0.9278  1.4802
 4521TIP3   OH235053   6.180   6.011   2.650  0.3824  0.1245 -0.2341
 4521TIP3    H135054   6.190   6.095   2.607  0.5046 -0.4523 -1.3685
 4521TIP3    H235055   6.209   5.947   2.585  1.1807 -0.7415  0.9233
 4522TIP3   OH235056   0.029   3.391  13.737  0.4043 -0.3391 -0.6474
 4522TIP3    H135057  -0.052   3.416  13.782  0.8949 -0.9105  0.5982
 4522TIP3    H235058   0.092   3.378  13.807  2.4414  2.8691 -1.6715
 4523TIP3   OH235059   6.281   6.130  13.947  0.0163  0.0147  0.3615
 4523TIP3    H135060   6.225   6.141  13.870  1.1359 -0.4950 -0.5520
 4523TIP3    H235061   6.270   6.038  13.972  1.2471 -0.3838 -0.4887
 4524TIP3   OH235062   4.131   5.139  14.873  0.1127 -0.0651 -0.4998
 4524TIP3    H135063   4.179   5.166  14.795 -0.3634 -0.2200 -0.8521
 4524TIP3    H235064   4.148   5.045  14.881  0.4022  0.0101 -0.2471
 4525TIP3   OH235065   2.239   4.240   4.977  1.0115 -0.2237 -0.0756
 4525TIP3    H135066   2.194   4.181   4.916  0.0823 -1.1054  1.3852
 4525TIP3    H235067   2.172   4.264   5.041  1.7846  1.2171  0.2344
 4526TIP3   OH235068   3.489   5.478   0.352  0.0628 -0.0030  0.5597
 4526TIP3    H135069   3.548   5.454   0.424  0.0157  0.6461  0.8235
 4526TIP3    H235070   3.416   5.417   0.360  0.9560 -1.2138 -0.1293
 4527TIP3   OH235071   5.049   4.618   2.643 -0.2578  0.1537  0.3004
 4527TIP3    H135072   5.032   4.565   2.565  1.7756  1.1640 -0.9296
 4527TIP3    H235073   5.066   4.706   2.609  0.3664  0.6950  1.9148
 4528TIP3   OH235074   6.048   5.270  11.495  0.1988 -0.2071 -0.0431
 4528TIP3    H135075   6.065   5.346  11.551 -0.5950 -0.1240  0.1032
 4528TIP3    H235076   6.025   5.200  11.556 -0.0220 -0.2982 -0.2315
 4529TIP3   OH235077   4.387   0.270   5.473 -0.2830  0.0279  0.0930
 4529TIP3    H135078   4.353   0.305   5.391 -0.7302 -0.9554 -0.1566
 4529TIP3    H235079   4.462   0.326   5.494 -0.6931  0.8251 -0.5254
 4530TIP3   OH235080   6.641   3.460  15.729  0.2503 -0.1600  0.3249
 4530TIP3    H135081   6.682   3.481  15.813 -0.1789  0.2692  0.4287
 4530TIP3    H235082   6.714   3.431  15.673  0.7331  0.7902  0.4414
 4531TIP3   OH235083   3.611   4.300   5.033  0.1493  0.6076 -0.3610
 4531TIP3    H135084   3.703   4.300   5.005  0.4038 -1.0628  0.3672
 4531TIP3    H235085   3.567   4.244   4.969 -0.2091  0.6778 -0.1778
 4532TIP3   OH235086   2.788   0.826  14.671  0.9824  0.2541  0.3636
 4532TIP3    H135087   2.765   0.786  14.587 -0.2509 -0.5139  1.0227
 4532TIP3    H235088   2.876   0.862  14.659  1.3508 -1.0043 -0.8465
 4533TIP3   OH235089   1.062   4.686  16.128  0.0390  0.1068  0.0179
 4533TIP3    H135090   1.151   4.720  16.138  0.3133 -0.0320 -1.5736
 4533TIP3    H235091   1.036   4.714  16.040 -0.8911 -1.1692 -0.1419
 4534TIP3   OH235092   4.664   5.537  13.531  0.8549 -0.1612 -0.1852
 4534TIP3    H135093   4.691   5.448  13.554  1.5474  0.5279  1.9143
 4534TIP3    H235094   4.741   5.575  13.489  0.7722 -0.3460 -0.5091
 4535TIP3   OH235095   4.716   4.625  16.520 -0.0892 -0.3556  0.3043
 4535TIP3    H135096   4.742   4.665  16.437 -0.9463 -1.0917 -0.3397
 4535TIP3    H235097   4.689   4.536  16.496 -2.6620  0.1655  0.9740
 4536TIP3   OH235098   5.250   6.621   2.735  0.4400  0.0198 -0.4785
 4536TIP3    H135099   5.277   6.669   2.813 -0.8672  1.6845 -1.0049
 4536TIP3    H235100   5.235   6.531   2.766  0.0679  0.6076  1.1352
 4537TIP3   OH235101   1.849   4.038  16.238  0.0494  0.0624 -0.0650
 4537TIP3    H135102   1.765   4.024  16.281  0.3006 -0.6411  0.2099
 4537TIP3    H235103   1.910   4.057  16.309 -0.2224  2.4406 -0.3979
 4538TIP3   OH235104   0.300   3.914  14.358 -0.5902  0.0717 -0.4828
 4538TIP3    H135105   0.276   3.846  14.421  0.5624 -0.3661 -0.4779
 4538TIP3    H235106   0.356   3.869  14.295  1.9869  1.4052  0.7021
 4539TIP3   OH235107   1.305   6.446   2.122 -0.2173 -0.1045  0.6526
 4539TIP3    H135108   1.314   6.533   2.082  0.7620  0.0133  1.0881
 4539TIP3    H235109   1.211   6.432   2.130 -0.4480  0.0008 -1.3941
 4540TIP3   OH235110   0.850   4.191   4.649  0.3694  0.3010 -0.5746
 4540TIP3    H135111   0.796   4.114   4.632 -0.6759  0.3236  2.1271
 4540TIP3    H235112   0.929   4.156   4.691 -1.0883  0.6841  2.8136
 4541TIP3   OH235113   6.004   1.252  12.654 -0.3291 -0.2165 -0.5015
 4541TIP3    H135114   5.941   1.234  12.585 -0.0007  0.0238 -0.8674
 4541TIP3    H235115   6.063   1.317  12.617 -0.7951  0.7506  0.3809
 4542TIP3   OH235116   4.257   0.771   4.254  0.4038  0.1497 -0.2158
 4542TIP3    H135117   4.182   0.776   4.313 -0.3888  0.8680 -1.2331
 4542TIP3    H235118   4.281   0.679   4.252 -0.2142 -0.0314  0.4070
 4543TIP3   OH235119   1.796   6.142   4.603 -0.6235  0.7628  0.8005
 4543TIP3    H135120   1.828   6.214   4.548  0.7255 -1.2076 -1.2024
 4543TIP3    H235121   1.722   6.106   4.553  0.9317 -1.3716 -0.1272
 4544TIP3   OH235122   0.466   2.593  15.541 -0.2375  0.2937  0.2854
 4544TIP3    H135123   0.551   2.613  15.580  0.8375  0.8976 -2.1521
 4544TIP3    H235124   0.468   2.499  15.526 -0.3435  0.1805  0.9636
 4545TIP3   OH235125   1.275   1.450  12.578 -0.1309  0.7342 -0.1477
 4545TIP3    H135126   1.360   1.494  12.586  1.3354 -1.8659 -0.2539
 4545TIP3    H235127   1.237   1.486  12.498  0.3939  2.6487  0.4124
 4546TIP3   OH235128   0.655   6.403   6.154 -0.7258  0.0918 -0.1556
 4546TIP3    H135129   0.722   6.342   6.186 -1.6536 -0.6391  0.4396
 4546TIP3    H235130   0.583   6.394   6.216 -1.3938  0.8396 -0.8090
 4547TIP3   OH235131   0.923   6.223  14.856 -0.8299  0.1462  0.1685
 4547TIP3    H135132   0.858   6.274  14.808 -0.2060 -1.3370 -2.4087
 4547TIP3    H235133   1.007   6.253  14.821 -0.1852  0.4343  1.8472
 4548TIP3   OH235134   2.474   0.685   6.065  0.3776  0.0669 -0.0631
 4548TIP3    H135135   2.502   0.626   6.135  1.2304  0.6452  0.1065
 4548TIP3    H235136   2.463   0.629   5.989 -0.2970 -0.5325  0.4524
 4549TIP3   OH235137   1.117   4.770   1.072 -0.2686  0.6826  0.3789
 4549TIP3    H135138   1.112   4.813   1.158  1.0492  0.3051  0.6746
 4549TIP3    H235139   1.200   4.801   1.035  0.4121 -1.0657  0.3268
 4550TIP3   OH235140   6.233   0.602   4.285  0.1111  0.3453 -0.4736
 4550TIP3    H135141   6.243   0.695   4.306 -0.8341  0.4640 -0.4853
 4550TIP3    H235142   6.318   0.575   4.252  1.2865  0.5077  2.1413
 4551TIP3   OH235143   1.071   4.567  17.280  0.6997  0.0736  0.5898
 4551TIP3    H135144   1.164   4.556  17.301  0.4436 -2.5434  0.6893
 4551TIP3    H235145   1.037   4.477  17.276 -2.6037  0.9012  4.1206
 4552TIP3   OH235146   3.670   0.184   1.576 -0.3052 -0.1631 -0.0582
 4552TIP3    H135147   3.631   0.098   1.562 -1.7646  0.7509 -1.9243
 4552TIP3    H235148   3.596   0.242   1.592  0.3120  1.3610 -2.2868
 4553TIP3   OH235149   5.536   3.043  15.544 -0.5022 -0.6624  0.4171
 4553TIP3    H135150   5.617   3.041  15.595 -0.1833  1.0291  0.0332
 4553TIP3    H235151   5.557   3.096  15.467 -2.1703  0.5253  0.7178
 4554TIP3   OH235152   3.963   4.919   1.773  0.1049  0.3695 -0.2818
 4554TIP3    H135153   3.925   4.892   1.690 -0.5582  0.1937  0.0673
 4554TIP3    H235154   4.053   4.943   1.752 -0.4899  1.7843 -1.3135
 4555TIP3   OH235155   6.677   0.609  11.535 -0.2736 -0.0026  0.3941
 4555TIP3    H135156   6.765   0.570  11.540  0.0669  0.4607 -1.3185
 4555TIP3    H235157   6.628   0.550  11.479 -0.5938  0.5518  0.0847
 4556TIP3   OH235158   0.893   1.916   2.661 -0.6383 -0.1332  0.6084
 4556TIP3    H135159   0.851   1.957   2.736 -0.5271 -2.3405  1.9756
 4556TIP3    H235160   0.964   1.976   2.637 -1.8040  1.4855  1.0935
 4557TIP3   OH235161   2.926   6.199   0.996 -0.5208 -0.2035  0.2266
 4557TIP3    H135162   2.868   6.248   1.056  1.5634  2.0330  0.5826
 4557TIP3    H235163   2.966   6.267   0.942  1.7094 -1.6620 -0.0541
 4558TIP3   OH235164   4.539   1.034  10.539 -0.8617  0.1814  0.3057
 4558TIP3    H135165   4.521   0.950  10.499 -1.2729  0.9330 -1.1507
 4558TIP3    H235166   4.455   1.063  10.574 -1.6617  1.6507 -2.5392
 4559TIP3   OH235167   2.419   6.178  15.124 -0.4995  0.1459  0.7853
 4559TIP3    H135168   2.472   6.257  15.119 -1.5510  0.9359  1.6490
 4559TIP3    H235169   2.482   6.106  15.123  0.4242  0.9355 -1.0002
 4560TIP3   OH235170   1.751   5.140  10.968 -0.1468 -0.5375 -0.0878
 4560TIP3    H135171   1.755   5.049  10.938 -0.2571 -0.3272 -0.7609
 4560TIP3    H235172   1.842   5.170  10.966 -0.1277 -0.5904 -0.0037
 4561TIP3   OH235173   2.534   2.636   4.616 -0.8005  0.3318 -0.5206
 4561TIP3    H135174   2.595   2.686   4.671  1.8932 -1.9033 -1.2186
 4561TIP3    H235175   2.468   2.604   4.677  0.0017  1.0048  0.7462
 4562TIP3   OH235176   0.948   0.122   1.210  0.7861  0.1286  0.1582
 4562TIP3    H135177   1.043   0.129   1.212  0.7627  0.4742  0.3781
 4562TIP3    H235178   0.930   0.032   1.184  1.1703  0.1656 -0.2366
 4563TIP3   OH235179   0.583   1.340   0.273  0.4704  0.5545  0.4152
 4563TIP3    H135180   0.590   1.371   0.364  0.5886  2.1357 -0.1011
 4563TIP3    H235181   0.647   1.392   0.225  0.0836  0.0642 -0.6655
 4564TIP3   OH235182   2.140   2.782   0.144  0.1861 -0.5319  0.0165
 4564TIP3    H135183   2.212   2.838   0.172  0.7354 -1.2893  0.1424
 4564TIP3    H235184   2.117   2.731   0.221 -0.2751 -0.5316 -0.1124
 4565TIP3   OH235185   1.917   3.592  11.966  0.1196  0.2422  0.3563
 4565TIP3    H135186   1.932   3.556  12.054 -1.3381 -2.6672 -0.4304
 4565TIP3    H235187   1.823   3.609  11.964  0.4338  2.0686 -0.0993
 4566TIP3   OH235188   2.804   0.145  14.347 -0.5010  0.7142 -0.3645
 4566TIP3    H135189   2.735   0.114  14.289  0.1276  0.0128 -0.7585
 4566TIP3    H235190   2.885   0.128  14.299  0.1400 -1.1081  1.2108
 4567TIP3   OH235191   3.321   1.391   6.559 -0.2688  0.6295 -0.0182
 4567TIP3    H135192   3.280   1.379   6.473 -0.2712  2.3061 -0.2957
 4567TIP3    H235193   3.414   1.381   6.543 -0.3086  0.3930 -0.1054
 4568TIP3   OH235194   2.282   3.866   2.433 -0.8511 -0.0499  0.5292
 4568TIP3    H135195   2.316   3.783   2.400 -1.8490 -1.0444  1.8984
 4568TIP3    H235196   2.270   3.920   2.355  0.7729 -0.8028 -0.2857
 4569TIP3   OH235197   5.939   1.697   6.466 -0.2275 -0.7211  0.1287
 4569TIP3    H135198   5.855   1.683   6.510 -0.6207 -3.0607 -1.2044
 4569TIP3    H235199   5.926   1.664   6.378  2.1813 -1.4045 -0.0483
 4570TIP3   OH235200   6.515   3.603  12.561 -0.3618  0.0710 -0.3508
 4570TIP3    H135201   6.427   3.641  12.559 -0.1165  0.6156 -0.8590
 4570TIP3    H235202   6.538   3.603  12.654 -0.5264  0.7838 -0.3050
 4571TIP3   OH235203   1.678   0.371   3.609 -0.1765 -0.3525 -0.0091
 4571TIP3    H135204   1.720   0.317   3.676  1.7247 -0.9917 -1.5951
 4571TIP3    H235205   1.686   0.461   3.640 -3.7661 -0.7943  2.8928
 4572TIP3   OH235206   2.653   1.235   3.568 -0.1822 -0.2502  0.3446
 4572TIP3    H135207   2.729   1.282   3.533 -0.4480 -1.1792 -1.6191
 4572TIP3    H235208   2.680   1.210   3.656  1.7378 -0.3576 -0.2076
 4573TIP3   OH235209   2.032   5.801   4.499  0.2010  0.2877 -0.0009
 4573TIP3    H135210   2.080   5.863   4.555  1.9457 -0.1152 -0.9528
 4573TIP3    H235211   2.031   5.843   4.413  2.7001 -1.5072 -1.0364
 4574TIP3   OH235212   2.296   4.603  14.439  0.1163 -0.1327 -0.2693
 4574TIP3    H135213   2.370   4.593  14.379 -0.5231 -1.8554 -0.8258
 4574TIP3    H235214   2.230   4.542  14.406 -0.8462  0.0221  1.2892
 4575TIP3   OH235215   2.627   5.893   5.738 -0.2575 -0.9141 -0.5787
 4575TIP3    H135216   2.563   5.882   5.809  0.4915 -0.2576  0.2214
 4575TIP3    H235217   2.608   5.980   5.703  0.3267 -0.6286 -0.1968
 4576TIP3   OH235218   2.981   0.022   2.737 -0.1106 -0.2838 -0.4845
 4576TIP3    H135219   3.030   0.063   2.667 -0.4620  0.3414 -0.3715
 4576TIP3    H235220   2.992  -0.072   2.723 -1.7686 -0.2492 -2.5454
 4577TIP3   OH235221   4.457   0.995  12.872  0.8813  0.2215  0.1821
 4577TIP3    H135222   4.547   0.963  12.864  0.1710 -1.7158 -0.7220
 4577TIP3    H235223   4.403   0.920  12.848 -0.9662  1.7225 -0.5904
 4578TIP3   OH235224   3.991   6.076   1.687  0.0034 -0.3421  0.4908
 4578TIP3    H135225   3.967   5.984   1.684 -1.2857 -0.0109  0.2299
 4578TIP3    H235226   4.086   6.075   1.700  0.0988 -1.6930 -0.1538
 4579TIP3   OH235227   0.240   3.257  15.812 -0.1196  0.0555 -0.0708
 4579TIP3    H135228   0.314   3.279  15.754 -0.0649  0.6091  0.2065
 4579TIP3    H235229   0.168   3.237  15.752  0.1621 -0.1746 -0.3379
 4580TIP3   OH235230   1.380   1.395   6.323  0.0252  0.0300  0.0639
 4580TIP3    H135231   1.420   1.469   6.370  1.2019  0.6280 -1.7605
 4580TIP3    H235232   1.286   1.404   6.338  0.2079  1.4906  0.4381
 4581TIP3   OH235233   3.140   3.186  14.468 -0.1974 -0.2169  0.3917
 4581TIP3    H135234   3.106   3.097  14.465  1.4531 -0.8505 -1.1128
 4581TIP3    H235235   3.204   3.185  14.539  1.7739 -1.0277 -1.3290
 4582TIP3   OH235236   2.440   6.522  15.395 -0.2779 -0.7893 -0.3953
 4582TIP3    H135237   2.371   6.580  15.363  0.4399  0.0453 -0.4570
 4582TIP3    H235238   2.472   6.564  15.475  1.5052 -0.0947 -1.4186
 4583TIP3   OH235239   5.905   3.264   2.651  0.2619 -0.6297  0.3925
 4583TIP3    H135240   5.836   3.235   2.710  0.8882 -1.4895  0.7161
 4583TIP3    H235241   5.875   3.236   2.564 -0.4036  0.1614  0.3537
 4584TIP3   OH235242   3.561   1.724   4.754 -0.3251  0.5508 -0.0315
 4584TIP3    H135243   3.611   1.647   4.727 -0.8190 -0.2597  1.3036
 4584TIP3    H235244   3.622   1.797   4.740  0.6569 -0.2332  0.0239
 4585TIP3   OH235245   2.840   0.403   5.247  0.2414  0.0242 -0.6584
 4585TIP3    H135246   2.865   0.493   5.229  0.4939 -0.4102 -2.7213
 4585TIP3    H235247   2.788   0.376   5.171 -0.1208 -1.4680  0.0680
 4586TIP3   OH235248   0.586   4.560   0.987 -0.4381 -0.1309 -0.0279
 4586TIP3    H135249   0.637   4.595   0.914 -1.2158  1.4956  0.1478
 4586TIP3    H235250   0.526   4.498   0.947  0.1284 -0.3530 -0.5495
 4587TIP3   OH235251   5.100   5.455   0.388 -0.4973  0.5298 -0.0982
 4587TIP3    H135252   5.155   5.421   0.317 -1.8744 -1.4513 -0.2855
 4587TIP3    H235253   5.060   5.378   0.427 -0.5949  1.6494  2.2120
 4588TIP3   OH235254   3.251   4.810   2.596  0.3367  0.1892  0.2056
 4588TIP3    H135255   3.209   4.885   2.556  0.4451  0.4294  0.5332
 4588TIP3    H235256   3.336   4.843   2.625  0.0483  0.1641  1.1053
 4589TIP3   OH235257   2.981   4.481   2.893 -0.3891 -0.2951 -0.0944
 4589TIP3    H135258   2.990   4.537   2.816  1.1401  0.8380  0.8436
 4589TIP3    H235259   2.928   4.531   2.954  0.7878  0.0637  0.6619
 4590TIP3   OH235260   4.149   2.243   2.524 -0.2175  0.0517 -0.5171
 4590TIP3    H135261   4.237   2.207   2.532  0.1968  1.1550  0.1130
 4590TIP3    H235262   4.100   2.203   2.596 -0.4553 -1.1267 -1.3046
 4591TIP3   OH235263   2.949   3.443  14.217 -0.4745  0.1257 -0.2297
 4591TIP3    H135264   3.037   3.462  14.251 -0.5411  0.0045  0.0124
 4591TIP3    H235265   2.898   3.422  14.295 -0.0065 -2.6690 -0.5602
 4592TIP3   OH235266   0.541   5.211  13.619  0.0488  0.2139 -0.0552
 4592TIP3    H135267   0.501   5.283  13.569 -0.5224 -0.8272 -1.1357
 4592TIP3    H235268   0.606   5.174  13.560  0.4678 -0.0460  0.5668
 4593TIP3   OH235269   4.763   5.557  12.104  0.1749  0.1165 -1.0947
 4593TIP3    H135270   4.858   5.557  12.114  0.0214  0.0194  0.7601
 4593TIP3    H235271   4.733   5.627  12.163 -0.9330 -0.3734 -1.0534
 4594TIP3   OH235272   4.541   5.274  12.868 -0.4180 -0.0766  0.3620
 4594TIP3    H135273   4.489   5.273  12.949 -2.7050  2.7261 -0.8749
 4594TIP3    H235274   4.480   5.243  12.800  1.1144 -1.3289 -0.5277
 4595TIP3   OH235275   2.994   3.296   6.858 -0.6092 -0.1838 -0.3709
 4595TIP3    H135276   3.019   3.249   6.937 -1.6495 -3.2405 -1.6973
 4595TIP3    H235277   2.922   3.353   6.885  1.9281  2.2755  1.6926
 4596TIP3   OH235278   4.148   3.962   0.213 -0.5037  0.3807 -0.1291
 4596TIP3    H135279   4.220   3.959   0.276 -1.9962  0.6236  1.6675
 4596TIP3    H235280   4.122   3.870   0.202  0.3555  0.2451 -1.1474
 4597TIP3   OH235281   0.236   3.581  16.840 -0.1183 -0.2101  0.4209
 4597TIP3    H135282   0.276   3.660  16.878  1.2866 -0.7073  0.0156
 4597TIP3    H235283   0.223   3.523  16.915 -1.0174  0.3198  0.6985
 4598TIP3   OH235284   6.775   4.140  16.259  0.2459  0.0871  0.0353
 4598TIP3    H135285   6.866   4.113  16.275 -0.1315 -1.6532 -0.5397
 4598TIP3    H235286   6.739   4.155  16.346  1.4397  2.2673  0.2460
 4599TIP3   OH235287   0.480   4.496   6.288  0.4071 -0.3278 -0.5504
 4599TIP3    H135288   0.549   4.533   6.342  2.0221 -2.8234 -0.7174
 4599TIP3    H235289   0.455   4.414   6.332 -0.7066 -0.6884 -1.7596
 4600TIP3   OH235290   6.566   3.043  13.454 -0.1181  0.0798 -0.3740
 4600TIP3    H135291   6.656   3.019  13.474  0.3503  1.1722 -1.1032
 4600TIP3    H235292   6.536   2.975  13.393  0.4130  0.0331 -0.5908
 4601TIP3   OH235293   0.547   2.087  17.031  0.2170 -0.6650 -1.0630
 4601TIP3    H135294   0.593   2.008  17.003  0.5443  0.1692 -2.9820
 4601TIP3    H235295   0.616   2.152  17.045 -0.2504  0.3035 -3.0003
 4602TIP3   OH235296   2.279   3.827  10.654  0.0723  0.7261  0.5924
 4602TIP3    H135297   2.266   3.742  10.614 -2.9014  2.1042 -1.7242
 4602TIP3    H235298   2.200   3.842  10.706  0.8973  1.8130  1.6113
 4603TIP3   OH235299   6.318   0.839  15.741 -0.0761  0.1715  0.2178
 4603TIP3    H135300   6.316   0.935  15.749 -0.3108  0.1864  0.0183
 4603TIP3    H235301   6.228   0.816  15.716  0.0591 -0.0698 -0.0480
 4604TIP3   OH235302   3.163   4.604  12.184  0.2426  0.1042 -0.2558
 4604TIP3    H135303   3.171   4.554  12.265 -1.5212 -1.9461 -1.2488
 4604TIP3    H235304   3.253   4.615  12.154  0.9499  1.0227  1.9736
 4605TIP3   OH235305   1.834   3.314   3.354  0.1174 -0.0291 -0.2066
 4605TIP3    H135306   1.770   3.380   3.380 -2.1339 -2.2239  0.1181
 4605TIP3    H235307   1.914   3.340   3.400 -0.7730  2.2207  0.2162
 4606TIP3   OH235308   4.010   6.016  13.744 -0.2435 -0.1995  0.3142
 4606TIP3    H135309   4.063   6.094  13.728  0.1052 -0.1843  1.4560
 4606TIP3    H235310   4.006   5.972  13.659  1.1098  0.1062  0.0613
 4607TIP3   OH235311   6.784   0.392   1.510  0.5394  0.0312 -0.4866
 4607TIP3    H135312   6.856   0.349   1.464  0.5921  0.0059 -0.3788
 4607TIP3    H235313   6.801   0.376   1.602  0.9803  0.9459 -0.4000
 4608TIP3   OH235314   4.255   1.670   0.545  0.3816  0.0871  0.5524
 4608TIP3    H135315   4.328   1.706   0.594  1.9174  0.3474 -1.7484
 4608TIP3    H235316   4.261   1.575   0.559  1.4022  0.0783  0.1118
 4609TIP3   OH235317   4.018   5.785  11.222 -0.5222 -0.1803  0.4797
 4609TIP3    H135318   3.990   5.707  11.270  0.2387 -1.2327 -0.7109
 4609TIP3    H235319   4.108   5.800  11.251 -0.3109 -0.3827 -0.0551
 4610TIP3   OH235320   4.127   6.179  14.614  0.5828  0.2089 -0.3890
 4610TIP3    H135321   4.097   6.128  14.689 -1.9068 -0.5138 -1.7782
 4610TIP3    H235322   4.175   6.115  14.560  1.7005  0.5481  0.1704
 4611TIP3   OH235323   2.330   0.841   4.209  0.0688 -0.3296 -0.1089
 4611TIP3    H135324   2.351   0.751   4.234  0.9044  0.4446  2.1977
 4611TIP3    H235325   2.245   0.834   4.165  0.4920 -2.3185 -0.7227
 4612TIP3   OH235326   2.685   4.306  12.714 -0.1490  0.0333 -0.2218
 4612TIP3    H135327   2.644   4.232  12.670 -1.8753  0.3584  0.7627
 4612TIP3    H235328   2.778   4.301  12.689 -0.2941 -2.2291 -0.4479
 4613TIP3   OH235329   6.305   1.079  11.171 -0.4948 -0.0711  0.1188
 4613TIP3    H135330   6.323   1.000  11.221  1.6805 -0.2416 -0.8450
 4613TIP3    H235331   6.239   1.125  11.223 -0.6930 -1.7634  1.4666
 4614TIP3   OH235332   3.569   2.597   0.595  0.2519  0.3293 -0.5760
 4614TIP3    H135333   3.523   2.580   0.513  0.0809  0.6951 -0.5562
 4614TIP3    H235334   3.608   2.683   0.583 -1.2434  1.1771  0.3827
 4615TIP3   OH235335   0.569   1.482  14.195 -0.3726  0.2504 -0.3750
 4615TIP3    H135336   0.558   1.392  14.226  1.3362  0.0212 -0.3581
 4615TIP3    H235337   0.639   1.477  14.130 -0.6366  1.4937 -0.7796
 4616TIP3   OH235338   5.723   0.595   0.458 -0.9910 -0.1950 -0.2915
 4616TIP3    H135339   5.725   0.517   0.403 -0.5234  0.1572 -0.7833
 4616TIP3    H235340   5.643   0.585   0.511 -0.9290 -1.0014 -0.3417
 4617TIP3   OH235341   0.749   6.729   3.539  0.0224 -0.1863 -0.2139
 4617TIP3    H135342   0.695   6.807   3.529 -0.4332 -0.5121 -0.3186
 4617TIP3    H235343   0.839   6.761   3.527 -0.0665  0.5093  0.8122
 4618TIP3   OH235344   0.540   5.648  14.520  0.1083  0.3729 -0.1523
 4618TIP3    H135345   0.447   5.626  14.527  0.2251  0.3785  1.8603
 4618TIP3    H235346   0.580   5.570  14.483 -0.4550 -0.3206  0.6445
 4619TIP3   OH235347   5.716   2.007  12.311 -0.2921 -0.4623 -0.0098
 4619TIP3    H135348   5.683   2.092  12.285  0.4567 -0.3216 -0.5380
 4619TIP3    H235349   5.766   1.976  12.235 -0.5342 -1.3558  0.1866
 4620TIP3   OH235350   6.494   6.420   4.559  0.2242  0.4048  0.4633
 4620TIP3    H135351   6.543   6.447   4.481 -2.6555  0.7587 -1.3374
 4620TIP3    H235352   6.554   6.439   4.632  2.6962  0.8707 -1.5366
 4621TIP3   OH235353   4.013   1.263  15.808 -0.2477 -0.2367 -0.1467
 4621TIP3    H135354   3.989   1.354  15.791 -0.6923 -0.1799  0.7518
 4621TIP3    H235355   4.064   1.266  15.889 -0.7764 -0.8439  0.2186
 4622TIP3   OH235356   1.309   2.684  14.478  0.0939  0.4404  0.2074
 4622TIP3    H135357   1.275   2.665  14.391  3.6781  0.3291 -1.3229
 4622TIP3    H235358   1.332   2.598  14.514 -0.3180  0.5761  0.8149
 4623TIP3   OH235359   4.663   4.500   6.489  0.2907 -0.4194 -0.0662
 4623TIP3    H135360   4.650   4.406   6.478  2.1009 -0.8790  1.2537
 4623TIP3    H235361   4.607   4.525   6.562  0.8718 -0.7695  0.5021
 4624TIP3   OH235362   4.860   0.099   2.653  0.1992 -0.3027  0.0867
 4624TIP3    H135363   4.821   0.026   2.603 -2.0155  1.0225 -0.2541
 4624TIP3    H235364   4.837   0.177   2.603  0.4416  0.8433  1.6880
 4625TIP3   OH235365   5.369   0.949   1.640  0.3801  0.1420 -0.1457
 4625TIP3    H135366   5.442   0.952   1.579  0.2905  0.0964 -0.2547
 4625TIP3    H235367   5.358   1.040   1.668 -0.5169  0.4125 -1.3167
 4626TIP3   OH235368   1.422   3.569   4.077 -0.3324  0.5683 -0.8633
 4626TIP3    H135369   1.416   3.633   4.148 -0.2903  0.3778 -0.6869
 4626TIP3    H235370   1.345   3.586   4.023 -0.7866  0.1939 -0.3391
 4627TIP3   OH235371   0.522   1.417  13.225  0.5704 -0.4037  0.0558
 4627TIP3    H135372   0.522   1.388  13.134  0.6521  0.1652 -0.1305
 4627TIP3    H235373   0.436   1.393  13.258  0.3953 -0.2521 -0.2899
 4628TIP3   OH235374   2.730   5.668   6.043  0.3817 -0.4422 -0.4677
 4628TIP3    H135375   2.695   5.583   6.070  2.1455 -1.0845 -0.0594
 4628TIP3    H235376   2.784   5.696   6.118 -0.2012  1.0524 -0.5864
 4629TIP3   OH235377   4.603   4.598   5.107 -0.2351 -0.1530  0.3898
 4629TIP3    H135378   4.637   4.574   5.193  2.2279  0.1583 -0.4021
 4629TIP3    H235379   4.558   4.519   5.076  1.4157 -1.3141  0.7938
 4630TIP3   OH235380   4.559   3.259   2.018  0.0901  0.5050 -0.4687
 4630TIP3    H135381   4.582   3.193   1.953  3.6648 -1.3823  2.3699
 4630TIP3    H235382   4.636   3.316   2.023 -1.0183  2.0063  0.5399
 4631TIP3   OH235383   5.785   3.019  14.432 -0.4855  0.2055 -0.2601
 4631TIP3    H135384   5.838   3.061  14.500  1.2259  0.4827 -1.6694
 4631TIP3    H235385   5.698   3.055  14.443 -0.2345  0.3076  1.7079
 4632TIP3   OH235386   5.216   4.457  14.792  0.7807 -0.0022 -0.3347
 4632TIP3    H135387   5.256   4.377  14.827  1.7902 -1.0046 -3.4777
 4632TIP3    H235388   5.134   4.466  14.840  0.0998 -3.5561 -0.5962
 4633TIP3   OH235389   5.694   0.989   2.915  0.4459 -0.1511 -0.2923
 4633TIP3    H135390   5.734   0.923   2.971 -0.6551  1.1138  2.1395
 4633TIP3    H235391   5.636   0.939   2.857 -1.7030 -1.3634  2.6418
 4634TIP3   OH235392   4.726   0.187  12.493 -1.1524  0.3293  0.1338
 4634TIP3    H135393   4.652   0.161  12.439 -0.6697  0.0936 -0.4202
 4634TIP3    H235394   4.754   0.271  12.458 -0.3955 -0.1587 -0.4414
 4635TIP3   OH235395   2.562   1.302  11.294  0.2061  0.0200  0.0300
 4635TIP3    H135396   2.513   1.229  11.255  0.2471  0.2928 -0.5518
 4635TIP3    H235397   2.502   1.338  11.359  0.7329 -1.4159  1.3652
 4636TIP3   OH235398   3.023   6.400   0.861  0.1342 -0.2988  0.1488
 4636TIP3    H135399   3.039   6.489   0.890 -1.1751 -0.0688  0.2169
 4636TIP3    H235400   3.010   6.408   0.766  3.6187 -0.9417 -0.5529
 4637TIP3   OH235401   1.419   1.008   5.270  0.2893 -0.5764 -0.7966
 4637TIP3    H135402   1.362   1.077   5.305 -0.6249 -1.0026 -1.4054
 4637TIP3    H235403   1.493   1.054   5.231  0.0470  0.0225 -0.5495
 4638TIP3   OH235404   3.675   6.747   1.985  0.3775  0.6698 -0.3139
 4638TIP3    H135405   3.763   6.719   1.961  1.2146  1.8953  1.1938
 4638TIP3    H235406   3.673   6.741   2.080 -1.0176  1.1179 -0.2973
 4639TIP3   OH235407   5.641   6.341  13.042 -0.2885  0.0262 -0.1780
 4639TIP3    H135408   5.611   6.401  12.973 -2.0089 -0.2658  0.2724
 4639TIP3    H235409   5.560   6.309  13.082  0.5661 -2.4602 -0.2795
 4640TIP3   OH235410   1.169   1.860  16.152  0.2739 -0.1282 -0.6303
 4640TIP3    H135411   1.158   1.949  16.117  0.2879  0.8883  1.7323
 4640TIP3    H235412   1.083   1.820  16.145 -0.3815  1.0063  0.5317
 4641TIP3   OH235413   6.727   4.450   0.027 -0.4857  0.5067  0.0743
 4641TIP3    H135414   6.750   4.359   0.008  0.2868  0.8101 -0.5168
 4641TIP3    H235415   6.645   4.464  -0.021 -0.5046  0.1818  0.0055
 4642TIP3   OH235416   3.784   4.522  16.600 -0.5812 -0.5793 -0.6056
 4642TIP3    H135417   3.732   4.550  16.525 -1.8306 -1.8748 -0.2488
 4642TIP3    H235418   3.872   4.555  16.582 -1.4738  1.6027 -1.2573
 4643TIP3   OH235419   2.864   2.117   0.802 -0.3646  0.0435 -0.5742
 4643TIP3    H135420   2.838   2.210   0.802  1.9648  0.7754  0.8935
 4643TIP3    H235421   2.785   2.071   0.829 -1.8403  1.4639 -2.1849
 4644TIP3   OH235422   0.947   2.496  13.806 -0.2374 -0.1479 -0.3501
 4644TIP3    H135423   0.867   2.539  13.832 -0.0400  0.1853 -0.2896
 4644TIP3    H235424   1.017   2.559  13.826  0.2359 -1.1459  1.3713
 4645TIP3   OH235425   3.429   6.251  12.242 -0.2358  0.3170 -0.8662
 4645TIP3    H135426   3.520   6.252  12.273 -0.4966  0.5926 -0.1052
 4645TIP3    H235427   3.417   6.162  12.208 -0.0438 -0.1118  0.1507
 4646TIP3   OH235428   0.563   1.981   1.558 -0.2809 -0.2343 -0.1652
 4646TIP3    H135429   0.503   1.906   1.559  1.5524 -1.8248  1.9581
 4646TIP3    H235430   0.626   1.959   1.489  0.1982 -0.5927  0.3877
 4647TIP3   OH235431   0.153   6.261  13.943 -0.2951 -0.0752 -0.1946
 4647TIP3    H135432   0.171   6.333  13.882  1.7023 -0.5651 -0.2596
 4647TIP3    H235433   0.167   6.298  14.030 -0.8608  0.0233 -0.1428
 4648TIP3   OH235434   3.342   5.631  12.105 -0.6760 -0.0582  0.3938
 4648TIP3    H135435   3.357   5.649  12.198 -2.0556  0.7842  0.4759
 4648TIP3    H235436   3.430   5.624  12.068 -0.1053 -0.0188  1.6867
 4649TIP3   OH235437   0.279   1.960   4.772  0.2389 -0.0977  1.0010
 4649TIP3    H135438   0.331   2.039   4.784  0.5622  0.4419 -2.6720
 4649TIP3    H235439   0.207   1.968   4.835 -0.2900  3.6902  0.1267
 4650TIP3   OH235440   5.133   3.123   0.964  0.2115 -0.3227  0.4667
 4650TIP3    H135441   5.094   3.076   0.890  1.0179  0.6952 -0.6386
 4650TIP3    H235442   5.130   3.060   1.037 -2.7220 -0.5744  0.2441
 4651TIP3   OH235443   4.094   2.075   5.609 -0.2328  0.0427 -0.9539
 4651TIP3    H135444   4.131   2.002   5.561  1.1199  0.3721 -0.4436
 4651TIP3    H235445   4.074   2.040   5.696 -1.3506 -0.1856 -1.2861
 4652TIP3   OH235446   1.212   5.248  16.295 -0.2907 -0.3726 -0.0162
 4652TIP3    H135447   1.265   5.306  16.240  0.6054 -0.0636  1.1196
 4652TIP3    H235448   1.130   5.296  16.308 -0.3102 -0.2264 -0.6584
 4653TIP3   OH235449   1.853   6.249  12.383  0.4651 -0.3294 -0.2088
 4653TIP3    H135450   1.921   6.271  12.321  1.1803  1.9609  1.2744
 4653TIP3    H235451   1.885   6.170  12.427  2.8823  1.3900  1.3442
 4654TIP3   OH235452   2.065   3.878   4.977 -0.5083  0.8350  0.0813
 4654TIP3    H135453   2.158   3.889   4.997 -0.0506  0.1455 -1.4951
 4654TIP3    H235454   2.030   3.827   5.050  0.2012  1.6248  0.9970
 4655TIP3   OH235455   4.770   4.640  15.733  0.3131 -0.4296 -0.0992
 4655TIP3    H135456   4.829   4.565  15.749  0.7038  0.2131  1.7264
 4655TIP3    H235457   4.742   4.667  15.820 -0.1836  1.2855 -0.7596
 4656TIP3   OH235458   1.555   0.294   3.933 -0.0778 -0.0454  0.5301
 4656TIP3    H135459   1.482   0.312   3.874  0.2121 -0.2757  0.0953
 4656TIP3    H235460   1.520   0.312   4.021 -0.2903  1.0314  0.2445
 4657TIP3   OH235461   2.566   2.444   2.464  0.1016 -0.3512 -0.0705
 4657TIP3    H135462   2.553   2.516   2.403  1.7175  0.0673  0.0161
 4657TIP3    H235463   2.478   2.418   2.491 -0.5634  0.5603 -1.2875
 4658TIP3   OH235464   6.454   3.547   4.975  0.0926  0.0381  0.2988
 4658TIP3    H135465   6.445   3.545   4.880 -0.5850 -0.5638  0.3671
 4658TIP3    H235466   6.365   3.538   5.008  0.3426  0.0361  0.9948
 4659TIP3   OH235467   2.409   3.394  17.125  0.3743  0.0382 -0.0030
 4659TIP3    H135468   2.449   3.476  17.095  0.5298 -0.1911 -0.4363
 4659TIP3    H235469   2.372   3.355  17.046  0.3528 -0.3403  0.1906
 4660TIP3   OH235470   6.437   0.757  11.690 -0.3784 -0.1231 -0.0426
 4660TIP3    H135471   6.506   0.711  11.643  0.7830  1.1734  0.3405
 4660TIP3    H235472   6.416   0.699  11.764 -0.2801 -0.8840 -0.5944
 4661TIP3   OH235473   4.770   6.282  12.534 -0.5900  0.0547  0.2060
 4661TIP3    H135474   4.780   6.363  12.483  0.3507  0.0453  0.3628
 4661TIP3    H235475   4.837   6.288  12.602  0.4107 -1.4637 -0.6057
 4662TIP3   OH235476   3.008   1.583  16.962  0.0474 -0.6326  0.0525
 4662TIP3    H135477   2.940   1.595  16.895 -1.1565 -0.1030  1.3108
 4662TIP3    H235478   2.973   1.628  17.039  2.1634  0.2910  0.5458
 4663TIP3   OH235479   6.100   1.325   0.540 -0.0988 -0.0280  0.2868
 4663TIP3    H135480   6.006   1.316   0.557 -0.6163 -0.6589 -2.4118
 4663TIP3    H235481   6.108   1.412   0.500  0.1989 -0.5764 -0.8785
 4664TIP3   OH235482   0.581   3.377  11.104  0.1003  0.0839 -0.2816
 4664TIP3    H135483   0.600   3.358  11.012 -0.4026  0.2907 -0.4256
 4664TIP3    H235484   0.584   3.291  11.147  1.2313  0.0795 -0.3162
 4665TIP3   OH235485   2.453   6.197   5.483  0.0380 -0.1571  0.4592
 4665TIP3    H135486   2.445   6.155   5.568 -0.6578  0.8114  0.9003
 4665TIP3    H235487   2.363   6.222   5.460 -0.0356 -1.8211 -1.3335
 4666TIP3   OH235488   6.116   6.224   2.456 -0.6375 -0.0078 -0.1243
 4666TIP3    H135489   6.071   6.303   2.424 -1.0826  0.2148  0.9998
 4666TIP3    H235490   6.048   6.156   2.455 -0.3522 -0.2927 -0.7262
 4667TIP3   OH235491   1.125   4.082  13.903  0.3023 -0.0702 -0.4359
 4667TIP3    H135492   1.065   4.025  13.855 -0.8303  0.4067  0.3694
 4667TIP3    H235493   1.195   4.024  13.932 -1.3437 -1.3221  1.2659
 4668TIP3   OH235494   1.021   3.624   2.443  0.1415  0.3418  0.2381
 4668TIP3    H135495   1.102   3.666   2.416  0.4544 -0.9927 -1.0251
 4668TIP3    H235496   0.962   3.636   2.369 -0.3148  0.0113  0.5390
 4669TIP3   OH235497   5.237   3.882   0.557  0.7963  0.7915  0.6621
 4669TIP3    H135498   5.148   3.912   0.539  0.5398  0.2557  0.9980
 4669TIP3    H235499   5.282   3.959   0.592  1.1763  1.7180 -1.7411
 4670TIP3   OH235500   2.001   5.222   0.570  0.8336 -0.4346  0.1745
 4670TIP3    H135501   1.948   5.143   0.564  0.3114 -0.2158  1.5689
 4670TIP3    H235502   2.055   5.209   0.648  0.3036  0.8190  0.7802
 4671TIP3   OH235503   3.783   6.151  14.410 -0.5644 -0.6891 -0.0227
 4671TIP3    H135504   3.865   6.152  14.360 -0.4130  0.1052  0.2313
 4671TIP3    H235505   3.811   6.146  14.501 -0.8281 -1.4757  0.0216
 4672TIP3   OH235506   4.929   4.238   5.887 -0.1170 -0.6156 -0.0541
 4672TIP3    H135507   4.865   4.306   5.865  1.3290  0.6515 -0.4798
 4672TIP3    H235508   4.948   4.253   5.980 -0.3279 -0.9282  0.0445
 4673TIP3   OH235509   3.233   6.301  15.473  0.1035  0.1582  0.0115
 4673TIP3    H135510   3.272   6.332  15.392  0.1616  0.2758  0.0830
 4673TIP3    H235511   3.301   6.247  15.514  0.7168  1.4737  0.8021
 4674TIP3   OH235512   0.787   1.238   2.490  0.1351 -0.2777  0.5703
 4674TIP3    H135513   0.755   1.154   2.524  1.3367 -1.1116 -0.2574
 4674TIP3    H235514   0.868   1.215   2.443 -0.1733  1.1647 -0.7406
 4675TIP3   OH235515   3.992   5.167   6.037 -0.2395 -0.4648  0.0959
 4675TIP3    H135516   3.956   5.152   5.950  1.1769 -0.8362 -0.4531
 4675TIP3    H235517   3.926   5.131   6.097  0.4500 -3.7430 -0.9611
 4676TIP3   OH235518   0.025   1.592   5.492 -0.3623  0.0927 -0.5579
 4676TIP3    H135519   0.054   1.573   5.581  1.6049 -1.8360 -1.5165
 4676TIP3    H235520  -0.070   1.579   5.494 -0.1368 -1.7125  0.8657
 4677TIP3   OH235521   2.713   1.280  17.042 -0.2577  0.2241  0.0274
 4677TIP3    H135522   2.780   1.231  17.090 -0.7316 -2.3630 -1.7960
 4677TIP3    H235523   2.700   1.359  17.095  2.9723  0.0369  1.3431
 4678TIP3   OH235524   3.259   6.311   1.389  0.4949  0.4022 -0.1833
 4678TIP3    H135525   3.212   6.390   1.414  0.6335  0.3299  0.3167
 4678TIP3    H235526   3.262   6.259   1.469  2.1500  0.7670  0.0134
 4679TIP3   OH235527   5.457   3.579  12.976  0.0121 -0.0929  0.4329
 4679TIP3    H135528   5.553   3.579  12.971  0.1209  1.3428  1.8712
 4679TIP3    H235529   5.436   3.504  13.032  0.2190 -0.8802 -0.5109
 4680TIP3   OH235530   3.284   0.705  12.150  0.7759 -0.2567  0.4760
 4680TIP3    H135531   3.355   0.767  12.134 -1.2365  1.5645 -2.4063
 4680TIP3    H235532   3.306   0.629  12.096  1.1373 -0.2363  0.5908
 4681TIP3   OH235533   0.684   4.589   5.061  0.3117 -0.1579 -0.2532
 4681TIP3    H135534   0.739   4.528   5.012 -0.4025 -0.7108 -0.3909
 4681TIP3    H235535   0.735   4.610   5.140  1.9181  1.5393 -1.6460
 4682TIP3   OH235536   6.691   1.251  15.229 -0.2709  0.0413  0.2539
 4682TIP3    H135537   6.676   1.303  15.150 -0.5458 -0.0399  0.2518
 4682TIP3    H235538   6.741   1.309  15.287 -0.0001  0.0736 -0.0087
 4683TIP3   OH235539   5.827   3.574   1.353  0.9708 -0.3637 -0.2665
 4683TIP3    H135540   5.844   3.479   1.355  0.4286 -0.4650 -0.2131
 4683TIP3    H235541   5.858   3.602   1.268 -2.1641 -1.2619 -1.8769
 4684TIP3   OH235542   1.883   0.775  15.446  0.2087  0.2432 -0.2398
 4684TIP3    H135543   1.903   0.747  15.535 -1.7852 -2.4323 -0.4845
 4684TIP3    H235544   1.807   0.833  15.455  0.4918  0.6057 -0.1629
 4685TIP3   OH235545   6.642   0.617  13.641 -0.0923 -0.6392  0.2857
 4685TIP3    H135546   6.725   0.577  13.615  0.2436  1.4853 -2.4056
 4685TIP3    H235547   6.666   0.683  13.706  0.0251 -1.2946  0.9243
 4686TIP3   OH235548   3.297   3.123   4.086 -0.5702  0.6264  0.0053
 4686TIP3    H135549   3.282   3.210   4.049  1.1662  0.4148 -1.3407
 4686TIP3    H235550   3.367   3.136   4.151 -0.2858  0.2457 -0.2178
 4687TIP3   OH235551   0.284   0.242   2.710  0.3718 -0.4153 -0.0363
 4687TIP3    H135552   0.309   0.242   2.802 -1.7714 -1.0180  0.5934
 4687TIP3    H235553   0.189   0.244   2.710  0.3155  0.1309 -2.2663
 4688TIP3   OH235554   1.933   3.973  13.244 -0.1413 -0.3943  0.5580
 4688TIP3    H135555   1.847   3.960  13.284 -1.5018 -0.8342 -2.2847
 4688TIP3    H235556   1.930   4.062  13.209 -0.5858 -1.3369 -1.9729
 4689TIP3   OH235557   0.399   0.098   0.087 -0.1585  0.7571  0.1564
 4689TIP3    H135558   0.398   0.149   0.168 -0.4694  1.3890 -0.2360
 4689TIP3    H235559   0.318   0.122   0.043  0.9885  2.0500 -1.3375
 4690TIP3   OH235560   1.193   0.880  17.250  1.0632 -0.4353 -0.1617
 4690TIP3    H135561   1.142   0.799  17.247 -2.0590  1.3912 -0.4204
 4690TIP3    H235562   1.193   0.905  17.343  1.1164 -0.1905 -0.2269
 4691TIP3   OH235563   6.333   1.757  14.332  0.2429  0.1424  0.0845
 4691TIP3    H135564   6.363   1.792  14.248 -1.4335 -2.1376 -1.5773
 4691TIP3    H235565   6.311   1.835  14.383  0.1273  1.5967 -2.0216
 4692TIP3   OH235566   6.479   1.721  15.911  0.2456  0.0961  0.0520
 4692TIP3    H135567   6.404   1.754  15.863  1.0279  1.4390 -0.2922
 4692TIP3    H235568   6.534   1.798  15.926  2.1023 -1.0330 -0.6884
 4693TIP3   OH235569   2.604   2.414   4.210  0.5098  0.3206  0.3216
 4693TIP3    H135570   2.642   2.502   4.217  1.1476 -0.0038  1.1309
 4693TIP3    H235571   2.590   2.387   4.301 -1.9394  0.5192  0.0925
 4694TIP3   OH235572   2.210   3.990  14.057 -0.6873 -0.2942 -0.5965
 4694TIP3    H135573   2.181   4.049  13.987 -0.0081  0.3627 -0.3473
 4694TIP3    H235574   2.257   3.920  14.011  1.3631  1.0804 -0.7444
 4695TIP3   OH235575   1.671   1.366  11.565 -0.4073  0.2427  0.7305
 4695TIP3    H135576   1.657   1.284  11.518 -1.8359  0.9008 -0.0799
 4695TIP3    H235577   1.711   1.425  11.501  2.3762 -0.3078  1.8278
 4696TIP3   OH235578   4.808   2.409   4.413  0.1804 -0.5168  0.0822
 4696TIP3    H135579   4.749   2.334   4.408 -0.9225  0.3650 -0.5180
 4696TIP3    H235580   4.861   2.403   4.334 -0.0402 -0.5589 -0.0637
 4697TIP3   OH235581   2.968   5.619   4.068  0.1285 -0.1486  0.4383
 4697TIP3    H135582   2.960   5.547   4.131 -1.0631  1.3898  2.1047
 4697TIP3    H235583   2.993   5.695   4.120  1.2205  0.7460 -1.2707
 4698TIP3   OH235584   3.024   3.724   1.472  0.3625 -0.3498 -0.2437
 4698TIP3    H135585   2.980   3.733   1.388  0.6480 -0.0848 -0.3659
 4698TIP3    H235586   3.000   3.803   1.520 -0.1610 -0.7055  0.0967
 4699TIP3   OH235587   4.860   6.006  12.912  0.7660 -0.0087 -0.5416
 4699TIP3    H135588   4.827   6.091  12.941  2.1029  1.0247 -1.8551
 4699TIP3    H235589   4.916   5.976  12.984  0.3365  0.2525 -0.0955
 4700TIP3   OH235590   5.841   4.196   0.571  0.0043  0.5233 -0.3738
 4700TIP3    H135591   5.882   4.256   0.633 -1.0288  1.6603 -0.7383
 4700TIP3    H235592   5.865   4.109   0.601  2.0937  1.1049 -0.1831
 4701TIP3   OH235593   5.851   5.373   1.400 -0.5260  0.0153  0.1232
 4701TIP3    H135594   5.908   5.390   1.476  0.1698  2.3602 -0.8291
 4701TIP3    H235595   5.882   5.289   1.366  0.2292 -0.3041  1.4803
 4702TIP3   OH235596   0.599   4.107  13.746  0.0627 -0.4201  0.3967
 4702TIP3    H135597   0.542   4.176  13.710  2.1707  0.4628 -1.4773
 4702TIP3    H235598   0.663   4.154  13.799  1.3643 -0.9239 -0.6882
 4703TIP3   OH235599   3.063   5.890   5.559 -0.2888  0.6908 -0.5588
 4703TIP3    H135600   3.042   5.840   5.638 -0.1354 -0.1189 -1.0228
 4703TIP3    H235601   3.123   5.959   5.590  0.6236 -0.2564 -0.1316
 4704TIP3   OH235602   5.637   5.436   0.383  0.0573  0.2755  0.1865
 4704TIP3    H135603   5.716   5.462   0.431 -0.6617 -0.4778  1.8626
 4704TIP3    H235604   5.651   5.343   0.363 -1.0286 -0.3062  1.9112
 4705TIP3   OH235605   4.600   2.723  16.888  0.6697  0.2448 -0.0584
 4705TIP3    H135606   4.594   2.685  16.801 -0.4664  0.9211 -0.2929
 4705TIP3    H235607   4.551   2.664  16.945  1.2794 -0.1132  0.1100
 4706TIP3   OH235608   6.766   1.025  10.738  0.0597  0.2470 -0.2671
 4706TIP3    H135609   6.702   1.096  10.730  1.3008  1.6236  1.2406
 4706TIP3    H235610   6.827   1.040  10.665  0.4854  0.9657  0.2150
 4707TIP3   OH235611   3.246   3.746   6.054 -0.2223 -0.0330 -0.7996
 4707TIP3    H135612   3.268   3.800   6.130  1.5454 -2.6357  0.6720
 4707TIP3    H235613   3.232   3.658   6.089 -1.5710 -0.9149 -3.2504
 4708TIP3   OH235614   2.384   4.604   5.914  0.3275 -0.0606  0.0187
 4708TIP3    H135615   2.325   4.679   5.903 -0.2890 -0.6227 -0.6908
 4708TIP3    H235616   2.357   4.565   5.997 -0.2611 -0.2671 -0.2620
 4709TIP3   OH235617   2.156   5.973   1.014 -0.2276  0.8334  0.2381
 4709TIP3    H135618   2.146   5.921   1.094 -0.0453  1.0916  0.4306
 4709TIP3    H235619   2.248   5.962   0.989 -0.3889  0.4068 -0.1783
 4710TIP3   OH235620   0.147   2.834  11.963  0.2314  0.3787  0.7411
 4710TIP3    H135621   0.053   2.841  11.949  0.4551  0.3417 -0.9776
 4710TIP3    H235622   0.185   2.904  11.910  1.1730  0.5339  1.5834
 4711TIP3   OH235623   3.252   4.867  11.634 -0.2512 -0.1360 -0.1611
 4711TIP3    H135624   3.290   4.955  11.640 -0.4477 -0.0223 -0.5472
 4711TIP3    H235625   3.178   4.877  11.573 -1.3261 -0.2040  1.0849
 4712TIP3   OH235626   3.470   2.424   5.501  0.3569  0.5379  0.4785
 4712TIP3    H135627   3.415   2.351   5.528  1.7700 -0.6699  0.2017
 4712TIP3    H235628   3.410   2.498   5.493 -1.2073 -0.7221  0.2121
 4713TIP3   OH235629   0.809   1.107   4.671 -1.2534  0.3500  0.9394
 4713TIP3    H135630   0.870   1.156   4.726 -0.5891  1.3027 -0.5995
 4713TIP3    H235631   0.740   1.170   4.649 -0.1899  0.8140 -1.3745
 4714TIP3   OH235632   1.673   2.328   2.598 -0.0062 -0.1322 -0.0297
 4714TIP3    H135633   1.642   2.359   2.683  0.5594 -3.6716  1.6244
 4714TIP3    H235634   1.595   2.288   2.558  0.3715 -1.0787  0.1602
 4715TIP3   OH235635   2.697   4.923  11.706  0.1037  0.0949  0.1010
 4715TIP3    H135636   2.639   4.876  11.646  1.8236 -0.0670 -1.4961
 4715TIP3    H235637   2.718   4.858  11.774 -1.0697 -0.0213  0.3798
 4716TIP3   OH235638   5.533   6.311   4.933  0.0062  0.4575 -0.0083
 4716TIP3    H135639   5.472   6.382   4.913 -0.7774  0.0812  0.9739
 4716TIP3    H235640   5.512   6.243   4.869 -0.1585  0.5783 -0.0837
 4717TIP3   OH235641   3.450   5.125   2.706 -0.7888  0.4027 -0.1841
 4717TIP3    H135642   3.462   5.157   2.617  1.3264 -1.2391 -0.5612
 4717TIP3    H235643   3.537   5.098   2.734 -1.2652  1.4372  2.6464
 4718TIP3   OH235644   0.204   2.220  11.215  0.2499 -0.0307 -0.0237
 4718TIP3    H135645   0.170   2.149  11.160 -2.6449  1.1276  0.1147
 4718TIP3    H235646   0.226   2.290  11.153 -0.1601  0.1859  0.0734
 4719TIP3   OH235647   5.616   1.699  11.683  0.2488 -0.5088  0.0943
 4719TIP3    H135648   5.564   1.779  11.674  1.6629  0.8399  2.7143
 4719TIP3    H235649   5.648   1.681  11.595 -2.4693  0.0709 -1.1152
 4720TIP3   OH235650   0.315   6.575  12.480  0.3605 -0.6088 -0.1275
 4720TIP3    H135651   0.369   6.498  12.498  0.4607 -1.1535 -2.3919
 4720TIP3    H235652   0.366   6.626  12.417 -0.5303  0.3468 -0.1053
 4721TIP3   OH235653   1.407   0.570   3.693 -0.6208  0.1037 -0.1320
 4721TIP3    H135654   1.394   0.475   3.694  0.1502 -0.1109 -2.7914
 4721TIP3    H235655   1.500   0.581   3.709 -0.4195  0.2755 -1.3260
 4722TIP3   OH235656   2.903   4.167  13.633 -0.1558 -0.3098 -0.3831
 4722TIP3    H135657   2.983   4.149  13.682 -0.4183  0.2742  0.2855
 4722TIP3    H235658   2.932   4.218  13.557  0.0956 -0.0064 -0.0878
 4723TIP3   OH235659   2.318   2.735   0.453  1.0414  0.2337 -0.0449
 4723TIP3    H135660   2.386   2.715   0.517 -0.1333 -0.2354  1.1000
 4723TIP3    H235661   2.236   2.720   0.500  0.1429  0.9137 -1.3481
 4724TIP3   OH235662   2.754   2.238  16.835 -0.3445 -0.3990  0.1485
 4724TIP3    H135663   2.712   2.246  16.750 -0.0069  0.2420  0.0357
 4724TIP3    H235664   2.810   2.161  16.827  1.0894  0.7053 -0.8301
 4725TIP3   OH235665   3.722   6.367  14.134  0.1728 -0.5317  0.5665
 4725TIP3    H135666   3.658   6.431  14.103 -0.6312 -1.2491  0.7132
 4725TIP3    H235667   3.689   6.283  14.102  1.7012 -0.8013 -0.4221
 4726TIP3   OH235668   0.844   1.775   4.004 -0.0875 -0.0653  0.2141
 4726TIP3    H135669   0.773   1.745   4.061 -1.2781  0.0083 -1.1798
 4726TIP3    H235670   0.895   1.696   3.986 -0.9307 -0.4990 -0.3003
 4727TIP3   OH235671   0.273   6.797  14.452 -0.3522  0.0419  0.3892
 4727TIP3    H135672   0.326   6.834  14.522 -1.0658  2.7056 -0.3815
 4727TIP3    H235673   0.262   6.868  14.390 -2.2055 -1.3702 -1.0148
 4728TIP3   OH235674   3.937   1.760   5.467  0.3898  0.0104 -0.3822
 4728TIP3    H135675   3.854   1.802   5.488  0.0392 -0.0286 -1.6484
 4728TIP3    H235676   3.932   1.674   5.509  0.8970  0.9586  1.7815
 4729TIP3   OH235677   4.739   5.430  16.553 -0.0300 -0.2702  0.5261
 4729TIP3    H135678   4.716   5.478  16.632 -0.4143  0.8632 -0.2628
 4729TIP3    H235679   4.664   5.440  16.495 -0.3446 -2.2545  0.5074
 4730TIP3   OH235680   5.125   4.438   3.095  0.0604  0.0791 -0.2783
 4730TIP3    H135681   5.118   4.382   3.018  2.2671 -0.4725 -0.1275
 4730TIP3    H235682   5.203   4.490   3.080  1.5513 -1.2336  2.2901
 4731TIP3   OH235683   0.056   2.993   6.163  0.4814  0.0912  0.1655
 4731TIP3    H135684   0.062   3.069   6.221  0.0446 -0.1777  0.5716
 4731TIP3    H235685  -0.037   2.975   6.156  0.5462 -0.0615 -0.3919
 4732TIP3   OH235686   3.864   4.996  17.122 -0.0333  0.6287  0.0899
 4732TIP3    H135687   3.954   5.028  17.116  0.4685 -0.8631 -0.9231
 4732TIP3    H235688   3.827   5.043  17.197  1.3064  1.8988  0.0116
 4733TIP3   OH235689   2.454   0.061  13.397 -0.1019  0.2406 -0.1649
 4733TIP3    H135690   2.467   0.047  13.303 -0.4342  0.0881 -0.1925
 4733TIP3    H235691   2.525   0.014  13.439  0.8398  1.4230 -0.3872
 4734TIP3   OH235692   1.693   3.656  13.357  0.3816 -0.2104  0.5008
 4734TIP3    H135693   1.630   3.663  13.429 -0.5565 -1.6739 -0.1232
 4734TIP3    H235694   1.726   3.745  13.345  0.5199  0.0867  2.6740
 4735TIP3   OH235695   2.808   1.831   0.255  0.1862 -0.5991  0.1144
 4735TIP3    H135696   2.814   1.763   0.322 -1.0328 -1.1755 -0.3260
 4735TIP3    H235697   2.774   1.908   0.300 -2.2786 -1.4762 -0.1020
 4736TIP3   OH235698   0.952   4.713   5.530  0.3034  0.3468  0.2874
 4736TIP3    H135699   1.019   4.775   5.560  1.9497 -0.6782 -1.0900
 4736TIP3    H235700   0.883   4.718   5.596  0.8086  2.9292  0.6944
 4737TIP3   OH235701   2.380   5.672   1.026 -0.3588 -0.0781  0.4379
 4737TIP3    H135702   2.402   5.652   1.117  1.8257 -0.7187 -0.1757
 4737TIP3    H235703   2.369   5.767   1.023 -0.8954 -0.0985  1.4375
 4738TIP3   OH235704   4.441   3.632   1.837  0.3305 -0.0645  0.3455
 4738TIP3    H135705   4.522   3.681   1.851  0.6513 -0.4440 -0.1392
 4738TIP3    H235706   4.426   3.638   1.742 -0.1007 -0.1694  0.4042
 4739TIP3   OH235707   2.635   0.089   3.192 -0.3097  0.1367  0.1389
 4739TIP3    H135708   2.682   0.021   3.240 -2.7124 -1.4975  0.3126
 4739TIP3    H235709   2.656   0.073   3.100 -2.3529 -2.1848 -0.0163
 4740TIP3   OH235710   3.656   5.257   4.385  0.0097 -0.4774  0.4809
 4740TIP3    H135711   3.673   5.350   4.404 -1.1728  0.1670 -1.2941
 4740TIP3    H235712   3.621   5.222   4.467  0.4629  0.6486  1.1874
 4741TIP3   OH235713   6.394   0.469   4.801  0.2705  0.1005  0.4477
 4741TIP3    H135714   6.304   0.438   4.791  0.4346 -0.3764  0.3917
 4741TIP3    H235715   6.417   0.448   4.891 -0.1306  1.4732  0.8837
 4742TIP3   OH235716   2.407   4.778  11.671  0.4498 -0.3641  0.2522
 4742TIP3    H135717   2.355   4.784  11.590  0.4302  2.9353  0.3845
 4742TIP3    H235718   2.394   4.687  11.700  1.0038 -1.9300 -3.7223
 4743TIP3   OH235719   0.102   5.056   0.654 -0.1676 -0.2701  0.4560
 4743TIP3    H135720   0.072   5.006   0.578 -2.7274 -0.2927  1.3705
 4743TIP3    H235721   0.137   4.990   0.714  1.7183 -0.2670 -0.5524
 4744TIP3   OH235722   1.467   2.991   1.966  0.0490  0.6302 -0.4468
 4744TIP3    H135723   1.445   2.920   2.025 -0.5472  0.7964 -0.4662
 4744TIP3    H235724   1.561   3.006   1.980  0.0147  0.3425  0.0950
 4745TIP3   OH235725   1.566   1.851  10.770 -0.3535  0.3081 -0.0934
 4745TIP3    H135726   1.588   1.909  10.697  0.3769  0.8199  0.5146
 4745TIP3    H235727   1.511   1.904  10.827  0.6026  0.5354  0.6377
 4746TIP3   OH235728   1.726   5.021  11.648 -0.3891 -0.5206 -0.0451
 4746TIP3    H135729   1.821   5.028  11.652 -0.4094  1.7364 -1.8871
 4746TIP3    H235730   1.704   5.034  11.556 -2.5739  1.1421  0.6119
 4747TIP3   OH235731   3.182   5.215  17.076 -0.2816  0.2407  0.4888
 4747TIP3    H135732   3.274   5.191  17.064 -0.4248 -0.0541 -0.0274
 4747TIP3    H235733   3.133   5.149  17.027 -0.7124  1.2560 -0.4670
 4748TIP3   OH235734   0.273   0.203  16.178  0.0231 -0.9227 -0.3140
 4748TIP3    H135735   0.327   0.143  16.126 -0.4970 -1.2607 -0.4802
 4748TIP3    H235736   0.265   0.281  16.123 -0.7061 -1.3637 -0.8497
 4749TIP3   OH235737   1.966   3.620  13.384  0.2361 -0.9865 -0.0583
 4749TIP3    H135738   2.006   3.686  13.326 -0.4652 -0.3508  0.1641
 4749TIP3    H235739   1.997   3.643  13.471  1.0809 -1.7888 -0.1256
 4750TIP3   OH235740   2.942   3.818  14.821 -0.6029 -0.0712 -0.3041
 4750TIP3    H135741   2.878   3.823  14.892 -1.1629 -0.7711 -0.7430
 4750TIP3    H235742   3.025   3.844  14.861 -0.3992 -2.7355  1.2697
 4751TIP3   OH235743   6.399   3.440   5.963  0.4528  0.4071  0.1486
 4751TIP3    H135744   6.465   3.371   5.951  1.1925  0.9581  0.8658
 4751TIP3    H235745   6.441   3.501   6.023 -1.0328  0.3765  1.2597
 4752TIP3   OH235746   1.065   6.211  16.627 -0.6240 -0.0401  0.3318
 4752TIP3    H135747   1.072   6.202  16.722  1.5986 -0.9740  0.1361
 4752TIP3    H235748   1.016   6.134  16.600 -0.7346 -0.0883  0.6569
 4753TIP3   OH235749   1.954   4.463  11.371 -0.0780 -0.2026 -0.1669
 4753TIP3    H135750   1.917   4.537  11.419 -2.0701 -0.2245 -1.5251
 4753TIP3    H235751   1.988   4.503  11.290 -0.4459 -0.6531 -0.5474
 4754TIP3   OH235752   4.798   0.197  14.624  0.0760  0.0828 -0.2617
 4754TIP3    H135753   4.846   0.167  14.547 -0.5090  0.0821 -0.6276
 4754TIP3    H235754   4.771   0.117  14.668 -0.3244  0.0729 -0.5174
 4755TIP3   OH235755   1.993   3.159   5.547  0.3925  0.5163 -0.3173
 4755TIP3    H135756   1.998   3.150   5.642 -0.9972  1.1711 -0.1519
 4755TIP3    H235757   2.050   3.233   5.527  0.0806  0.8863  0.1225
 4756TIP3   OH235758   1.418   2.465  14.576 -0.8936 -0.3181 -0.4107
 4756TIP3    H135759   1.488   2.527  14.596 -0.6551 -1.2682  2.0215
 4756TIP3    H235760   1.366   2.461  14.656 -3.3682 -0.1807 -1.9084
 4757TIP3   OH235761   5.362   3.853   0.331 -0.6770  0.5010  0.6661
 4757TIP3    H135762   5.324   3.923   0.277 -2.0667 -0.1142  0.7974
 4757TIP3    H235763   5.311   3.855   0.411  0.1961  0.2254  1.2406
 4758TIP3   OH235764   6.272   3.923  11.361  0.4438  0.0136 -0.1647
 4758TIP3    H135765   6.207   3.901  11.426  1.0996 -1.5877 -0.0072
 4758TIP3    H235766   6.224   3.927  11.278 -0.3549  1.8726  0.3384
 4759TIP3   OH235767   1.511   6.542  16.327 -0.1686  0.2644  0.1806
 4759TIP3    H135768   1.525   6.600  16.403 -0.3752  1.6046 -0.7640
 4759TIP3    H235769   1.514   6.454  16.363  1.1168  0.8262  1.5334
 4760TIP3   OH235770   5.308   2.840   0.067 -0.2872  0.1256  0.5280
 4760TIP3    H135771   5.251   2.907   0.104 -0.5367 -0.1355  0.6232
 4760TIP3    H235772   5.349   2.799   0.143  0.5460  0.7576  0.4333
 4761TIP3   OH235773   1.103   2.132  12.743  0.1657 -0.0080  0.3793
 4761TIP3    H135774   1.017   2.127  12.786  0.4400  0.1406  0.9656
 4761TIP3    H235775   1.119   2.044  12.710 -0.3528  0.0419 -0.0091
 4762TIP3   OH235776   3.636   3.094  13.108 -0.5525  0.4965  0.1839
 4762TIP3    H135777   3.695   3.120  13.038 -2.1241  1.9992 -0.6482
 4762TIP3    H235778   3.551   3.131  13.083 -1.8959 -1.6422  1.2724
 4763TIP3   OH235779   1.525   2.871  16.434 -0.0719  0.4880  0.6287
 4763TIP3    H135780   1.570   2.948  16.398  0.0585  1.0917  2.0222
 4763TIP3    H235781   1.432   2.893  16.428 -0.0826  0.2837  0.0141
 4764TIP3   OH235782   1.705   1.489  11.919 -0.6967 -0.1992  0.2991
 4764TIP3    H135783   1.637   1.505  11.984 -2.3297  1.0306 -1.5916
 4764TIP3    H235784   1.657   1.465  11.839  1.0635  0.7064 -1.1102
 4765TIP3   OH235785   5.165   0.889  13.518  0.0949  0.4366 -0.0128
 4765TIP3    H135786   5.078   0.849  13.520 -0.8477  2.3383 -0.5135
 4765TIP3    H235787   5.220   0.824  13.475 -0.8976 -1.0959  0.9342
 4766TIP3   OH235788   5.618   0.057  11.788 -0.0695 -0.2525 -0.6608
 4766TIP3    H135789   5.663   0.101  11.717 -0.4172  0.9061 -0.1780
 4766TIP3    H235790   5.681  -0.009  11.819  0.7776  0.4391 -0.8685
 4767TIP3   OH235791   1.048   3.762   1.227  0.0081 -0.1887  0.1595
 4767TIP3    H135792   0.955   3.773   1.247 -0.1031 -0.4960 -0.1871
 4767TIP3    H235793   1.089   3.843   1.258 -0.4146  0.0672  0.0511
 4768TIP3   OH235794   0.860   6.423   3.139  0.4979  0.6579 -0.1236
 4768TIP3    H135795   0.940   6.417   3.190 -0.2649  1.7176  1.2653
 4768TIP3    H235796   0.813   6.342   3.159  0.7781  0.4806 -0.1713
 4769TIP3   OH235797   6.629   1.165   2.867  0.3740  0.1533 -0.5435
 4769TIP3    H135798   6.619   1.094   2.802  0.6356 -1.4892  1.1223
 4769TIP3    H235799   6.720   1.191   2.860 -0.1561  1.7657 -2.5013
 4770TIP3   OH235800   4.544   6.335  12.978  0.1848 -0.0470 -0.3106
 4770TIP3    H135801   4.475   6.401  12.991 -0.0620  0.3636 -3.0838
 4770TIP3    H235802   4.498   6.251  12.984 -0.3592  0.1943 -0.9388
 4771TIP3   OH235803   3.526   6.189  13.906 -0.7866 -0.2436 -0.6196
 4771TIP3    H135804   3.460   6.130  13.869 -0.9798 -0.7121  0.4357
 4771TIP3    H235805   3.560   6.142  13.982  0.7392  0.0136 -1.1095
 4772TIP3   OH235806   2.347   0.403   0.724  0.4653 -0.1502 -0.6735
 4772TIP3    H135807   2.413   0.462   0.686  0.8746 -0.1345  0.0397
 4772TIP3    H235808   2.396   0.324   0.747  0.0482 -0.5073 -0.9968
 4773TIP3   OH235809   0.158   6.338  11.601 -0.4764  0.3341  0.0360
 4773TIP3    H135810   0.098   6.281  11.554 -2.5427  2.8977 -0.7337
 4773TIP3    H235811   0.238   6.339  11.548 -0.3035 -1.8219  0.1677
 4774TIP3   OH235812   3.324   3.388   4.785 -0.1153  0.5290 -0.0694
 4774TIP3    H135813   3.272   3.345   4.853 -0.5068  0.3723 -0.4595
 4774TIP3    H235814   3.354   3.470   4.824  0.9292 -0.2451  0.8154
 4775TIP3   OH235815   2.648   0.291  14.086 -0.2410 -0.2375  0.1025
 4775TIP3    H135816   2.684   0.250  14.007  0.9963 -1.0677  1.0475
 4775TIP3    H235817   2.636   0.218  14.146 -0.0524  0.5245  1.0813
 4776TIP3   OH235818   0.377   1.418  15.880 -0.4979  0.4538 -0.5104
 4776TIP3    H135819   0.376   1.500  15.929  0.3895 -0.8108  1.8068
 4776TIP3    H235820   0.323   1.358  15.931  2.3119 -1.5983  0.3094
 4777TIP3   OH235821   6.005   3.241   1.914  0.3560 -0.2906 -0.1304
 4777TIP3    H135822   6.080   3.204   1.868  0.0155  0.4107 -1.2807
 4777TIP3    H235823   5.940   3.171   1.914 -0.0863  0.0828 -1.8129
 4778TIP3   OH235824   0.551   0.260   3.151  0.0026  0.0858  0.0377
 4778TIP3    H135825   0.635   0.219   3.172 -0.5319 -0.8390  0.4432
 4778TIP3    H235826   0.570   0.354   3.147  1.2033 -0.1732 -0.6616
 4779TIP3   OH235827   3.380   6.564   1.769  0.0488 -0.4245  0.1294
 4779TIP3    H135828   3.423   6.479   1.780 -0.1579 -0.5444  0.0154
 4779TIP3    H235829   3.388   6.606   1.855 -1.9576 -1.5392  0.9275
 4780TIP3   OH235830   4.041   4.921  14.225  0.5451  0.4081 -0.0191
 4780TIP3    H135831   4.017   4.989  14.289  0.4407 -0.0982  0.4880
 4780TIP3    H235832   4.052   4.969  14.143 -2.6933  0.6609 -0.4494
 4781TIP3   OH235833   2.030   4.194  12.345 -0.4224  0.3087 -0.0871
 4781TIP3    H135834   2.111   4.230  12.381 -0.3566  0.7895 -0.7074
 4781TIP3    H235835   1.978   4.271  12.322 -2.1372  0.0920  2.6125
 4782TIP3   OH235836   5.036   5.935   5.614  0.2950 -0.0174  0.0646
 4782TIP3    H135837   5.095   5.898   5.680 -0.2496  0.9023  1.0929
 4782TIP3    H235838   5.094   5.981   5.553  0.8082 -0.9206 -0.1475
 4783TIP3   OH235839   5.378   5.068  14.050 -0.3146 -0.2737  0.4844
 4783TIP3    H135840   5.354   5.015  13.974  0.8397 -1.0975  0.6669
 4783TIP3    H235841   5.460   5.110  14.025  0.5432 -1.2536  1.5947
 4784TIP3   OH235842   0.092   5.703  16.895 -0.2961  0.3112 -0.1171
 4784TIP3    H135843   0.136   5.783  16.867 -1.1413  0.2717 -1.6726
 4784TIP3    H235844  -0.001   5.720  16.881 -0.5102 -0.8474 -0.2689
 4785TIP3   OH235845   4.044   0.586   5.674 -0.3566 -0.2756  0.3689
 4785TIP3    H135846   4.090   0.663   5.710 -0.9932 -0.5508  1.8309
 4785TIP3    H235847   3.956   0.618   5.654 -0.0602 -0.1696 -0.8458
 4786TIP3   OH235848   1.074   3.399  17.324  0.0365  0.3097 -0.0720
 4786TIP3    H135849   1.132   3.411  17.399 -0.3339  0.9904  0.1188
 4786TIP3    H235850   0.986   3.398  17.361 -0.1571  0.7660 -0.5024
 4787TIP3   OH235851   1.189   0.669  15.556  0.2420 -0.3884  0.0967
 4787TIP3    H135852   1.244   0.734  15.512  0.7803 -1.4287 -0.8239
 4787TIP3    H235853   1.118   0.651  15.494  1.4156 -2.4278 -0.7852
 4788TIP3   OH235854   1.961   2.382   2.611  0.0028  0.0629  0.3596
 4788TIP3    H135855   1.984   2.341   2.528  0.1197  0.3591  0.2442
 4788TIP3    H235856   1.866   2.372   2.617  0.2022 -1.7126  1.1345
 4789TIP3   OH235857   2.906   5.351  16.515  0.6506  0.1201 -0.2306
 4789TIP3    H135858   2.995   5.317  16.522  0.7096  0.6386  2.7366
 4789TIP3    H235859   2.916   5.446  16.517  0.0327  0.1799  0.2716
 4790TIP3   OH235860   0.343   0.722   1.159  0.4867 -0.2636 -0.0732
 4790TIP3    H135861   0.258   0.699   1.122  0.2457  0.4949 -0.0175
 4790TIP3    H235862   0.326   0.802   1.210  1.1316 -0.3825  0.3461
 4791TIP3   OH235863   1.780   0.941   3.644  0.4786  0.0040  0.1065
 4791TIP3    H135864   1.822   0.912   3.563  0.3884  2.3544 -0.8779
 4791TIP3    H235865   1.852   0.980   3.694  0.3881 -0.7161  0.7974
 4792TIP3   OH235866   3.374   1.062  14.193 -0.4608  0.2582  0.4663
 4792TIP3    H135867   3.466   1.082  14.207 -0.7897  1.8493  0.5675
 4792TIP3    H235868   3.331   1.147  14.188 -2.1947 -0.4378  2.2110
 4793TIP3   OH235869   0.125   1.406  13.497 -0.9125  0.3101 -0.2252
 4793TIP3    H135870   0.117   1.345  13.570  0.5115 -0.5553 -0.7524
 4793TIP3    H235871   0.130   1.350  13.420  3.6771  0.7444 -0.5190
 4794TIP3   OH235872   5.019   5.437  16.207  0.2393  0.2862 -0.2220
 4794TIP3    H135873   4.986   5.391  16.284 -1.9572  0.8154 -0.7824
 4794TIP3    H235874   4.943   5.446  16.150  1.4488  1.3453 -1.7542
 4795TIP3   OH235875   0.614   4.852   3.609  0.3263 -0.1276 -0.0464
 4795TIP3    H135876   0.699   4.893   3.591  0.1348  0.6629  0.7844
 4795TIP3    H235877   0.551   4.906   3.561  0.2534 -0.4931 -0.3629
 4796TIP3   OH235878   1.810   5.270  13.149  0.5559 -0.2923  0.2754
 4796TIP3    H135879   1.724   5.305  13.172  0.4238 -0.7932  0.5618
 4796TIP3    H235880   1.819   5.192  13.203  2.4032  1.2695  2.4138
 4797TIP3   OH235881   1.309   4.748   2.734 -0.2442 -0.3219 -0.0009
 4797TIP3    H135882   1.214   4.739   2.734 -0.1276 -1.7917 -0.2392
 4797TIP3    H235883   1.340   4.680   2.794  0.6225  0.7503  0.8220
 4798TIP3   OH235884   1.389   4.717   5.980 -0.2164  0.1360 -0.1851
 4798TIP3    H135885   1.367   4.648   6.043  1.8134  0.4838  0.9911
 4798TIP3    H235886   1.436   4.672   5.910  1.3742  0.3048  0.7290
 4799TIP3   OH235887   6.277   5.885   4.414  0.0472  0.9384 -0.1822
 4799TIP3    H135888   6.294   5.835   4.335 -0.7072  2.8636 -1.6607
 4799TIP3    H235889   6.255   5.973   4.382 -0.9453  1.6109  2.1382
 4800TIP3   OH235890   0.828   5.700  13.932  1.4904 -0.1889 -0.3594
 4800TIP3    H135891   0.841   5.794  13.944 -1.3147  0.2495 -0.0506
 4800TIP3    H235892   0.783   5.693  13.848  0.4440 -1.0965  0.2590
 4801TIP3   OH235893   2.438   0.908   0.017 -0.0049 -0.3395 -0.6470
 4801TIP3    H135894   2.466   0.948  -0.066 -0.9091 -0.1899 -0.8947
 4801TIP3    H235895   2.365   0.851  -0.007  0.2960 -0.9736 -0.0713
 4802TIP3   OH235896   5.819   3.437  14.865  0.2284  0.0591 -0.5253
 4802TIP3    H135897   5.853   3.374  14.802 -0.8830  1.8542 -3.0718
 4802TIP3    H235898   5.736   3.399  14.894  1.6001 -1.6696  1.4367
 4803TIP3   OH235899   1.742   1.659   4.215  0.4131  0.3922 -0.3015
 4803TIP3    H135900   1.668   1.606   4.246  1.9800 -1.8672 -0.1485
 4803TIP3    H235901   1.706   1.747   4.205 -2.3860 -0.6667 -0.5725
 4804TIP3   OH235902   6.255   5.223  13.761 -0.1100  0.0560  0.2361
 4804TIP3    H135903   6.316   5.259  13.697 -2.5099  1.8417 -1.1936
 4804TIP3    H235904   6.270   5.275  13.840 -1.4841  2.3537 -0.9133
 4805TIP3   OH235905   0.335   2.981   4.872 -0.0341  0.5522 -0.3536
 4805TIP3    H135906   0.310   2.908   4.928  0.5636  1.4494  1.1480
 4805TIP3    H235907   0.333   2.946   4.783 -0.0594 -1.1825  0.3101
 4806TIP3   OH235908   1.501   2.509  16.832 -0.2143  0.8556  0.0162
 4806TIP3    H135909   1.410   2.514  16.801 -0.6647 -2.8740  0.3577
 4806TIP3    H235910   1.537   2.432  16.788  2.5860  1.7691  0.5239
 4807TIP3   OH235911   2.293   2.049  12.960 -0.2621  0.0265  0.0014
 4807TIP3    H135912   2.261   2.091  12.880 -0.7206  0.4676  0.4058
 4807TIP3    H235913   2.218   1.998  12.991  0.2436 -0.9945 -0.4078
 4808TIP3   OH235914   1.623   6.679  14.731 -0.1026  0.2461 -0.0711
 4808TIP3    H135915   1.595   6.770  14.729 -0.3970  0.1985  1.2201
 4808TIP3    H235916   1.684   6.673  14.804  1.7471 -0.1125 -1.5567
 4809TIP3   OH235917   6.343   1.411   0.903 -0.0567  0.1962  0.2478
 4809TIP3    H135918   6.414   1.397   0.841 -0.5114  2.4262 -0.8696
 4809TIP3    H235919   6.329   1.506   0.904 -2.2516 -0.0517  1.3011
 4810TIP3   OH235920   0.131   3.235   1.993  0.2483 -0.0167  0.0065
 4810TIP3    H135921   0.048   3.282   1.998 -1.4438 -2.7025 -0.9044
 4810TIP3    H235922   0.164   3.253   1.905  0.2535  0.4272  0.0966
 4811TIP3   OH235923   1.474   6.518   5.994 -1.1882 -0.5301  0.3913
 4811TIP3    H135924   1.517   6.492   6.075 -0.7970  0.2142  0.4292
 4811TIP3    H235925   1.380   6.513   6.013 -1.0951 -0.2299  0.9357
 4812TIP3   OH235926   2.427   2.446  16.247  0.2484 -0.0455 -0.5204
 4812TIP3    H135927   2.484   2.517  16.217  0.2525  0.3184  0.2984
 4812TIP3    H235928   2.339   2.475  16.223  0.1762  0.6077  0.4562
 4813TIP3   OH235929   3.434   5.422  16.593  0.1419  0.2751 -0.0162
 4813TIP3    H135930   3.375   5.424  16.668  1.3290  1.2402  0.9458
 4813TIP3    H235931   3.402   5.491  16.535 -0.1144  0.3032  0.1605
 4814TIP3   OH235932   5.067   5.377   1.171  0.3727 -0.2846 -0.2187
 4814TIP3    H135933   5.120   5.298   1.159  0.3199 -0.5806  1.2846
 4814TIP3    H235934   5.102   5.418   1.250 -1.0697 -0.0320  0.3334
 4815TIP3   OH235935   2.674   6.412  15.287 -0.5888 -0.5604  0.4291
 4815TIP3    H135936   2.677   6.394  15.193 -0.3266 -3.7894  0.9557
 4815TIP3    H235937   2.584   6.443  15.303 -0.5018  0.4485 -0.9160
 4816TIP3   OH235938   1.914   3.667  15.807  0.2428 -0.1232 -0.6492
 4816TIP3    H135939   1.869   3.694  15.887  0.1770  1.3852 -1.1801
 4816TIP3    H235940   1.984   3.608  15.838 -0.3979 -0.3488  0.4114
 4817TIP3   OH235941   5.978   1.878  13.963  0.5929 -0.1959  0.0436
 4817TIP3    H135942   6.028   1.796  13.963  2.4436  0.8292  2.0359
 4817TIP3    H235943   5.986   1.911  14.052 -1.8735  1.1647 -0.1421
 4818TIP3   OH235944   3.949   5.226   5.473  0.8309 -0.2755  0.1093
 4818TIP3    H135945   4.030   5.222   5.523  0.7480 -1.2130  0.1814
 4818TIP3    H235946   3.956   5.306   5.421  0.2960  1.5846  2.6939
 4819TIP3   OH235947   5.498   3.522   1.169 -0.1597  0.0417  0.4092
 4819TIP3    H135948   5.586   3.511   1.132 -0.4759 -0.9514 -0.0975
 4819TIP3    H235949   5.442   3.470   1.111 -1.2005  1.2434  0.2990
 4820TIP3   OH235950   3.715   5.600   5.485  0.1329  0.0260 -0.1424
 4820TIP3    H135951   3.750   5.581   5.572  0.3726  1.3322  0.0680
 4820TIP3    H235952   3.661   5.678   5.498 -0.1759 -0.0208 -1.0888
 4821TIP3   OH235953   1.978   2.388   0.531  0.4182 -0.2904 -0.2872
 4821TIP3    H135954   2.071   2.367   0.522  0.0019 -1.7905 -1.5673
 4821TIP3    H235955   1.946   2.396   0.441 -0.9224 -1.0283  0.0870
 4822TIP3   OH235956   5.371   0.254  16.305 -0.0950 -0.7161 -0.4419
 4822TIP3    H135957   5.343   0.267  16.215 -0.4000 -0.9776 -0.3888
 4822TIP3    H235958   5.290   0.240  16.354 -0.1318  1.6142  0.2751
 4823TIP3   OH235959   5.329   6.016  12.908 -0.2632 -0.2469  0.7115
 4823TIP3    H135960   5.379   6.006  12.827  0.0983  0.5279  0.8285
 4823TIP3    H235961   5.284   5.933  12.919  1.3064 -1.1145  0.8194
 4824TIP3   OH235962   0.896   3.538  15.868  0.2574 -0.4378 -0.3537
 4824TIP3    H135963   0.948   3.508  15.942  0.4304  5.1584  2.2960
 4824TIP3    H235964   0.955   3.592  15.817 -1.4564  1.4913 -0.4549
 4825TIP3   OH235965   3.286   4.937  11.223  0.5318 -0.0060  0.0536
 4825TIP3    H135966   3.202   4.895  11.244  0.2435  0.7848  0.5531
 4825TIP3    H235967   3.322   4.884  11.152 -2.3978  1.9612 -3.2949
 4826TIP3   OH235968   0.295   3.173  14.226 -0.5594  0.9494 -0.2573
 4826TIP3    H135969   0.250   3.160  14.142 -1.2992  1.1895  0.1045
 4826TIP3    H235970   0.255   3.251  14.264  0.0932  1.1107  0.1174
 4827TIP3   OH235971   4.881   2.669   2.502  0.1748 -0.0454 -0.0474
 4827TIP3    H135972   4.829   2.730   2.554 -2.1854 -1.4311 -0.5999
 4827TIP3    H235973   4.944   2.724   2.455 -1.3716  1.8870  0.0256
 4828TIP3   OH235974   0.444   4.196   2.034  0.3165 -0.3788  0.1617
 4828TIP3    H135975   0.402   4.244   2.105 -2.2415 -0.1536 -1.4031
 4828TIP3    H235976   0.410   4.107   2.041  0.2519 -0.4240 -0.6194
 4829TIP3   OH235977   2.672   3.059   4.966 -0.0519 -0.1261  0.6014
 4829TIP3    H135978   2.600   3.081   5.026 -1.7855  0.0133 -1.4100
 4829TIP3    H235979   2.643   2.980   4.922 -0.3263  1.4326 -2.2275
 4830TIP3   OH235980   5.606   1.034  13.851 -0.1483 -0.0342 -0.6416
 4830TIP3    H135981   5.601   1.114  13.903 -0.2552 -0.4275 -0.0299
 4830TIP3    H235982   5.519   1.024  13.812 -0.2958 -0.1196 -0.2987
 4831TIP3   OH235983   3.367   0.101   2.048 -0.1837 -0.0519  0.3175
 4831TIP3    H135984   3.394   0.103   1.956 -0.4689 -1.9860  0.1676
 4831TIP3    H235985   3.328   0.188   2.063 -0.6040  0.1118 -1.5216
 4832TIP3   OH235986   1.252   6.152  17.028 -0.1979  0.1107  0.1382
 4832TIP3    H135987   1.261   6.122  16.938 -1.7390  1.1570 -0.4176
 4832TIP3    H235988   1.320   6.220  17.037 -1.8272  2.0662 -1.2432
 4833TIP3   OH235989   4.529   4.144   1.037  0.3662  0.8980 -0.4153
 4833TIP3    H135990   4.519   4.076   0.970 -0.1051  1.7879 -1.2784
 4833TIP3    H235991   4.466   4.212   1.012  0.9118  1.7113  0.3540
 4834TIP3   OH235992   3.006   4.952  12.808 -0.1647 -0.0286 -0.3396
 4834TIP3    H135993   3.060   4.882  12.769 -1.9557 -0.1246 -2.8871
 4834TIP3    H235994   2.965   4.994  12.733 -0.5186  2.6684  1.2652
 4835TIP3   OH235995   6.608   6.258   2.173  0.0374 -0.1991  0.1182
 4835TIP3    H135996   6.550   6.307   2.231 -0.7605 -0.1795 -0.6801
 4835TIP3    H235997   6.592   6.166   2.196 -0.1137 -0.1824  0.0808
 4836TIP3   OH235998   3.456   3.417  13.869 -0.8582  0.4311 -0.2471
 4836TIP3    H135999   3.475   3.442  13.779 -0.2542 -1.0896 -0.5750
 4836TIP3    H236000   3.390   3.480  13.898  0.3388  2.1365 -1.0909
 4837TIP3   OH236001   2.015   4.280  15.732 -0.6448 -0.4017  0.0558
 4837TIP3    H136002   2.023   4.308  15.823 -0.7326 -1.9901  0.5788
 4837TIP3    H236003   2.098   4.238  15.712 -1.0514 -1.0920 -0.2143
 4838TIP3   OH236004   2.206   3.566   0.316 -0.7462  0.4493 -0.0727
 4838TIP3    H136005   2.284   3.621   0.329 -0.4910  0.1314 -0.2363
 4838TIP3    H236006   2.236   3.478   0.335 -0.9169  0.2473 -0.7050
 4839TIP3   OH236007   3.695   6.530  15.231  0.0429  0.0347  0.2152
 4839TIP3    H136008   3.687   6.528  15.326 -0.5069  0.2560  0.1764
 4839TIP3    H236009   3.737   6.614  15.212  0.7832 -0.3083  0.3008
 4840TIP3   OH236010   0.027   4.639  12.684  0.3324  0.1550 -0.1145
 4840TIP3    H136011  -0.037   4.612  12.618  2.2063  0.1076 -2.0351
 4840TIP3    H236012  -0.002   4.597  12.765  0.4233 -3.6867 -1.8605
 4841TIP3   OH236013   1.863   5.739  11.465 -0.3219  0.7903 -0.3831
 4841TIP3    H136014   1.776   5.704  11.482  1.0182 -3.0109 -0.2412
 4841TIP3    H236015   1.904   5.744  11.552  0.7614 -1.2615 -0.7145
 4842TIP3   OH236016   0.040   3.177  16.422 -0.1465  0.2496 -0.1780
 4842TIP3    H136017  -0.012   3.106  16.459  1.9318 -0.0212  2.5365
 4842TIP3    H236018  -0.015   3.255  16.433 -0.8817 -0.3463  0.5525
 4843TIP3   OH236019   0.511   0.265   1.354  0.5149 -0.0622  0.4794
 4843TIP3    H136020   0.555   0.348   1.374 -0.1818  0.4060  0.1477
 4843TIP3    H236021   0.532   0.248   1.262 -0.6963  0.6422  0.0406
 4844TIP3   OH236022   5.502   5.050  13.526 -0.4215 -0.0738 -0.4858
 4844TIP3    H136023   5.460   5.061  13.440 -0.6844  0.2541 -0.3177
 4844TIP3    H236024   5.447   4.984  13.570 -0.9969  0.6320 -0.1230
 4845TIP3   OH236025   6.153   1.039  12.917  0.2561 -0.4377  0.3658
 4845TIP3    H136026   6.155   0.985  12.838 -2.3812  0.3152 -0.3220
 4845TIP3    H236027   6.066   1.025  12.954  0.5501  1.0963  1.7734
 4846TIP3   OH236028   0.905   0.333   1.390 -0.3368  0.9579 -0.5013
 4846TIP3    H136029   0.927   0.243   1.365  2.4165  1.2639  0.5724
 4846TIP3    H236030   0.874   0.326   1.480 -0.5439  1.0492 -0.5644
 4847TIP3   OH236031   1.133   2.927  13.793  0.0450  0.0014  0.2999
 4847TIP3    H136032   1.218   2.916  13.752  0.3849  1.0838  0.6772
 4847TIP3    H236033   1.126   3.021  13.810 -1.9075  0.1935 -1.1871
 4848TIP3   OH236034   0.505   3.652   5.408 -0.2744 -0.4178 -0.2062
 4848TIP3    H136035   0.538   3.626   5.323  1.3662  2.2373 -0.4792
 4848TIP3    H236036   0.410   3.654   5.397 -0.4202 -3.7060 -0.7661
 4849TIP3   OH236037   0.984   0.380  16.345 -0.0620 -0.0022 -0.2739
 4849TIP3    H136038   0.964   0.420  16.430 -1.2086 -1.2046  0.0546
 4849TIP3    H236039   0.899   0.349  16.313  0.0890  1.5775 -2.5087
 4850TIP3   OH236040   4.963   2.098  11.616 -0.1955  0.0629 -0.0259
 4850TIP3    H136041   4.988   2.008  11.634  0.0241 -0.0478 -0.8793
 4850TIP3    H236042   4.871   2.093  11.591  0.4868 -0.2932 -2.7190
 4851TIP3   OH236043   3.059   3.879   4.935 -0.3503  0.0822 -0.2056
 4851TIP3    H136044   3.030   3.953   4.883 -0.9803  0.0442  0.0799
 4851TIP3    H236045   3.126   3.914   4.992  1.0099 -0.0671 -1.6566
 4852TIP3   OH236046   4.699   2.291   2.111  0.0812 -0.3015  0.0778
 4852TIP3    H136047   4.693   2.377   2.068 -0.5312 -0.5181 -0.2822
 4852TIP3    H236048   4.664   2.230   2.046  1.2710 -0.9346  0.0221
 4853TIP3   OH236049   0.289   1.974  12.463  0.9978  0.0066 -0.4963
 4853TIP3    H136050   0.215   2.034  12.477  1.3468  0.0824  1.2310
 4853TIP3    H236051   0.363   2.032  12.445  1.2950  0.1252  0.9866
 4854TIP3   OH236052   2.216   6.661   3.301  1.2907  0.1457  0.1048
 4854TIP3    H136053   2.281   6.728   3.324 -0.9893  1.8875  2.0128
 4854TIP3    H236054   2.228   6.594   3.368  0.8425  0.7125  0.7748
 4855TIP3   OH236055   1.453   1.178   4.797 -0.4536 -0.0372 -0.6045
 4855TIP3    H136056   1.455   1.267   4.832 -0.8801 -0.6429  1.0321
 4855TIP3    H236057   1.376   1.175   4.741 -0.0268  0.8123 -1.2602
 4856TIP3   OH236058   1.054   3.919  12.637 -0.0520 -0.2778  0.1917
 4856TIP3    H136059   1.092   3.844  12.683 -1.5017 -0.0564  1.8766
 4856TIP3    H236060   0.991   3.880  12.577 -1.3299 -0.4339  1.5804
 4857TIP3   OH236061   2.623   1.387  12.522 -0.5605 -0.2648 -0.8593
 4857TIP3    H136062   2.570   1.313  12.552 -0.1772 -0.0271  0.4673
 4857TIP3    H236063   2.598   1.398  12.430 -0.8327 -1.8444 -1.0068
 4858TIP3   OH236064   2.204   4.302   3.788 -0.0504 -0.5992  0.1777
 4858TIP3    H136065   2.219   4.370   3.853 -1.5105 -0.5087  0.4571
 4858TIP3    H236066   2.291   4.266   3.770  0.4617 -0.1923  1.6924
 4859TIP3   OH236067   6.040   0.259   4.478 -0.1264  0.7900  0.3306
 4859TIP3    H136068   6.025   0.321   4.406  1.2803 -1.0665 -1.7049
 4859TIP3    H236069   6.130   0.230   4.466  0.1839  0.4632  2.9672
 4860TIP3   OH236070   6.188   1.714   0.990 -0.2887 -0.6128 -0.5100
 4860TIP3    H136071   6.283   1.705   0.995 -0.1369  0.6445 -0.6929
 4860TIP3    H236072   6.172   1.736   0.898 -0.8739 -1.8440 -0.7247
 4861TIP3   OH236073   2.506   2.719   4.319  0.3235 -0.9737  0.4251
 4861TIP3    H136074   2.415   2.700   4.300  0.2651 -0.0012 -0.3263
 4861TIP3    H236075   2.522   2.679   4.405 -0.7291 -1.3702  0.4389
 4862TIP3   OH236076   0.444   2.935   3.109  0.3304  0.1982 -0.3369
 4862TIP3    H136077   0.414   2.929   3.018  0.6607  1.6002 -0.5638
 4862TIP3    H236078   0.372   2.976   3.156  0.4644  0.1945 -0.1276
 4863TIP3   OH236079   2.370   4.907  14.212 -0.4684  0.5796 -0.2450
 4863TIP3    H136080   2.425   4.880  14.139 -1.6022  0.0477 -0.9380
 4863TIP3    H236081   2.341   4.995  14.189 -1.9855 -0.1260 -1.1830
 4864TIP3   OH236082   5.926   1.828   3.866  0.1829 -0.0380  0.1939
 4864TIP3    H136083   5.849   1.776   3.884  0.3007  0.3356  2.0024
 4864TIP3    H236084   5.906   1.874   3.785 -1.8478  0.6710  1.0370
 4865TIP3   OH236085   3.496   6.728  16.515 -0.2085 -0.2531 -0.9576
 4865TIP3    H136086   3.503   6.819  16.486  0.6562 -0.7322 -2.3074
 4865TIP3    H236087   3.412   6.697  16.480 -1.3858  0.4886  0.9878
 4866TIP3   OH236088   2.527   2.855   4.071  0.4434  0.8349  1.0215
 4866TIP3    H136089   2.455   2.853   4.009  1.1893 -2.6051  0.0349
 4866TIP3    H236090   2.488   2.826   4.154  0.2751  1.1925  1.0687
 4867TIP3   OH236091   4.802   4.370  15.996 -0.2290 -0.0867 -0.6882
 4867TIP3    H136092   4.739   4.356  16.067  1.0921  0.5750  0.6623
 4867TIP3    H236093   4.828   4.462  16.004  2.9823 -0.9715  0.6287
 4868TIP3   OH236094   4.006   1.655   1.379 -0.4824  0.1616  0.2650
 4868TIP3    H136095   4.097   1.649   1.409 -0.4462  0.6051  0.2431
 4868TIP3    H236096   3.957   1.682   1.457 -0.2438  2.3064 -0.2947
 4869TIP3   OH236097   3.626   4.887   6.140  0.0873  0.3465  0.2035
 4869TIP3    H136098   3.653   4.951   6.074  0.4918 -0.4675 -0.4434
 4869TIP3    H236099   3.687   4.814   6.128 -0.3008 -0.1134  0.9947
 4870TIP3   OH236100   2.785   0.705  11.072 -0.2665 -0.1168  0.0814
 4870TIP3    H136101   2.731   0.714  10.994  0.4254  0.2223 -0.3739
 4870TIP3    H236102   2.873   0.729  11.043 -0.2278  1.3736  1.2684
 4871TIP3   OH236103   0.418   5.551   0.900  0.0065  0.0631  0.2691
 4871TIP3    H136104   0.449   5.469   0.861  1.7156 -0.5878  2.7825
 4871TIP3    H236105   0.364   5.523   0.974 -0.4203  1.2173  0.4142
 4872TIP3   OH236106   0.694   4.349  11.718  0.3044  0.3347  0.0604
 4872TIP3    H136107   0.620   4.402  11.688 -0.0284  0.9847  1.8961
 4872TIP3    H236108   0.685   4.347  11.813  2.7887  0.6214  0.3623
 4873TIP3   OH236109   6.093   5.447  10.347  0.0825  0.0656 -0.5857
 4873TIP3    H136110   6.006   5.434  10.385  1.1854 -1.2122  1.7297
 4873TIP3    H236111   6.100   5.542  10.335 -1.1274  0.3226  0.5246
 4874TIP3   OH236112   2.754   1.694   0.904 -0.0045  0.5666 -0.4655
 4874TIP3    H136113   2.833   1.720   0.952  0.6303 -0.4592 -0.9290
 4874TIP3    H236114   2.735   1.768   0.847  2.1310 -0.1171 -2.2113
 4875TIP3   OH236115   5.315   2.439   1.658 -0.4366 -0.0041 -0.1328
 4875TIP3    H136116   5.273   2.374   1.602  0.5244  0.5846 -1.6155
 4875TIP3    H236117   5.398   2.398   1.684 -0.3098  0.2178 -0.1853
 4876TIP3   OH236118   4.620   3.396  17.259  0.2371  0.0313  0.3386
 4876TIP3    H136119   4.647   3.347  17.182  1.5132  1.0741  0.0932
 4876TIP3    H236120   4.558   3.461  17.226 -1.1923 -1.1313  0.6136
 4877TIP3   OH236121   0.677   6.607  16.169  0.3804  0.1436  0.0160
 4877TIP3    H136122   0.710   6.652  16.091  0.0562  0.6586  0.1699
 4877TIP3    H236123   0.718   6.655  16.242  1.4100 -0.9001  0.1571
 4878TIP3   OH236124   5.720   0.950  15.864 -0.1114  0.0205  0.3810
 4878TIP3    H136125   5.795   0.974  15.810  1.4798 -1.9280  1.5732
 4878TIP3    H236126   5.737   0.991  15.949 -0.1475 -0.7687  0.7822
 4879TIP3   OH236127   4.807   3.887   6.849  0.1914  0.4052 -0.0742
 4879TIP3    H136128   4.854   3.886   6.932  0.8109  1.0029 -0.4058
 4879TIP3    H236129   4.864   3.936   6.789 -1.2006  1.8999 -0.2705
 4880TIP3   OH236130   2.462   3.714  11.873  0.3698  0.6339 -0.1280
 4880TIP3    H136131   2.395   3.736  11.939 -0.1277 -1.3501  0.0983
 4880TIP3    H236132   2.529   3.667  11.922 -0.2985 -1.4173 -1.0824
 4881TIP3   OH236133   1.579   5.548  11.417  0.2597  0.5360 -0.1518
 4881TIP3    H136134   1.661   5.513  11.382  0.5702  1.0178  0.0852
 4881TIP3    H236135   1.596   5.562  11.510 -0.1613  0.4378 -0.0578
 4882TIP3   OH236136   5.058   1.186   1.570 -0.4284  0.0483  0.2698
 4882TIP3    H136137   5.050   1.126   1.495 -3.3405  2.3518 -1.5157
 4882TIP3    H236138   5.095   1.132   1.640 -1.2751 -3.3363 -1.6380
 4883TIP3   OH236139   6.064   5.854   2.159 -0.0539  0.1131 -0.1386
 4883TIP3    H136140   6.128   5.799   2.114 -0.1795  0.4365 -0.7178
 4883TIP3    H236141   5.981   5.835   2.116  0.2554  2.4072 -1.9183
 4884TIP3   OH236142   2.586   2.045   6.527 -0.0587  0.0573  0.3234
 4884TIP3    H136143   2.560   2.069   6.438  1.3689 -0.4679 -0.2671
 4884TIP3    H236144   2.513   1.993   6.560 -1.5124  1.9569  0.2327
 4885TIP3   OH236145   4.899   1.021   0.574  0.0268 -0.7528 -0.5062
 4885TIP3    H136146   4.861   1.082   0.637  1.1940 -0.3848 -0.1361
 4885TIP3    H236147   4.892   1.066   0.490  1.6824  0.3115 -0.1159
 4886TIP3   OH236148   4.355   3.428   0.739  0.0814 -0.8928  0.0775
 4886TIP3    H136149   4.302   3.353   0.712 -0.3614  0.0052 -1.6560
 4886TIP3    H236150   4.295   3.503   0.734  0.7964 -0.2504  0.7776
 4887TIP3   OH236151   4.588   4.637  14.876  0.2151  0.1095 -0.0877
 4887TIP3    H136152   4.639   4.631  14.796  2.0852  2.1079  0.8326
 4887TIP3    H236153   4.627   4.572  14.935  0.6147  0.4695  0.0524
 4888TIP3   OH236154   4.987   5.458  13.834 -0.2503  0.0478  0.4802
 4888TIP3    H136155   5.081   5.448  13.821 -0.2081 -2.3817  2.0030
 4888TIP3    H236156   4.948   5.429  13.751  0.3267  0.4246  0.0761
 4889TIP3   OH236157   3.122   4.853   4.177  0.0458 -0.4875  0.4732
 4889TIP3    H136158   3.059   4.803   4.230 -0.7122 -1.1890 -1.0203
 4889TIP3    H236159   3.086   4.941   4.174 -0.1527 -0.5582  0.7269
 4890TIP3   OH236160   2.235   1.145  11.574  0.1830  0.4298  0.1551
 4890TIP3    H136161   2.200   1.232  11.593 -1.5087 -0.5100  1.6589
 4890TIP3    H236162   2.181   1.112  11.502  1.1486  0.7928 -0.7529
 4891TIP3   OH236163   6.497   3.216   6.189  0.4462  0.1024 -0.2262
 4891TIP3    H136164   6.530   3.279   6.254  0.9017 -1.8180  1.5056
 4891TIP3    H236165   6.409   3.247   6.168 -0.3195  0.0177  2.4639
 4892TIP3   OH236166   1.147   2.480   3.933 -0.2674 -0.5225 -0.4701
 4892TIP3    H136167   1.169   2.475   4.026  1.5828  2.0098 -0.6720
 4892TIP3    H236168   1.196   2.408   3.893 -1.5587 -2.0205  0.5063
 4893TIP3   OH236169   0.719   1.123  14.457 -0.2061  0.2440 -0.5662
 4893TIP3    H136170   0.759   1.187  14.516  0.0425  0.7542 -1.2803
 4893TIP3    H236171   0.721   1.041  14.506  0.4136  0.5665 -0.0371
 4894TIP3   OH236172   5.291   3.425   3.099 -0.1714 -0.2707 -0.4395
 4894TIP3    H136173   5.375   3.382   3.081 -0.3303 -1.4176  1.3098
 4894TIP3    H236174   5.227   3.374   3.050 -0.2928 -1.8281  1.2256
 4895TIP3   OH236175   0.846   3.365   0.114  0.0919  0.8677  1.0697
 4895TIP3    H136176   0.756   3.382   0.086  0.0529  0.1976  0.7644
 4895TIP3    H236177   0.860   3.425   0.187 -0.0502  2.1429  0.0855
 4896TIP3   OH236178   0.159   3.031   3.064 -0.2194 -0.4575 -0.1793
 4896TIP3    H136179   0.149   2.946   3.107  1.4356 -1.0109 -0.7926
 4896TIP3    H236180   0.075   3.046   3.021 -0.5482 -1.7684 -0.0530
 4897TIP3   OH236181   1.187   5.892   4.450 -0.5991 -0.3457 -0.4474
 4897TIP3    H136182   1.142   5.863   4.371 -0.7662 -0.7113 -0.2234
 4897TIP3    H236183   1.194   5.813   4.503  0.0548 -0.2336 -0.3553
 4898TIP3   OH236184   4.530   0.345  12.222  0.5495  0.2327 -0.0992
 4898TIP3    H136185   4.554   0.433  12.249  1.7695 -0.2560  0.4746
 4898TIP3    H236186   4.587   0.325  12.148  1.0798 -0.4840  0.4897
 4899TIP3   OH236187   4.254   4.035  15.533  0.0108  0.0090 -0.5043
 4899TIP3    H136188   4.315   4.009  15.602 -0.3132  3.8180  1.4886
 4899TIP3    H236189   4.305   4.027  15.452  1.6474 -1.0645  0.5767
 4900TIP3   OH236190   6.681   0.150   5.231  0.1599  0.0138 -0.3757
 4900TIP3    H136191   6.651   0.060   5.216  0.0875 -0.6741  3.1170
 4900TIP3    H236192   6.765   0.140   5.276 -1.2175  1.5106  2.8129
 4901TIP3   OH236193   2.363   0.801   2.301 -0.5243  0.7339 -0.0632
 4901TIP3    H136194   2.350   0.715   2.261  1.0302 -0.1032  1.1129
 4901TIP3    H236195   2.277   0.843   2.295 -1.3167 -0.8731 -0.7047
 4902TIP3   OH236196   2.275   4.090  17.134  0.0911 -0.0175 -0.1245
 4902TIP3    H136197   2.193   4.109  17.087 -0.8762 -0.0435  1.4509
 4902TIP3    H236198   2.305   4.175  17.165  0.1496 -0.1161  0.0916
 4903TIP3   OH236199   2.887   3.187  17.042  0.4876  0.6870 -0.8383
 4903TIP3    H136200   2.919   3.176  17.132  0.3806 -0.0052 -0.8792
 4903TIP3    H236201   2.825   3.260  17.048  0.3928  0.5696 -0.3258
 4904TIP3   OH236202   1.702   1.073  14.920  0.1121 -0.3680 -0.0385
 4904TIP3    H136203   1.662   1.010  14.980 -0.0661 -0.0107  0.2255
 4904TIP3    H236204   1.796   1.062  14.933  0.0765  0.5484  1.2267
 4905TIP3   OH236205   3.447   2.044   4.807 -0.4885 -0.0125 -0.1186
 4905TIP3    H136206   3.419   2.060   4.717  0.7753  1.2122 -0.3363
 4905TIP3    H236207   3.365   2.034   4.856 -1.2408  0.9149 -1.1352
 4906TIP3   OH236208   2.027   4.112  12.923  0.7783 -0.0498  0.3832
 4906TIP3    H136209   2.068   4.139  13.005 -1.8901  0.2960  1.7061
 4906TIP3    H236210   2.098   4.112  12.859  2.5818  1.4985  2.2745
 4907TIP3   OH236211   5.559   6.399  14.394 -0.2452  0.5379  0.3765
 4907TIP3    H136212   5.619   6.465  14.430 -0.3811  1.0209 -0.2833
 4907TIP3    H236213   5.521   6.440  14.317  2.2966 -1.5361 -2.1645
 4908TIP3   OH236214   5.658   3.630  11.152  0.1693 -0.5345 -0.1081
 4908TIP3    H136215   5.666   3.581  11.070 -0.7461  1.2007 -1.2941
 4908TIP3    H236216   5.572   3.672  11.147 -0.0748 -0.6816  1.9403
 4909TIP3   OH236217   1.021   5.469  16.212 -0.3050  0.4636 -0.0565
 4909TIP3    H136218   0.931   5.502  16.212 -0.8716 -1.0364 -0.3776
 4909TIP3    H236219   1.069   5.533  16.265 -1.5633  1.2401  0.2027
 4910TIP3   OH236220   1.121   6.400   3.223  0.0509 -0.2693 -0.2442
 4910TIP3    H136221   1.127   6.490   3.191 -2.0290  0.3119  0.7700
 4910TIP3    H236222   1.174   6.349   3.162  0.6161  1.5164 -1.3345
 4911TIP3   OH236223   5.735   2.262   3.131 -0.3004 -0.0870 -0.9332
 4911TIP3    H136224   5.824   2.291   3.150 -0.7232  1.1696 -0.7709
 4911TIP3    H236225   5.727   2.178   3.176  0.8568 -0.2981 -1.1066
 4912TIP3   OH236226   4.827   2.231   6.627  0.1190 -0.2895  0.6150
 4912TIP3    H136227   4.910   2.251   6.583  0.3382 -0.6101  0.8764
 4912TIP3    H236228   4.801   2.313   6.669  0.0234 -0.0408  0.0792
 4913TIP3   OH236229   4.997   1.775   2.070  0.4401  0.1523 -0.0685
 4913TIP3    H136230   4.926   1.716   2.096 -0.3404  0.6767 -0.9275
 4913TIP3    H236231   5.017   1.824   2.150  0.0364 -0.2049  0.2619
 4914TIP3   OH236232   6.447   3.966  14.330  0.2661  0.4586 -0.2183
 4914TIP3    H136233   6.356   3.979  14.358  0.0284  1.9554 -1.5216
 4914TIP3    H236234   6.440   3.919  14.247  0.6631  0.8432 -0.4703
 4915TIP3   OH236235   2.526   5.548   2.726 -0.1636  0.7465  0.0800
 4915TIP3    H136236   2.431   5.543   2.737 -0.0646 -0.2748  0.5517
 4915TIP3    H236237   2.547   5.640   2.739 -1.3621  1.4560 -2.4000
 4916TIP3   OH236238   4.693   1.482  13.344 -0.1788  0.2350  0.6332
 4916TIP3    H136239   4.632   1.411  13.325 -0.6391  1.0051 -0.9594
 4916TIP3    H236240   4.778   1.451  13.311  1.4349 -2.3973  6.0243
 4917TIP3   OH236241   2.939   6.002  12.602 -0.2414 -0.3437  0.3251
 4917TIP3    H136242   2.938   6.093  12.572  0.7257 -0.6615 -0.7544
 4917TIP3    H236243   2.978   6.006  12.689  1.2549  0.1358 -0.3389
 4918TIP3   OH236244   1.502   2.214  13.724 -0.8468 -0.2014  0.1856
 4918TIP3    H136245   1.434   2.147  13.714 -0.5192 -0.4692 -0.3226
 4918TIP3    H236246   1.461   2.294  13.691 -0.5804 -0.5824 -1.1280
 4919TIP3   OH236247   5.461   6.349  12.699  0.1977 -0.0906  0.6423
 4919TIP3    H136248   5.379   6.326  12.744  0.5471 -1.7202  0.5219
 4919TIP3    H236249   5.507   6.407  12.759 -0.9246  0.6436  0.8222
 4920TIP3   OH236250   0.411   4.746  16.563  0.1290  0.1022 -0.2841
 4920TIP3    H136251   0.398   4.709  16.476  1.0199  0.2676 -0.5027
 4920TIP3    H236252   0.343   4.813  16.572 -0.8789 -0.8977 -0.2682
 4921TIP3   OH236253   2.185   0.431   5.056  0.2430  0.0561 -0.5945
 4921TIP3    H136254   2.096   0.408   5.085 -0.4047  0.3054 -2.2923
 4921TIP3    H236255   2.184   0.526   5.047  1.0189  0.1752  0.3371
 4922TIP3   OH236256   2.453   5.201   0.929 -0.4111  0.2128  0.1842
 4922TIP3    H136257   2.495   5.246   0.856  0.2651  0.0199  0.4436
 4922TIP3    H236258   2.396   5.266   0.968  0.8284  0.9726  0.7798
 4923TIP3   OH236259   3.613   6.214  15.619 -0.1909  0.3089  0.0035
 4923TIP3    H136260   3.631   6.187  15.530  0.2162  0.9264 -0.1086
 4923TIP3    H236261   3.663   6.153  15.674  0.4268  0.5994 -0.2294
 4924TIP3   OH236262   6.535   5.068   0.435  0.0946  0.8270  0.2257
 4924TIP3    H136263   6.609   5.018   0.468 -1.2501 -0.2497  1.7658
 4924TIP3    H236264   6.486   5.006   0.381 -0.2379  1.2200  0.0656
 4925TIP3   OH236265   2.321   6.146  11.320  0.0139 -0.0544 -0.1920
 4925TIP3    H136266   2.241   6.198  11.315  0.7264  0.9806 -1.2337
 4925TIP3    H236267   2.290   6.057  11.340 -1.3436  0.4133 -0.0915
 4926TIP3   OH236268   1.508   4.296   0.234  0.0734 -0.1633  0.5711
 4926TIP3    H136269   1.542   4.373   0.188 -0.7621  0.0715  0.3425
 4926TIP3    H236270   1.418   4.287   0.203 -0.9677  0.7486  3.0444
 4927TIP3   OH236271   3.102   1.437   1.983  0.6076  0.1850  0.4169
 4927TIP3    H136272   3.067   1.510   2.035 -0.0644 -0.6393  1.1601
 4927TIP3    H236273   3.151   1.479   1.913 -0.4812  1.3826  0.3237
 4928TIP3   OH236274   2.517   6.742  15.181  0.1900 -0.2603  0.5259
 4928TIP3    H136275   2.585   6.701  15.127 -0.8021 -0.8818 -0.2717
 4928TIP3    H236276   2.478   6.670  15.230  1.0958  0.2941  2.1677
 4929TIP3   OH236277   2.103   5.259  16.904  0.0284  0.7262 -0.3059
 4929TIP3    H136278   2.167   5.306  16.956 -1.2278  1.7504  0.3672
 4929TIP3    H236279   2.048   5.327  16.865 -0.3108 -0.0975 -1.3325
 4930TIP3   OH236280   3.959   6.506  13.915 -0.8791 -0.1137  0.1369
 4930TIP3    H136281   3.866   6.519  13.928 -0.9116 -2.6273  4.1298
 4930TIP3    H236282   3.969   6.411  13.903  1.0531  0.3142 -2.5452
 4931TIP3   OH236283   2.255   6.145   1.312 -0.0305 -0.0769  0.2628
 4931TIP3    H136284   2.221   6.058   1.291  0.0054 -0.4591  1.6788
 4931TIP3    H236285   2.350   6.137   1.304  0.0707 -0.5669  1.6845
 4932TIP3   OH236286   4.924   4.758   0.375 -0.3601  0.4412  0.1275
 4932TIP3    H136287   4.907   4.807   0.295  0.3166  2.0129  0.8991
 4932TIP3    H236288   4.965   4.677   0.346  1.1046  1.5577 -1.0523
 4933TIP3   OH236289   6.696   6.336   4.784  0.4011 -0.7971  0.2106
 4933TIP3    H136290   6.739   6.378   4.858 -0.8920 -0.1709  0.6484
 4933TIP3    H236291   6.604   6.328   4.811 -0.6374  1.5977 -2.1571
 4934TIP3   OH236292   5.256   0.959  15.533  0.5277 -0.4572  0.3330
 4934TIP3    H136293   5.187   0.919  15.587  1.6814 -0.5907  1.7540
 4934TIP3    H236294   5.231   1.051  15.526 -0.2885 -0.6911  0.0106
 4935TIP3   OH236295   1.691   0.236   2.969  0.1762 -0.3923  0.5605
 4935TIP3    H136296   1.726   0.202   3.051 -0.3428 -1.8214  0.2158
 4935TIP3    H236297   1.727   0.325   2.963  4.8377 -2.0450 -0.3306
 4936TIP3   OH236298   1.423   5.338   1.100  0.2198  0.1039  0.1804
 4936TIP3    H136299   1.333   5.351   1.128 -0.2226 -1.7409 -0.2463
 4936TIP3    H236300   1.471   5.411   1.140 -1.8103  2.6241 -1.5650
 4937TIP3   OH236301   4.145   6.627  12.378  0.3899  0.4209 -0.1652
 4937TIP3    H136302   4.154   6.601  12.286  0.1390  1.4974 -0.5148
 4937TIP3    H236303   4.076   6.693  12.377  0.7673  0.8434  0.7209
 4938TIP3   OH236304   3.662   6.124  15.359  0.3515 -0.0113 -0.3386
 4938TIP3    H136305   3.716   6.052  15.391 -0.9065 -1.3660 -1.1487
 4938TIP3    H236306   3.713   6.163  15.288 -0.2893 -2.2278 -2.1053
 4939TIP3   OH236307   5.380   2.664  14.180 -0.0023 -0.3732  0.4135
 4939TIP3    H136308   5.339   2.620  14.254 -0.8727 -2.6871 -1.2984
 4939TIP3    H236309   5.358   2.756  14.191 -2.8823 -1.0532  1.3923
 4940TIP3   OH236310   5.602   0.027   0.389 -0.3718  0.3524 -0.4499
 4940TIP3    H136311   5.613  -0.064   0.361  1.0490  0.5307 -0.5614
 4940TIP3    H236312   5.637   0.079   0.317 -0.9359  0.9850 -0.2808
 4941TIP3   OH236313   4.030   5.321  16.964 -0.0663 -0.7041  0.4518
 4941TIP3    H136314   4.093   5.386  16.998  0.7482  0.1711 -2.4800
 4941TIP3    H236315   4.083   5.262  16.910 -1.5681 -0.6509 -1.1561
 4942TIP3   OH236316   3.580   6.283  17.120  0.4459  0.2219 -0.4965
 4942TIP3    H136317   3.667   6.244  17.116  0.2195 -0.2845 -0.5659
 4942TIP3    H236318   3.554   6.274  17.212 -1.1708 -3.3242 -1.1449
 4943TIP3   OH236319   3.395   2.168   4.543  0.2802 -0.2327 -0.2701
 4943TIP3    H136320   3.441   2.242   4.501  1.5902 -0.1178  1.2871
 4943TIP3    H236321   3.444   2.091   4.515 -1.6411 -0.7061 -2.6587
 4944TIP3   OH236322   2.343   4.905   5.564 -0.7447 -0.6074 -0.0076
 4944TIP3    H136323   2.273   4.961   5.598 -0.3855 -0.6568  0.8519
 4944TIP3    H236324   2.377   4.860   5.642 -0.2584 -1.1387 -0.5246
 4945TIP3   OH236325   6.158   5.730  12.117  0.1559 -0.1400  0.2196
 4945TIP3    H136326   6.186   5.807  12.166  0.0737  1.5534 -2.2124
 4945TIP3    H236327   6.226   5.664  12.136  0.6971  0.7816  1.6662
 4946TIP3   OH236328   2.946   6.349   2.833 -1.1089  0.5373 -0.0995
 4946TIP3    H136329   2.872   6.409   2.829 -0.3585  1.5647  0.6485
 4946TIP3    H236330   2.918   6.279   2.892 -1.0165  1.6690  1.3579
 4947TIP3   OH236331   6.302   1.501   1.667 -0.8317  0.3721  0.0529
 4947TIP3    H136332   6.343   1.442   1.604  0.8894  0.0778  1.3803
 4947TIP3    H236333   6.338   1.475   1.752 -1.6877  1.9292  0.9412
 4948TIP3   OH236334   5.157   3.677  11.983 -0.2479 -0.0946 -0.3291
 4948TIP3    H136335   5.115   3.697  11.899 -1.4380 -0.3543  0.1839
 4948TIP3    H236336   5.089   3.694  12.048  0.9992  1.1887  0.6951
 4949TIP3   OH236337   6.782   3.867   4.193 -0.0049 -0.9533 -0.2271
 4949TIP3    H136338   6.723   3.807   4.147  1.1420 -0.9709 -1.7248
 4949TIP3    H236339   6.852   3.885   4.131  2.7231 -2.5660  2.1814
 4950TIP3   OH236340   2.342   4.258  12.153 -0.6607  0.1757 -0.4236
 4950TIP3    H136341   2.387   4.263  12.238 -0.0351 -2.0514 -0.5563
 4950TIP3    H236342   2.342   4.348  12.120 -0.7436  1.0701  1.8251
 4951TIP3   OH236343   6.241   0.959  10.911  0.2329 -0.1179  0.0581
 4951TIP3    H136344   6.332   0.933  10.897  0.4884 -0.2906  1.7964
 4951TIP3    H236345   6.245   1.022  10.983 -0.9822  0.2520 -0.1775
 4952TIP3   OH236346   0.760   4.766  16.563  0.8097  0.0550 -0.4043
 4952TIP3    H136347   0.666   4.781  16.576  0.9416  0.4258  0.1774
 4952TIP3    H236348   0.765   4.715  16.483  0.0457 -0.8818  0.1181
 4953TIP3   OH236349   2.503   3.401   5.092 -0.3823  0.2544 -0.1820
 4953TIP3    H136350   2.488   3.333   5.026  1.9523  0.0701 -0.5863
 4953TIP3    H236351   2.594   3.427   5.080 -0.6422  2.0491  1.3037
 4954TIP3   OH236352   5.261   2.477   4.870  0.0239 -0.3629 -0.2050
 4954TIP3    H136353   5.331   2.496   4.933  0.7713 -0.6294 -0.9370
 4954TIP3    H236354   5.281   2.533   4.795 -1.0202  0.1613 -0.1081
 4955TIP3   OH236355   3.243   1.186   3.218 -0.2830  0.1795  0.2013
 4955TIP3    H136356   3.247   1.282   3.219  0.0831  0.1663  0.3453
 4955TIP3    H236357   3.152   1.166   3.200 -0.6402  0.5644  1.4856
 4956TIP3   OH236358   3.489   0.166  12.595  0.3382  0.0152 -0.6918
 4956TIP3    H136359   3.465   0.195  12.507  0.6346 -1.6927 -1.3803
 4956TIP3    H236360   3.495   0.071  12.588 -0.0872 -0.2106  1.2991
 4957TIP3   OH236361   3.144   2.623  13.671 -0.0235 -0.0028  0.1467
 4957TIP3    H136362   3.083   2.567  13.719 -0.4035 -0.1035 -0.4463
 4957TIP3    H236363   3.102   2.639  13.587 -0.0716  1.4350  0.4134
 4958TIP3   OH236364   4.450   0.107   5.029 -0.2749  0.6045  0.1188
 4958TIP3    H136365   4.420   0.193   4.999  2.7285  1.8853  0.4742
 4958TIP3    H236366   4.536   0.123   5.067  0.3468 -2.5736  0.3399
 4959TIP3   OH236367   5.756   3.297  11.327 -0.4179  0.1303  0.2780
 4959TIP3    H136368   5.839   3.289  11.375 -0.8284  1.3189  1.2440
 4959TIP3    H236369   5.781   3.283  11.235  0.5586 -1.1704  0.7000
 4960TIP3   OH236370   4.194   5.753  16.173  0.3925 -0.2845  0.4308
 4960TIP3    H136371   4.131   5.799  16.227  1.9907  4.2833 -1.1235
 4960TIP3    H236372   4.142   5.693  16.120 -2.0889  0.5131  1.8255
 4961TIP3   OH236373   1.397   3.865   6.840  0.6360  0.4082 -0.8448
 4961TIP3    H136374   1.361   3.794   6.787 -0.6427  0.9870 -0.7817
 4961TIP3    H236375   1.480   3.887   6.797  0.9332 -0.9252 -1.0137
 4962TIP3   OH236376   1.842   3.533   7.362  0.2742  0.5406  0.2987
 4962TIP3    H136377   1.862   3.589   7.287 -2.5270 -0.4609 -1.3279
 4962TIP3    H236378   1.925   3.487   7.380  0.6220 -0.6916 -3.5409
 4963TIP3   OH236379   1.938   0.188  13.404 -0.6096  0.1962  0.4828
 4963TIP3    H136380   1.931   0.254  13.473 -0.8115  2.0788 -1.2122
 4963TIP3    H236381   1.848   0.164  13.384 -0.6083  0.3338  0.2999
 4964TIP3   OH236382   4.060   4.358  15.691  0.2685  0.1021 -0.0562
 4964TIP3    H136383   3.968   4.382  15.676  0.7542  1.3149 -1.2498
 4964TIP3    H236384   4.055   4.274  15.736 -1.4591  1.0555  1.6741
 4965TIP3   OH236385   1.203   3.889  12.142  0.5222 -0.5818 -0.7153
 4965TIP3    H136386   1.275   3.911  12.083  1.8721 -2.6704  0.0337
 4965TIP3    H236387   1.180   3.799  12.119 -1.4971 -0.1605 -0.5301
 4966TIP3   OH236388   1.604   6.353  11.033 -0.6247  0.5325  0.3453
 4966TIP3    H136389   1.619   6.444  11.010 -1.9497  0.3724 -1.4181
 4966TIP3    H236390   1.692   6.313  11.033 -0.2598  1.0485 -2.6544
 4967TIP3   OH236391   0.682   5.524  11.825 -0.0360  0.5510  0.2678
 4967TIP3    H136392   0.619   5.501  11.893  0.5887 -0.6876  0.4575
 4967TIP3    H236393   0.763   5.541  11.873 -0.2042  2.1602  0.0276
 4968TIP3   OH236394   2.500   5.368  16.125  0.2158  0.1875  0.1151
 4968TIP3    H136395   2.491   5.395  16.216 -0.6259  1.7949 -0.3854
 4968TIP3    H236396   2.565   5.298  16.126  1.5027  1.3259  1.7458
 4969TIP3   OH236397   3.555   1.151   2.885 -0.1341 -0.4537 -0.6888
 4969TIP3    H136398   3.521   1.062   2.892 -0.4674 -0.3707 -1.1959
 4969TIP3    H236399   3.649   1.142   2.903 -0.5356 -0.5346  1.7968
 4970TIP3   OH236400   4.954   1.207   4.302 -0.2159 -0.1138 -0.0027
 4970TIP3    H136401   4.920   1.122   4.329 -0.8302  0.4832  1.2157
 4970TIP3    H236402   4.884   1.269   4.325  0.1465  0.7028 -1.0194
 4971TIP3   OH236403   3.427   5.470  13.668  0.1932  1.1494 -0.3456
 4971TIP3    H136404   3.360   5.529  13.703 -0.8118 -0.1968  0.1168
 4971TIP3    H236405   3.438   5.404  13.737 -0.0231 -0.1862 -1.5467
 4972TIP3   OH236406   2.675   4.833  15.030  0.0851 -0.4565 -0.4787
 4972TIP3    H136407   2.694   4.898  15.098  0.1133  1.1467 -1.9486
 4972TIP3    H236408   2.579   4.828  15.027  0.0364  0.6467 -1.3429
 4973TIP3   OH236409   4.794   2.609  17.113  0.6884  0.3535  0.5228
 4973TIP3    H136410   4.734   2.663  17.061  0.7618 -2.0221 -2.2338
 4973TIP3    H236411   4.739   2.538  17.147  1.0800  0.7338  2.0404
 4974TIP3   OH236412   0.821   1.459  10.497 -0.2243 -0.7484 -0.4070
 4974TIP3    H136413   0.902   1.421  10.531 -0.0083 -2.1531 -2.3770
 4974TIP3    H236414   0.847   1.547  10.468  0.1029 -0.4292  0.7698
 4975TIP3   OH236415   4.659   3.360  15.958  0.5077  0.0535  0.6430
 4975TIP3    H136416   4.604   3.321  15.890  0.2941  0.8248  0.3620
 4975TIP3    H236417   4.627   3.450  15.966  1.0563  0.2068  1.2038
 4976TIP3   OH236418   3.748   1.880  15.356  0.1393  0.3359  0.4617
 4976TIP3    H136419   3.656   1.891  15.333 -0.1111 -2.3461 -0.1970
 4976TIP3    H236420   3.796   1.914  15.280 -0.2825  1.7253  0.8024
 4977TIP3   OH236421   5.354   4.102   0.680 -0.4395  0.1876 -0.8038
 4977TIP3    H136422   5.399   4.155   0.613  0.4479  0.4902  0.0088
 4977TIP3    H236423   5.347   4.160   0.756  2.1287 -1.2902  0.7232
 4978TIP3   OH236424   4.165   2.562   2.478  0.8579  0.0415 -0.6203
 4978TIP3    H136425   4.238   2.502   2.464  0.8346 -0.3418  0.8202
 4978TIP3    H236426   4.155   2.566   2.573 -2.2906 -1.5203 -0.7685
 4979TIP3   OH236427   4.974   5.540  16.748 -0.0347  0.3416 -0.3866
 4979TIP3    H136428   5.003   5.624  16.712 -1.0313 -0.5394 -3.5776
 4979TIP3    H236429   4.880   5.537  16.730 -0.1969 -1.0454  0.5414
 4980TIP3   OH236430   3.022   3.223  17.359  0.1265 -0.4455 -0.0517
 4980TIP3    H136431   3.073   3.287  17.409 -2.9709  1.8988  0.4144
 4980TIP3    H236432   3.072   3.142  17.365  1.8424  0.6828  3.5968
 4981TIP3   OH236433   0.591   5.578  15.490 -0.0777  0.2410 -0.2600
 4981TIP3    H136434   0.518   5.638  15.503 -2.7152 -3.1882  2.9084
 4981TIP3    H236435   0.561   5.518  15.421  0.3557 -0.3057  0.0166
 4982TIP3   OH236436   2.184   6.076  15.026  0.0659 -0.1184  0.1227
 4982TIP3    H136437   2.254   6.128  15.065 -0.1288 -0.0903  0.4394
 4982TIP3    H236438   2.218   5.986  15.028  0.4413  0.0087 -0.5154
 4983TIP3   OH236439   6.220   1.481  16.942  0.1494 -0.2388 -0.3851
 4983TIP3    H136440   6.133   1.445  16.928 -0.4244  0.1176  1.8640
 4983TIP3    H236441   6.242   1.524  16.859 -2.8683  1.7795 -0.2874
 4984TIP3   OH236442   4.871   6.195   2.503  0.4179  0.3652 -0.2514
 4984TIP3    H136443   4.924   6.184   2.582  0.8479 -0.6981 -0.6717
 4984TIP3    H236444   4.883   6.287   2.479  0.9556  0.4832  0.4468
 4985TIP3   OH236445   3.255   2.817   6.023  0.9657  0.5649  0.0728
 4985TIP3    H136446   3.241   2.825   5.929  0.4810 -0.4740  0.0403
 4985TIP3    H236447   3.186   2.872   6.062  0.8463  0.5844 -0.1653
 4986TIP3   OH236448   0.777   1.539  14.440  0.1448 -0.1890 -0.5415
 4986TIP3    H136449   0.856   1.592  14.452  0.1606 -0.0483 -1.2151
 4986TIP3    H236450   0.770   1.528  14.345 -0.1564 -0.9528 -0.4338
 4987TIP3   OH236451   0.654   0.088   4.056  0.2816 -0.8070 -0.5094
 4987TIP3    H136452   0.605   0.061   3.979 -0.4166 -1.2276  0.0690
 4987TIP3    H236453   0.620   0.175   4.078 -2.2262 -2.1269  1.4517
 4988TIP3   OH236454   0.693   0.820  13.994  0.5958  0.1133 -0.3150
 4988TIP3    H136455   0.686   0.882  13.922  0.3026  0.2560 -0.1666
 4988TIP3    H236456   0.752   0.752  13.962  0.1912 -0.0063 -0.8171
 4989TIP3   OH236457   0.688   1.579   4.199 -0.4630 -0.1322 -0.0659
 4989TIP3    H136458   0.743   1.641   4.247  0.0727 -0.4581 -0.2481
 4989TIP3    H236459   0.738   1.497   4.199 -0.4314 -0.1273 -1.2119
 4990TIP3   OH236460   2.133   5.061  15.056  0.0337 -0.5933  0.1174
 4990TIP3    H136461   2.203   5.109  15.012  0.4860 -0.4436  0.9807
 4990TIP3    H236462   2.103   4.998  14.991  1.0768 -0.7676 -0.2069
 4991TIP3   OH236463   6.104   3.942  10.807 -0.4958 -0.0634  0.7101
 4991TIP3    H136464   6.199   3.931  10.796 -0.3266 -0.7317  2.4886
 4991TIP3    H236465   6.095   4.008  10.876 -1.3868  1.0695 -0.4233
 4992TIP3   OH236466   2.842   1.533  12.460  0.2828  0.2441 -0.6265
 4992TIP3    H136467   2.779   1.464  12.481 -0.3364  0.7617 -0.7584
 4992TIP3    H236468   2.926   1.496  12.486 -0.2865  0.3107  1.5206
 4993TIP3   OH236469   5.772   6.220  14.389 -0.5037 -0.1400 -0.7636
 4993TIP3    H136470   5.687   6.264  14.385 -1.0367 -1.1355 -0.8410
 4993TIP3    H236471   5.751   6.130  14.415  0.5571 -0.3310 -0.5094
 4994TIP3   OH236472   3.369   4.381  13.036  0.2354 -0.0659  0.2363
 4994TIP3    H136473   3.306   4.334  13.091  2.2725 -0.7060  2.1823
 4994TIP3    H236474   3.328   4.466  13.019 -1.4226 -0.7154  0.8294
 4995TIP3   OH236475   1.338   4.196  12.032  0.2087  0.5129 -0.3673
 4995TIP3    H136476   1.297   4.200  11.946 -1.9144 -1.2439  0.4640
 4995TIP3    H236477   1.377   4.109  12.037  0.4277  0.6435  0.3724
 4996TIP3   OH236478   0.892   2.097  12.095  0.7451 -0.0877 -0.4698
 4996TIP3    H136479   0.859   2.008  12.090 -1.9946  0.8578 -0.9933
 4996TIP3    H236480   0.925   2.115  12.007  0.3366 -0.2315 -0.6512
 4997TIP3   OH236481   6.230   4.877  12.639 -0.4728  0.4646  0.5174
 4997TIP3    H136482   6.165   4.834  12.695  2.2513 -1.7241  2.2671
 4997TIP3    H236483   6.268   4.945  12.695 -0.6086  1.1112 -0.1663
 4998TIP3   OH236484   1.933   5.685  15.550 -0.5197 -0.3099 -0.0788
 4998TIP3    H136485   2.015   5.733  15.545 -0.3824 -0.4634  0.6053
 4998TIP3    H236486   1.898   5.687  15.461 -0.2573  0.5903 -0.1713
 4999TIP3   OH236487   5.796   6.536  14.452  0.3131  0.2984  0.1078
 4999TIP3    H136488   5.874   6.581  14.420  1.1205 -0.4087  1.0048
 4999TIP3    H236489   5.826   6.448  14.473 -0.9465 -0.2934 -0.4068
 5000TIP3   OH236490   4.851   3.326   2.976  0.3138 -0.7388  0.4381
 5000TIP3    H136491   4.898   3.352   3.056  2.2879 -0.7981 -0.6250
 5000TIP3    H236492   4.892   3.244   2.950 -1.8267 -1.8946  0.5250
 5001TIP3   OH236493   0.649   1.084   5.623 -0.0053  0.5288  0.3292
 5001TIP3    H136494   0.583   1.041   5.567  1.6026 -0.2287 -1.0671
 5001TIP3    H236495   0.601   1.107   5.702 -2.1928  0.8789 -1.0029
 5002TIP3   OH236496   4.121   2.547  12.178 -0.2610  0.0604  0.4961
 5002TIP3    H136497   4.144   2.525  12.088  0.7226  0.1866  0.7024
 5002TIP3    H236498   4.171   2.485  12.231  1.7403  2.0289  1.0578
 5003TIP3   OH236499   0.793   1.694  14.158 -0.0929  0.7651 -0.3562
 5003TIP3    H136500   0.888   1.682  14.159  0.2267  2.2537  3.3377
 5003TIP3    H236501   0.759   1.617  14.113  2.7619 -1.1408  0.4944
 5004TIP3   OH236502   3.713   4.767  13.165 -0.0048 -0.3507  0.2548
 5004TIP3    H136503   3.742   4.803  13.081 -0.3895 -0.2928  0.1438
 5004TIP3    H236504   3.792   4.765  13.219 -0.1199  1.4231  0.5489
 5005TIP3   OH236505   2.735   5.151   5.158 -0.0013 -0.4951 -0.3205
 5005TIP3    H136506   2.690   5.235   5.168  0.2404 -0.1975 -1.5175
 5005TIP3    H236507   2.803   5.151   5.225 -0.8129 -0.2961  0.5206
 5006TIP3   OH236508   0.942   3.431  16.492 -0.6601 -0.1634  0.5220
 5006TIP3    H136509   0.964   3.514  16.534 -1.7246 -0.8143  2.5395
 5006TIP3    H236510   1.022   3.378  16.498 -0.8806 -0.3658  2.1570
 5007TIP3   OH236511   3.809   4.354   4.283  0.2058  0.1203 -0.2419
 5007TIP3    H136512   3.740   4.420   4.286  1.3437  1.3567  0.0296
 5007TIP3    H236513   3.808   4.324   4.192  0.5991  1.6123 -0.7844
 5008TIP3   OH236514   0.168   2.582  16.961 -0.1660  0.5227  0.6556
 5008TIP3    H136515   0.153   2.675  16.979  0.7015  0.6565  0.7555
 5008TIP3    H236516   0.190   2.544  17.045 -0.8472  0.1498  0.6714
 5009TIP3   OH236517   1.085   4.038   2.304  0.7900 -0.1641 -0.1187
 5009TIP3    H136518   1.151   4.085   2.355  1.8156 -1.0158 -0.6234
 5009TIP3    H236519   1.005   4.043   2.357  1.8011 -0.9740  1.5620
 5010TIP3   OH236520   4.665   4.209  13.366 -0.2366 -0.0499  0.0505
 5010TIP3    H136521   4.755   4.220  13.394 -0.3752  1.2772  0.0386
 5010TIP3    H236522   4.668   4.221  13.271 -0.3668 -0.3572  0.0080
 5011TIP3   OH236523   2.353   3.953   1.545  0.4532 -0.2757 -0.3037
 5011TIP3    H136524   2.312   3.976   1.629  2.1197  0.8042  0.2635
 5011TIP3    H236525   2.385   3.864   1.558  1.9898  0.3872  0.7808
 5012TIP3   OH236526   6.631   3.448  17.370 -0.2033 -0.5265 -0.1157
 5012TIP3    H136527   6.705   3.442  17.431 -1.0530 -2.4362  0.8303
 5012TIP3    H236528   6.646   3.376  17.308 -0.3968  0.1348 -0.9404
 5013TIP3   OH236529   3.004   0.782  13.328 -0.3513 -0.0938  0.2416
 5013TIP3    H136530   3.016   0.861  13.275  0.5580 -0.2487  0.1961
 5013TIP3    H236531   2.985   0.713  13.265  1.8465 -0.5120 -0.0422
 5014TIP3   OH236532   4.096   0.985   3.300  0.1779  0.0759  0.0092
 5014TIP3    H136533   4.055   0.899   3.312 -0.7692  0.7863  2.2623
 5014TIP3    H236534   4.180   0.965   3.259  0.3936 -2.0419  1.3037
 5015TIP3   OH236535   1.227   3.208  14.684  0.1371 -0.1797 -0.6348
 5015TIP3    H136536   1.264   3.120  14.684  1.3099  0.2796 -1.1670
 5015TIP3    H236537   1.185   3.218  14.769 -0.1402 -1.2981 -0.6355
 5016TIP3   OH236538   5.125   0.524   2.299 -0.5560 -0.6147  0.4975
 5016TIP3    H136539   5.158   0.495   2.384  0.3220  0.2824  0.4796
 5016TIP3    H236540   5.204   0.547   2.249 -1.0984 -0.5206 -0.3386
 5017TIP3   OH236541   0.809   0.143  11.451  0.3295  0.3271 -0.0303
 5017TIP3    H136542   0.722   0.109  11.432  0.7166 -0.0905 -1.1276
 5017TIP3    H236543   0.793   0.226  11.497 -0.6338  0.1636 -0.0484
 5018TIP3   OH236544   1.974   2.114  16.566  0.3181  0.1729  0.0972
 5018TIP3    H136545   2.033   2.189  16.557  0.3955  0.1877  0.7115
 5018TIP3    H236546   1.889   2.146  16.536 -0.2406  1.2650  2.5651
 5019TIP3   OH236547   1.678   6.700  11.512  0.1215  0.0300  0.0174
 5019TIP3    H136548   1.614   6.697  11.584 -1.9543 -2.0335 -1.7613
 5019TIP3    H236549   1.638   6.760  11.448  0.3904 -0.5741 -0.7302
 5020TIP3   OH236550   5.701   4.165  13.699 -0.0989  0.0314 -0.7005
 5020TIP3    H136551   5.771   4.177  13.764  0.9865  2.8376 -2.2276
 5020TIP3    H236552   5.722   4.082  13.656  0.4983 -0.6868  0.8816
 5021TIP3   OH236553   2.951   4.662  15.785  0.5119 -0.2843 -0.6245
 5021TIP3    H136554   2.965   4.749  15.748 -3.6175  0.6445 -0.4696
 5021TIP3    H236555   2.959   4.602  15.710  1.0125  0.5137 -1.2179
 5022TIP3   OH236556   5.285   4.062  16.238  0.6113  0.2174 -0.2485
 5022TIP3    H136557   5.217   4.043  16.174  0.8945 -0.4132 -0.3623
 5022TIP3    H236558   5.350   3.993  16.226  0.1375 -0.5914  1.4851
 5023TIP3   OH236559   0.161   0.487  17.252 -0.4062  0.0222  0.6048
 5023TIP3    H136560   0.167   0.537  17.171  1.3386  1.2326  1.4004
 5023TIP3    H236561   0.093   0.422  17.236  0.1280 -0.0066 -1.9285
 5024TIP3   OH236562   0.158   4.764   6.058  0.2615 -0.4077  0.2588
 5024TIP3    H136563   0.190   4.732   6.142 -1.9513 -0.7845  1.0200
 5024TIP3    H236564   0.111   4.844   6.079 -0.2273 -0.4473 -0.6522
 5025TIP3   OH236565   6.255   0.415  11.039 -0.0158 -0.4204 -0.1349
 5025TIP3    H136566   6.229   0.504  11.017  1.1461 -0.1492 -0.4886
 5025TIP3    H236567   6.319   0.392  10.971  0.5963 -1.0716  0.6455
 5026TIP3   OH236568   4.089   4.559   0.208 -0.1794  0.3273  0.3912
 5026TIP3    H136569   4.025   4.510   0.259 -1.6892  0.2208 -1.4843
 5026TIP3    H236570   4.040   4.635   0.175  0.0230 -0.7118 -2.6194
 5027TIP3   OH236571   0.732   2.832   3.772 -0.2174  0.0578  0.0992
 5027TIP3    H136572   0.763   2.804   3.686 -0.9605  0.7751 -0.4186
 5027TIP3    H236573   0.787   2.785   3.834  1.0251  0.3114 -0.7738
 5028TIP3   OH236574   0.922   2.248  13.694  0.1577 -0.3847  0.0964
 5028TIP3    H136575   0.944   2.259  13.601 -0.3459 -0.2481 -0.0069
 5028TIP3    H236576   0.950   2.329  13.735 -1.3819  0.3523 -0.2654
 5029TIP3   OH236577   0.209   6.394   3.049  0.5785  0.2869  0.4029
 5029TIP3    H136578   0.195   6.304   3.078  1.4259  0.2642  0.7783
 5029TIP3    H236579   0.266   6.386   2.973 -1.1909  0.3862 -0.9837
 5030TIP3   OH236580   0.778   6.509   0.146 -0.2615 -0.6737  0.6386
 5030TIP3    H136581   0.694   6.546   0.174  0.3754  0.5911  0.9493
 5030TIP3    H236582   0.805   6.564   0.072  0.8263 -0.3471  1.2629
 5031TIP3   OH236583   4.697   0.735   5.188 -0.1031  0.6855  0.1313
 5031TIP3    H136584   4.777   0.760   5.235 -0.9980 -0.2860  2.3056
 5031TIP3    H236585   4.720   0.653   5.144 -0.1036 -0.1022  1.5244
 5032TIP3   OH236586   1.774   1.063  14.033 -0.5559 -0.3009  0.6006
 5032TIP3    H136587   1.845   1.115  14.072  1.5355  0.5736 -3.7697
 5032TIP3    H236588   1.787   0.975  14.068  1.1930  0.3496  1.7301
 5033TIP3   OH236589   5.509   5.964   0.420 -0.0958 -0.0939  0.6131
 5033TIP3    H136590   5.502   5.919   0.504 -2.6760 -0.1068  0.4641
 5033TIP3    H236591   5.493   6.056   0.441  0.4985  0.0878  0.2871
 5034TIP3   OH236592   2.886   1.016   1.685  0.3154  0.0560  0.1168
 5034TIP3    H136593   2.965   1.037   1.735 -0.5817  3.2705  0.3872
 5034TIP3    H236594   2.833   0.964   1.746  2.1389 -2.2597 -0.1069
 5035TIP3   OH236595   0.335   0.732   0.454  0.0147 -0.4861  0.1628
 5035TIP3    H136596   0.349   0.799   0.521  1.0736 -0.1894 -0.3242
 5035TIP3    H236597   0.258   0.762   0.406 -0.5279 -0.5062  1.0024
 5036TIP3   OH236598   4.720   5.965   0.547  0.3613  0.2463  0.0045
 5036TIP3    H136599   4.708   6.060   0.557  0.0432  0.3799 -1.4115
 5036TIP3    H236600   4.797   5.957   0.491 -1.0588 -0.2339 -1.9619
 5037TIP3   OH236601   4.158   0.525  12.661  0.3885  0.2636  0.8180
 5037TIP3    H136602   4.239   0.502  12.616  0.0290  0.8638 -0.1468
 5037TIP3    H236603   4.113   0.441  12.672  0.6652  0.0624  0.4338
 5038TIP3   OH236604   5.519   6.756   4.134  0.1460  0.4590 -0.0860
 5038TIP3    H136605   5.500   6.772   4.041 -1.4960  1.4683  0.3925
 5038TIP3    H236606   5.507   6.662   4.144  0.3803  0.3278 -0.8995
 5039TIP3   OH236607   6.699   2.227   3.123  0.2867 -0.0073 -0.8772
 5039TIP3    H136608   6.668   2.137   3.129 -0.3377  0.1860 -1.1695
 5039TIP3    H236609   6.736   2.245   3.210 -3.4919  0.8597  0.7451
 5040TIP3   OH236610   1.512   1.829  15.515  0.3641  0.2665 -0.0874
 5040TIP3    H136611   1.497   1.775  15.437  3.8043 -0.8008 -0.1694
 5040TIP3    H236612   1.484   1.917  15.488 -1.3219 -0.6242 -1.4505
 5041TIP3   OH236613   5.259   5.460  11.333  0.0303  0.2685  0.1018
 5041TIP3    H136614   5.264   5.402  11.409  0.7861 -0.0729 -0.1905
 5041TIP3    H236615   5.243   5.402  11.259 -2.0099  0.7242  0.1326
 5042TIP3   OH236616   2.908   2.509  12.116 -0.1202  0.3137 -0.2203
 5042TIP3    H136617   2.983   2.465  12.075  2.0342  1.7249  1.8985
 5042TIP3    H236618   2.908   2.596  12.076  0.4364  0.8512  0.8967
 5043TIP3   OH236619   3.743   4.333   1.877  0.0135 -0.5553 -0.6111
 5043TIP3    H136620   3.737   4.407   1.936 -3.0248 -1.0844 -0.0988
 5043TIP3    H236621   3.836   4.328   1.853  0.6673  1.9786  1.0896
 5044TIP3   OH236622   1.984   4.487  12.298  0.2470  0.4063  0.0981
 5044TIP3    H136623   1.923   4.560  12.307  1.4269  1.2192  2.0687
 5044TIP3    H236624   2.070   4.526  12.308  0.9944 -1.0546 -0.3550
 5045TIP3   OH236625   2.942   1.262  12.656  0.5944 -0.3831  0.0106
 5045TIP3    H136626   2.855   1.226  12.673  0.0727  0.1620 -1.3473
 5045TIP3    H236627   3.002   1.200  12.696 -0.3465 -1.8147 -0.7186
 5046TIP3   OH236628   2.730   2.426  14.756  0.2018  0.4022  0.3243
 5046TIP3    H136629   2.686   2.343  14.740  2.2247 -1.0715  1.9571
 5046TIP3    H236630   2.729   2.436  14.851  1.6439  1.2918  0.2750
 5047TIP3   OH236631   1.821   5.963  17.007 -0.0915  0.3287  0.2544
 5047TIP3    H136632   1.917   5.970  17.002 -0.0688  0.1279  0.3952
 5047TIP3    H236633   1.794   6.047  17.043 -0.2626  1.7858 -2.9408
 5048TIP3   OH236634   0.802   2.300   4.459 -0.7187 -0.7905 -0.0321
 5048TIP3    H136635   0.848   2.297   4.543  0.7508  1.1417 -0.6844
 5048TIP3    H236636   0.766   2.212   4.448 -1.9514 -0.7963  3.1195
 5049TIP3   OH236637   4.262   0.050   1.448  0.3723 -0.1889 -0.2858
 5049TIP3    H136638   4.277   0.141   1.472  0.2916 -0.4717  0.8998
 5049TIP3    H236639   4.191   0.052   1.384  0.0988  0.5459  0.0404
 5050TIP3   OH236640   1.244   6.533   5.833  0.2796  0.5332  0.1364
 5050TIP3    H136641   1.316   6.515   5.772  0.3768  0.6307  0.2215
 5050TIP3    H236642   1.239   6.629   5.835 -3.3239  0.7528 -4.0254
 5051TIP3   OH236643   3.684   2.303   2.752 -0.1702 -0.3061  0.2666
 5051TIP3    H136644   3.724   2.223   2.719  1.2165  0.3087  0.3890
 5051TIP3    H236645   3.590   2.289   2.741  0.0893 -1.5787 -0.5528
 5052TIP3   OH236646   3.473   6.063   0.368 -0.3565  1.4068  0.5635
 5052TIP3    H136647   3.535   6.109   0.311 -1.3175  3.3217  0.9922
 5052TIP3    H236648   3.512   6.070   0.455  0.9477 -1.2354  0.2914
 5053TIP3   OH236649   2.281   6.456  16.400 -0.1616  0.0524 -0.3816
 5053TIP3    H136650   2.190   6.431  16.382 -0.6714  0.6735  1.1630
 5053TIP3    H236651   2.327   6.373  16.410 -0.4635 -0.2722 -1.5336
 5054TIP3   OH236652   2.336   1.446   4.925 -0.0594 -0.1055  0.5402
 5054TIP3    H136653   2.422   1.484   4.907 -0.5709  1.1655  0.6129
 5054TIP3    H236654   2.339   1.359   4.886  0.4714  0.8011 -1.6085
 5055TIP3   OH236655   6.670   3.883  13.942  0.1370  0.3985 -0.2542
 5055TIP3    H136656   6.762   3.905  13.926  0.3258 -1.5273 -2.3589
 5055TIP3    H236657   6.633   3.868  13.855 -1.3018 -2.0155  0.6700
 5056TIP3   OH236658   1.272   1.669  13.703 -0.1324 -0.2859  0.2016
 5056TIP3    H136659   1.349   1.632  13.746  0.0793 -0.4093 -0.2860
 5056TIP3    H236660   1.214   1.693  13.776  0.6590  0.4631  0.6046
 5057TIP3   OH236661   5.323   5.631  16.194 -0.5725  0.2277  0.4336
 5057TIP3    H136662   5.321   5.554  16.251 -1.0450  0.5967  0.9229
 5057TIP3    H236663   5.238   5.631  16.151  0.5152 -1.2409 -1.9250
 5058TIP3   OH236664   4.139   1.788   4.324 -0.1328 -0.1582  0.3844
 5058TIP3    H136665   4.207   1.737   4.280 -0.5873  0.2792 -0.8762
 5058TIP3    H236666   4.085   1.823   4.253 -1.0021  0.4456  1.3048
 5059TIP3   OH236667   6.262   0.640  14.707  0.7495  0.2591 -0.2313
 5059TIP3    H136668   6.251   0.576  14.637  2.6860  1.4069 -1.7124
 5059TIP3    H236669   6.175   0.650  14.745  0.3379 -3.1435  0.0605
 5060TIP3   OH236670   2.413   0.919  15.262 -0.2520  0.4900  1.0768
 5060TIP3    H136671   2.505   0.926  15.237 -0.9299 -0.3900 -2.0943
 5060TIP3    H236672   2.403   0.980  15.335  2.5362  1.6414  0.5997
 5061TIP3   OH236673   0.222   3.429   3.487 -0.2505 -0.2743 -0.1124
 5061TIP3    H136674   0.155   3.399   3.425 -1.0245  0.0643  0.5374
 5061TIP3    H236675   0.198   3.520   3.505 -1.6770 -1.0743  2.7088
 5062TIP3   OH236676   1.177   5.214  13.760 -0.7915 -0.0123  0.7825
 5062TIP3    H136677   1.128   5.180  13.686  0.0549 -0.1447  0.2677
 5062TIP3    H236678   1.238   5.277  13.721 -0.3632 -0.0577  1.3651
 5063TIP3   OH236679   1.212   4.226   0.686 -0.3153 -0.4044  0.5978
 5063TIP3    H136680   1.237   4.167   0.615 -1.2476  0.3404 -0.3828
 5063TIP3    H236681   1.181   4.168   0.756  0.4779 -1.1391  0.3508
 5064TIP3   OH236682   0.665   6.532  12.590 -0.0626  0.1407 -0.8397
 5064TIP3    H136683   0.700   6.450  12.625 -0.1887  0.6503  0.5566
 5064TIP3    H236684   0.728   6.599  12.616 -1.5776  0.9549  1.0356
 5065TIP3   OH236685   3.182   2.250  11.301  0.1151  0.5647  0.1588
 5065TIP3    H136686   3.152   2.274  11.389 -0.7733  2.1476 -0.5279
 5065TIP3    H236687   3.227   2.329  11.269 -1.2119  0.7007 -1.4892
 5066TIP3   OH236688   2.676   3.870  16.525  0.2075 -0.1433 -0.2076
 5066TIP3    H136689   2.609   3.834  16.467  1.0057 -0.0377 -1.2156
 5066TIP3    H236690   2.750   3.809  16.517  0.2682 -0.2310  0.8550
 5067TIP3   OH236691   5.309   6.168   3.614  0.6593 -0.5182 -0.1982
 5067TIP3    H136692   5.291   6.258   3.589  0.6293 -0.4702 -0.0036
 5067TIP3    H236693   5.403   6.166   3.631  0.4825 -0.2637  0.8521
 5068TIP3   OH236694   5.161   6.361   1.712 -0.5217  0.0173  0.3781
 5068TIP3    H136695   5.209   6.423   1.656 -0.6893  1.1295  1.4399
 5068TIP3    H236696   5.205   6.277   1.697  1.8082  0.9811  1.2962
 5069TIP3   OH236697   2.261   6.667   1.885  0.1651 -0.2600 -0.2839
 5069TIP3    H136698   2.218   6.727   1.825 -3.2409 -1.9944  0.1997
 5069TIP3    H236699   2.287   6.593   1.830  0.3132 -0.2910 -0.1733
 5070TIP3   OH236700   1.267   2.454   4.354  0.4232  0.4593  0.1576
 5070TIP3    H136701   1.241   2.524   4.413  1.6661 -1.7704  3.6251
 5070TIP3    H236702   1.356   2.478   4.326  0.3231  0.8905  0.2026
 5071TIP3   OH236703   5.359   4.786  12.291  0.5526  0.3351  0.5888
 5071TIP3    H136704   5.380   4.838  12.369 -0.8856  0.3318  1.0166
 5071TIP3    H236705   5.420   4.712  12.294 -0.5770 -0.6185  2.7204
 5072TIP3   OH236706   3.396   0.097  16.171 -0.4987  0.9888  0.0199
 5072TIP3    H136707   3.397   0.138  16.084  0.2636  1.6187  0.3164
 5072TIP3    H236708   3.312   0.050  16.174  1.1167 -2.6398 -2.6933
 5073TIP3   OH236709   6.224   1.192   4.847 -0.3782  0.5720  0.2984
 5073TIP3    H136710   6.174   1.114   4.825  0.5707  0.6977 -2.8383
 5073TIP3    H236711   6.187   1.261   4.791  0.8737  1.5621  0.6225
 5074TIP3   OH236712   4.198   0.113   0.859  0.5980  0.3227  0.5986
 5074TIP3    H136713   4.123   0.137   0.805  0.7606 -0.8306 -0.1730
 5074TIP3    H236714   4.186   0.019   0.877  0.0582  0.8346  3.3752
 5075TIP3   OH236715   5.474   0.536  14.985  0.1409  0.2048  0.2173
 5075TIP3    H136716   5.391   0.581  14.971  1.5303  2.6680 -0.6852
 5075TIP3    H236717   5.504   0.514  14.896  0.0812 -1.4754  0.5815
 5076TIP3   OH236718   1.709   0.772  12.295 -0.0974 -0.6014 -0.4635
 5076TIP3    H136719   1.625   0.757  12.339 -1.6006  2.6873 -1.8628
 5076TIP3    H236720   1.770   0.793  12.366 -0.5423 -2.3827  0.5212
 5077TIP3   OH236721   5.797   2.747  13.426 -0.0173 -0.2999 -0.3123
 5077TIP3    H136722   5.744   2.822  13.399  1.0358  0.5261 -0.1144
 5077TIP3    H236723   5.843   2.720  13.347  1.6728  0.9841  0.1789
 5078TIP3   OH236724   4.092   4.258   5.059 -0.4654  0.0715  0.0765
 5078TIP3    H136725   4.011   4.240   5.011 -0.0619  0.2379 -0.6884
 5078TIP3    H236726   4.072   4.333   5.114 -0.7396  0.3279 -0.3680
 5079TIP3   OH236727   2.041   5.895  15.303  0.2437  0.1576 -0.1158
 5079TIP3    H136728   1.983   5.894  15.227  0.4124  0.5262 -0.2483
 5079TIP3    H236729   2.125   5.925  15.268 -0.1557  2.1769  0.5613
 5080TIP3   OH236730   1.607   6.485  17.340  0.4939 -0.5006 -0.1284
 5080TIP3    H136731   1.531   6.544  17.340  1.0276  0.2015 -0.5133
 5080TIP3    H236732   1.645   6.496  17.428  2.6120  2.4533 -1.2359
 5081TIP3   OH236733   1.262   5.860   4.157 -0.1494  0.1544  0.0992
 5081TIP3    H136734   1.348   5.861   4.115  0.1844 -0.8287  0.7334
 5081TIP3    H236735   1.242   5.768   4.169 -0.2455  0.3983  2.0673
 5082TIP3   OH236736   4.676   4.980   4.856  0.3105 -0.0237  1.0668
 5082TIP3    H136737   4.638   4.894   4.834 -2.1011  0.7265  1.9247
 5082TIP3    H236738   4.770   4.969   4.841 -0.1334 -2.1818 -0.8592
 5083TIP3   OH236739   4.984   3.161   0.375  0.7068 -0.2151 -0.1900
 5083TIP3    H136740   5.039   3.235   0.349 -0.4403  1.6433  2.2937
 5083TIP3    H236741   5.013   3.140   0.463 -0.3333 -1.4505 -0.1255
 5084TIP3   OH236742   2.290   2.382   5.344  0.1089  0.2441  0.6067
 5084TIP3    H136743   2.293   2.410   5.253 -0.1415  0.1311  0.5618
 5084TIP3    H236744   2.212   2.425   5.379  0.2188  0.3072  0.7741
 5085TIP3   OH236745   2.200   5.739  14.907 -0.2239  0.0074 -0.3453
 5085TIP3    H136746   2.259   5.665  14.921  0.1263  0.4318  0.5285
 5085TIP3    H236747   2.145   5.741  14.986 -0.7710  0.1948 -0.7264
 5086TIP3   OH236748   2.804   4.566  15.522  0.0914 -0.0131 -0.4585
 5086TIP3    H136749   2.834   4.655  15.503  0.2376 -0.2961 -1.6158
 5086TIP3    H236750   2.884   4.515  15.533  0.0084 -0.0414  0.0496
 5087TIP3   OH236751   5.492   4.926  15.252 -0.2347  0.1192 -0.1118
 5087TIP3    H136752   5.442   4.996  15.295 -0.0510  0.1014  0.1314
 5087TIP3    H236753   5.573   4.921  15.301  0.6395  1.1228 -1.3769
 5088TIP3   OH236754   1.638   2.687  14.934 -0.1393  0.2063  0.5213
 5088TIP3    H136755   1.611   2.773  14.902 -1.6928 -1.4670 -3.3328
 5088TIP3    H236756   1.562   2.656  14.984 -0.4219  0.2546  0.1261
 5089TIP3   OH236757   6.481   1.118  14.013 -0.7808 -0.0625  0.2074
 5089TIP3    H136758   6.405   1.111  14.071 -0.8303 -2.7537 -0.0798
 5089TIP3    H236759   6.456   1.069  13.935  2.0002 -3.2089  1.0525
 5090TIP3   OH236760   0.311   2.171  13.316  0.7092  0.4249  0.0163
 5090TIP3    H136761   0.269   2.101  13.265 -1.1765  1.7168 -0.3170
 5090TIP3    H236762   0.400   2.175  13.283  0.1815 -0.3279 -1.5806
 5091TIP3   OH236763   5.798   3.135   2.155  0.1005 -0.0559 -0.2608
 5091TIP3    H136764   5.793   3.225   2.121  1.6814  0.1367 -0.0707
 5091TIP3    H236765   5.840   3.085   2.085 -0.1979 -0.5082 -0.1186
 5092TIP3   OH236766   3.867   1.918  15.077 -0.1918 -0.5829 -0.3092
 5092TIP3    H136767   3.857   1.978  15.003  0.5055 -0.6926 -0.5018
 5092TIP3    H236768   3.955   1.937  15.111 -1.4032  1.2795  2.1122
 5093TIP3   OH236769   3.815   2.394  13.180  0.1488  0.1848  0.3116
 5093TIP3    H136770   3.770   2.473  13.152 -0.8580 -0.4013  0.2581
 5093TIP3    H236771   3.908   2.417  13.176 -0.1254  1.3058  0.1417
 5094TIP3   OH236772   0.507   6.266   2.564  0.1805  0.2316 -0.0535
 5094TIP3    H136773   0.420   6.227   2.575  0.0198  0.6521  0.1769
 5094TIP3    H236774   0.557   6.234   2.640 -0.2733  1.3411  0.7338
 5095TIP3   OH236775   2.243   1.882   5.171 -0.2798  0.1629 -0.2030
 5095TIP3    H136776   2.291   1.960   5.143  1.0040 -0.2678  0.7194
 5095TIP3    H236777   2.302   1.809   5.152 -0.9470 -0.4724  0.1097
 5096TIP3   OH236778   0.283   1.127  12.222  0.0609 -0.1095  0.3763
 5096TIP3    H136779   0.238   1.148  12.304  0.3903  0.1525  0.4930
 5096TIP3    H236780   0.275   1.207  12.170  0.0316 -0.2058  0.2318
 5097TIP3   OH236781   1.237   5.358   4.961  0.2613 -0.2319  0.1435
 5097TIP3    H136782   1.181   5.305   5.018  1.1225  1.7517  3.0377
 5097TIP3    H236783   1.323   5.354   5.002  0.7915  1.8487 -0.6612
 5098TIP3   OH236784   2.122   1.465  15.043  0.1091 -0.1833 -0.1091
 5098TIP3    H136785   2.203   1.430  15.081 -0.9166 -1.6921  0.7883
 5098TIP3    H236786   2.103   1.543  15.093  0.3160 -0.5589  0.5671
 5099TIP3   OH236787   5.476   1.468  13.798 -0.5493  0.0956 -0.1510
 5099TIP3    H136788   5.387   1.440  13.819 -0.7653  0.5974 -0.3948
 5099TIP3    H236789   5.491   1.544  13.854  0.1492 -0.6694  0.7368
 5100TIP3   OH236790   6.084   6.141   1.598  0.4179 -0.0967 -0.0562
 5100TIP3    H136791   6.097   6.179   1.685 -1.2308  0.4045  0.0008
 5100TIP3    H236792   6.173   6.132   1.563  0.9808  2.9246  0.3296
 5101TIP3   OH236793   2.041   3.139   3.916 -0.4876  0.0357  0.2499
 5101TIP3    H136794   1.992   3.220   3.904 -0.0818 -0.0401 -2.5833
 5101TIP3    H236795   2.133   3.166   3.920 -0.3926 -0.2180 -0.1242
 5102TIP3   OH236796   3.751   5.134  17.319 -0.0376 -0.3903 -0.6447
 5102TIP3    H136797   3.733   5.143  17.413  1.0042 -0.4081 -0.4301
 5102TIP3    H236798   3.688   5.192  17.277 -0.2240 -0.0441  0.0970
 5103TIP3   OH236799   1.646   3.445   5.170  0.6686 -1.0244  0.7995
 5103TIP3    H136800   1.676   3.534   5.152  0.3089 -0.9818  0.4030
 5103TIP3    H236801   1.551   3.449   5.161  0.5326 -1.1650  2.0121
 5104TIP3   OH236802   6.284   2.616   3.396  0.0005  0.1882 -0.3017
 5104TIP3    H136803   6.297   2.681   3.464  0.9845 -1.1329  0.8379
 5104TIP3    H236804   6.191   2.595   3.399 -0.5039  2.0789 -1.2550
 5105TIP3   OH236805   4.623   5.304   6.323 -0.0463  0.2806  0.4637
 5105TIP3    H136806   4.660   5.390   6.344 -0.8879  0.7239  0.1592
 5105TIP3    H236807   4.536   5.305   6.362 -0.2503 -0.2481  0.0293
 5106TIP3   OH236808   2.822   0.877  15.973  0.0886  0.0264  0.3811
 5106TIP3    H136809   2.834   0.942  15.904 -1.1948 -0.2895 -0.1591
 5106TIP3    H236810   2.885   0.903  16.041 -0.5877  2.0007  0.3103
 5107TIP3   OH236811   5.057   4.373  12.190 -0.1859 -0.1749  0.9676
 5107TIP3    H136812   5.012   4.430  12.128 -1.4893 -2.3276 -0.2186
 5107TIP3    H236813   5.098   4.432  12.253 -2.0130  2.0119  0.2378
 5108TIP3   OH236814   3.186   6.252  16.907  0.6843  0.3034  0.2964
 5108TIP3    H136815   3.256   6.313  16.931  1.1753 -0.2203  0.2155
 5108TIP3    H236816   3.134   6.242  16.986 -0.5045  2.2409 -0.1543
 5109TIP3   OH236817   5.816   6.651  13.540 -0.3007 -0.0736 -0.5710
 5109TIP3    H136818   5.752   6.646  13.469 -2.1932  1.4588  0.8738
 5109TIP3    H236819   5.802   6.571  13.591 -0.2771 -0.2829 -0.8949
 5110TIP3   OH236820   2.916   3.335   1.074 -0.5297  0.3101  0.4235
 5110TIP3    H136821   2.949   3.299   0.992  0.4071  1.7347  0.1352
 5110TIP3    H236822   2.852   3.401   1.047 -0.6053  0.4199  0.8629
 5111TIP3   OH236823   3.720   6.475   0.634  1.0711 -0.1412 -0.2008
 5111TIP3    H136824   3.657   6.501   0.566 -0.0876  0.7287  1.1370
 5111TIP3    H236825   3.756   6.392   0.603 -0.1341 -0.2511 -1.4255
 5112TIP3   OH236826   5.123   4.449  15.314  0.2630  0.1854  0.3243
 5112TIP3    H136827   5.126   4.471  15.407 -2.2739  2.2111  0.0525
 5112TIP3    H236828   5.153   4.529  15.270  0.3153 -0.3450 -0.6275
 5113TIP3   OH236829   3.230   5.267   4.402 -0.2482  0.4014 -0.0692
 5113TIP3    H136830   3.304   5.269   4.341 -0.4366  0.3458 -0.2986
 5113TIP3    H236831   3.245   5.189   4.456  0.3929  0.9356  0.5492
 5114TIP3   OH236832   3.585   1.423  13.078 -0.0559  1.0761  0.3536
 5114TIP3    H136833   3.640   1.477  13.021 -0.0491 -1.1236 -1.8765
 5114TIP3    H236834   3.496   1.450  13.058 -0.1100 -0.2163 -1.4434
 5115TIP3   OH236835   6.176   0.933  17.064 -0.5266 -0.2374  0.0254
 5115TIP3    H136836   6.183   0.921  17.159  3.3406 -1.4226 -0.2246
 5115TIP3    H236837   6.221   1.016  17.047 -1.0008 -0.1409 -0.8129
 5116TIP3   OH236838   6.611   2.794   2.030  0.2216  0.0235 -0.3256
 5116TIP3    H136839   6.681   2.840   2.076  1.5989 -2.6256  0.4040
 5116TIP3    H236840   6.531   2.819   2.077  0.9596  1.2234  0.3460
 5117TIP3   OH236841   1.268   2.283   1.274  0.6213 -0.3199  0.4167
 5117TIP3    H136842   1.260   2.192   1.304  0.4891 -1.0184 -1.5338
 5117TIP3    H236843   1.184   2.302   1.233  1.6305 -0.4181 -1.8615
 5118TIP3   OH236844   1.811   0.555  15.002 -0.0252  0.7612  0.2513
 5118TIP3    H136845   1.877   0.588  15.064 -0.6278 -1.3383  2.1645
 5118TIP3    H236846   1.746   0.511  15.058 -0.5299 -1.3947 -1.8798
 5119TIP3   OH236847   3.860   0.313   2.385 -0.2937 -0.0909  0.1842
 5119TIP3    H136848   3.939   0.364   2.368 -0.1469 -0.3658  0.0320
 5119TIP3    H236849   3.887   0.222   2.372 -0.7131 -0.1676 -0.1960
 5120TIP3   OH236850   2.991   5.601  16.491 -0.0275 -0.0812  0.2830
 5120TIP3    H136851   2.995   5.688  16.532  2.4281  0.1020 -0.2333
 5120TIP3    H236852   3.002   5.618  16.397  0.0823 -0.9233  0.1352
 5121TIP3   OH236853   4.913   1.234   0.071 -0.2268 -0.1796 -0.3666
 5121TIP3    H136854   4.918   1.329   0.084 -1.7001 -0.2540  1.0202
 5121TIP3    H236855   5.002   1.209   0.046  0.4842  1.4033  0.4161
 5122TIP3   OH236856   2.902   2.946   0.162 -0.3116  0.0629  0.7589
 5122TIP3    H136857   2.998   2.949   0.159 -0.1767 -0.3096  3.2296
 5122TIP3    H236858   2.881   2.852   0.165 -1.0180 -0.0858 -3.0112
 5123TIP3   OH236859   2.973   1.430  15.444 -0.1586 -0.0518 -0.3448
 5123TIP3    H136860   2.895   1.470  15.405 -0.1529  0.7813  0.4857
 5123TIP3    H236861   2.985   1.349  15.394 -1.1626  0.1366 -0.9217
 5124TIP3   OH236862   1.299   1.214   3.738 -0.0059 -0.6462  0.3169
 5124TIP3    H136863   1.385   1.254   3.725  0.1556 -1.3854 -0.9936
 5124TIP3    H236864   1.238   1.270   3.689 -0.0409 -0.9683 -0.0154
 5125TIP3   OH236865   1.176   1.772  11.547  0.3387 -0.4320  0.2195
 5125TIP3    H136866   1.218   1.780  11.633 -0.7895  0.7237  0.7037
 5125TIP3    H236867   1.161   1.863  11.520  0.4369 -0.7885 -1.0884
 5126TIP3   OH236868   0.871   3.605  16.884 -0.2341 -0.4977 -0.5423
 5126TIP3    H136869   0.806   3.616  16.954 -0.8589 -0.2628 -1.1513
 5126TIP3    H236870   0.950   3.576  16.930 -0.3737  0.5007  0.3686
 5127TIP3   OH236871   2.642   2.403  14.328  0.0732 -0.2375 -0.5183
 5127TIP3    H136872   2.604   2.444  14.250 -2.5567  3.0631  2.1797
 5127TIP3    H236873   2.566   2.371  14.377  1.2249  0.9484  2.2377
 5128TIP3   OH236874   3.785   1.334   2.699 -0.1386 -0.0978  0.0787
 5128TIP3    H136875   3.715   1.320   2.635  0.0468  1.0601 -0.4038
 5128TIP3    H236876   3.855   1.374   2.648  0.2372  0.3091  0.9032
 5129TIP3   OH236877   3.198   6.050  16.740 -0.1033  0.4618 -1.0281
 5129TIP3    H136878   3.187   6.134  16.785  1.4216  0.0804  0.0987
 5129TIP3    H236879   3.173   5.984  16.804 -0.0822 -0.0158 -1.4981
 5130TIP3   OH236880   0.116   1.493   5.730 -0.5195 -0.1979  0.0116
 5130TIP3    H136881   0.184   1.438   5.768  0.0466 -0.1170 -0.8631
 5130TIP3    H236882   0.034   1.461   5.769  0.0044 -0.3221  1.0441
 5131TIP3   OH236883   0.329   5.527   1.211 -0.0234  0.0584 -0.1971
 5131TIP3    H136884   0.340   5.555   1.301  0.2813 -0.2695 -0.1322
 5131TIP3    H236885   0.390   5.455   1.200 -2.6523 -2.4294  0.4307
 5132TIP3   OH236886   1.679   0.175   2.709 -0.6396 -0.0932 -0.0123
 5132TIP3    H136887   1.593   0.193   2.671  0.1259  2.6848 -0.6333
 5132TIP3    H236888   1.674   0.207   2.799 -0.1363  0.5247 -0.1956
 5133TIP3   OH236889   1.127   5.392   0.311  0.1399 -0.7752  0.0031
 5133TIP3    H136890   1.146   5.302   0.284 -1.9647 -1.5268  0.8141
 5133TIP3    H236891   1.075   5.382   0.390  1.6976  1.2604  1.3770
 5134TIP3   OH236892   4.740   5.843  13.994 -0.4289 -0.2509 -0.5959
 5134TIP3    H136893   4.730   5.811  14.084 -1.5102 -1.1038 -0.9956
 5134TIP3    H236894   4.754   5.764  13.942  2.5795  0.3821 -0.9404
 5135TIP3   OH236895   0.860   0.317  17.295  0.2917  0.0052 -0.3191
 5135TIP3    H136896   0.897   0.348  17.213 -2.2131  2.5992 -0.6278
 5135TIP3    H236897   0.791   0.256  17.268 -0.5248  0.8503 -0.1813
 5136TIP3   OH236898   0.713   0.881  14.543 -0.1976  0.0369 -0.4326
 5136TIP3    H136899   0.629   0.850  14.510 -0.8516  0.6214  0.5968
 5136TIP3    H236900   0.777   0.849  14.481 -1.0720 -1.3458 -0.6717
 5137TIP3   OH236901   6.157   4.657  14.112  0.6173  0.0422 -0.0193
 5137TIP3    H136902   6.136   4.630  14.023 -1.1319 -0.3804  0.4769
 5137TIP3    H236903   6.161   4.752  14.108  2.0070 -0.0261 -0.8166
 5138TIP3   OH236904   4.158   5.782   4.885  0.5350 -0.8836  0.2750
 5138TIP3    H136905   4.108   5.704   4.910  0.1379 -0.6179  0.3003
 5138TIP3    H236906   4.106   5.856   4.915  0.7192 -0.5941 -0.1047
 5139TIP3   OH236907   2.813   4.069   5.520  0.1818 -0.1973  0.3115
 5139TIP3    H136908   2.754   4.099   5.451 -0.2203  0.4009  0.9051
 5139TIP3    H236909   2.769   4.093   5.602  0.6493 -0.8926  0.7798
 5140TIP3   OH236910   3.566   6.427  12.586  0.0180  0.5975  0.4250
 5140TIP3    H136911   3.609   6.348  12.617  0.8360  0.9840  0.3120
 5140TIP3    H236912   3.593   6.435  12.494 -2.0518 -0.3194 -0.3279
 5141TIP3   OH236913   6.351   2.022  16.356  0.4366 -0.3121  0.2915
 5141TIP3    H136914   6.369   1.962  16.284 -0.6134  0.4034 -0.5951
 5141TIP3    H236915   6.381   2.107  16.325  0.1851 -0.0302  0.7980
 5142TIP3   OH236916   3.807   4.727   3.217  0.0146 -0.1699  0.1585
 5142TIP3    H136917   3.770   4.642   3.193 -0.7495  0.3113 -0.3956
 5142TIP3    H236918   3.858   4.754   3.141  0.9848 -0.5236  0.6677
 5143TIP3   OH236919   1.190   1.796  15.815 -0.0406  0.1113  0.3387
 5143TIP3    H136920   1.272   1.803  15.767  0.2322  4.1422  1.0194
 5143TIP3    H236921   1.210   1.829  15.903 -2.4880  2.5150  0.1724
 5144TIP3   OH236922   6.362   2.356   4.671 -0.3798 -0.2709  0.3265
 5144TIP3    H136923   6.411   2.283   4.708 -0.3333 -0.8770 -0.8592
 5144TIP3    H236924   6.334   2.325   4.585 -1.0922  0.8082  0.1382
 5145TIP3   OH236925   5.104   0.906  12.023  0.7351 -0.6070  0.6166
 5145TIP3    H136926   5.189   0.950  12.019  0.5827 -0.3826 -0.4114
 5145TIP3    H236927   5.059   0.948  12.096  1.6338 -0.9756  1.4083
 5146TIP3   OH236928   4.440   1.998  14.332  0.3416 -0.3569 -0.5306
 5146TIP3    H136929   4.513   2.021  14.275  0.6993  0.8508  0.3598
 5146TIP3    H236930   4.365   1.986  14.273  1.2383 -1.6918 -1.4662
 5147TIP3   OH236931   4.417   4.349   3.011  0.5308 -0.3330  0.1227
 5147TIP3    H136932   4.377   4.283   3.067 -0.1489  0.2362  0.3175
 5147TIP3    H236933   4.509   4.322   3.005  0.0903 -1.7811 -0.5166
 5148TIP3   OH236934   2.481   1.513  17.347  0.3793 -0.1369 -0.4795
 5148TIP3    H136935   2.426   1.554  17.414 -0.0434 -0.1749 -0.8010
 5148TIP3    H236936   2.440   1.428  17.332 -0.2274  0.3264 -1.6209
 5149TIP3   OH236937   4.983   2.297  16.784  0.6725 -0.4252  0.2040
 5149TIP3    H136938   5.001   2.373  16.729 -1.1584 -0.2665 -0.2584
 5149TIP3    H236939   4.977   2.333  16.873 -1.9110  0.3606 -0.2074
 5150TIP3   OH236940   0.481   0.005  16.105 -0.0903 -0.4711  0.6523
 5150TIP3    H136941   0.507  -0.078  16.145 -0.9465 -1.5553 -0.8956
 5150TIP3    H236942   0.554   0.028  16.048 -0.0187 -0.3691  0.7858
 5151TIP3   OH236943   1.057   2.712  16.734 -0.6070  0.1105 -0.0648
 5151TIP3    H136944   1.103   2.709  16.651 -1.1910 -0.6129 -0.3680
 5151TIP3    H236945   0.969   2.680  16.715 -1.8181  3.0180  0.1333
 5152TIP3   OH236946   1.806   4.900   4.227  0.4026  0.0267 -0.4885
 5152TIP3    H136947   1.809   4.868   4.317  0.5544  0.6882 -0.2556
 5152TIP3    H236948   1.714   4.891   4.201  0.4117 -0.4353 -0.3733
 5153TIP3   OH236949   5.306   5.240   5.107  0.0259 -0.6449  0.3362
 5153TIP3    H136950   5.356   5.223   5.188  1.9272  0.3346 -0.5677
 5153TIP3    H236951   5.350   5.187   5.041 -0.4246 -0.0942 -0.4114
 5154TIP3   OH236952   0.575   3.150  11.826 -0.4035  0.0987  0.1216
 5154TIP3    H136953   0.552   3.058  11.836  2.1039 -0.5847  0.2604
 5154TIP3    H236954   0.537   3.193  11.903  1.1629 -1.4488  1.8539
 5155TIP3   OH236955   4.986   0.117   3.208  0.1633  0.6330  0.1912
 5155TIP3    H136956   4.940   0.178   3.150 -0.4125  0.5887  0.5960
 5155TIP3    H236957   4.927   0.043   3.218  0.5129  0.3725  0.3624
 5156TIP3   OH236958   1.555   6.588  12.253 -0.0349 -0.1377 -0.5013
 5156TIP3    H136959   1.567   6.494  12.236 -1.5417 -0.4419 -0.0913
 5156TIP3    H236960   1.561   6.629  12.166  0.6912 -0.6069 -0.6783
 5157TIP3   OH236961   4.925   5.897  17.002  0.0209 -0.3465 -0.0744
 5157TIP3    H136962   4.905   5.885  17.095  0.5670 -0.6013  0.0182
 5157TIP3    H236963   4.886   5.981  16.979 -0.6270 -0.5564  0.2355
 5158TIP3   OH236964   0.368   3.116   4.198  0.0277  0.1011  0.0386
 5158TIP3    H136965   0.272   3.111   4.200  0.0853 -1.2021  1.3210
 5158TIP3    H236966   0.387   3.188   4.138 -1.7636  0.7714  0.2189
 5159TIP3   OH236967   4.638   1.385  11.831  0.3480  0.5955 -0.0806
 5159TIP3    H136968   4.563   1.402  11.774 -0.2026  1.1928  0.7995
 5159TIP3    H236969   4.606   1.404  11.919  1.0176 -0.8466  0.5007
 5160TIP3   OH236970   1.619   3.065  12.463 -0.7075  0.1606 -0.6168
 5160TIP3    H136971   1.604   3.034  12.374  1.3858 -1.7451 -0.4015
 5160TIP3    H236972   1.711   3.092  12.463 -0.4396 -0.6280  1.1497
 5161TIP3   OH236973   0.440   4.283  13.630 -0.1242 -0.2479  0.4664
 5161TIP3    H136974   0.500   4.300  13.557 -0.9440  0.1002 -0.1418
 5161TIP3    H236975   0.382   4.215  13.598 -1.1844  0.6680  0.3656
 5162TIP3   OH236976   0.893   0.026  16.401  0.3191 -0.0103 -0.1221
 5162TIP3    H136977   0.915   0.076  16.479 -0.8583 -0.9687  0.8676
 5162TIP3    H236978   0.799   0.011  16.408  0.2052 -0.1919 -1.6949
 5163TIP3   OH236979   5.878   5.704   5.498 -0.1692  0.2541 -0.0973
 5163TIP3    H136980   5.939   5.633   5.519  1.9934  1.7226 -1.0984
 5163TIP3    H236981   5.837   5.676   5.416 -0.1380 -0.3019  0.0718
 5164TIP3   OH236982   2.734   2.696  12.402  0.2747 -0.4048  0.5663
 5164TIP3    H136983   2.691   2.650  12.474 -0.2281 -0.3314  0.3163
 5164TIP3    H236984   2.666   2.706  12.335  0.8190 -0.7672 -0.0605
 5165TIP3   OH236985   6.364   0.180  11.915 -0.2079 -0.0090  0.3976
 5165TIP3    H136986   6.311   0.130  11.978  0.3071 -0.0804  0.7799
 5165TIP3    H236987   6.374   0.266  11.956 -1.8149  0.7207 -0.6396
 5166TIP3   OH236988   3.552   5.549   3.495  0.4271  0.6244 -0.9745
 5166TIP3    H136989   3.601   5.609   3.552  2.0654 -0.7778 -0.8190
 5166TIP3    H236990   3.543   5.469   3.547 -1.1900  0.5035 -1.3962
 5167TIP3   OH236991   5.634   1.379   5.877 -0.2368 -0.0239  0.7480
 5167TIP3    H136992   5.727   1.361   5.870  0.0173  0.9820  1.3542
 5167TIP3    H236993   5.619   1.453   5.818 -0.3112  0.9062  1.8985
 5168TIP3   OH236994   5.589   0.781  16.073  0.4001 -0.4280  0.2196
 5168TIP3    H136995   5.543   0.824  16.145 -0.2990 -1.7450  0.5743
 5168TIP3    H236996   5.620   0.854  16.018  1.7297  0.6782  2.2731
 5169TIP3   OH236997   3.430   3.809  13.286  0.1858 -0.7780 -0.9091
 5169TIP3    H136998   3.415   3.861  13.365  0.3446 -0.5021 -1.0563
 5169TIP3    H236999   3.464   3.872  13.222  2.2587 -1.4106 -0.4953
 5170TIP3   OH237000   3.717   4.123   6.545 -0.1037  0.0528 -0.1348
 5170TIP3    H137001   3.775   4.053   6.576  0.0244 -0.4989 -1.5662
 5170TIP3    H237002   3.739   4.198   6.600 -0.8700 -1.2250  2.0608
 5171TIP3   OH237003   1.905   5.230   4.906  0.4760  0.4048  0.5900
 5171TIP3    H137004   1.885   5.301   4.844 -2.6288 -0.2800  0.6249
 5171TIP3    H237005   1.991   5.252   4.941  0.4258  3.1589 -0.7431
 5172TIP3   OH237006   1.983   1.436   4.145  0.1954 -0.3882 -0.3029
 5172TIP3    H137007   1.892   1.464   4.155  0.3345 -0.3274  0.8985
 5172TIP3    H237008   1.985   1.390   4.061 -0.6831  0.6253 -0.9047
 5173TIP3   OH237009   1.851   2.163  12.019 -0.1886  0.2786  0.1001
 5173TIP3    H137010   1.935   2.197  12.051 -0.4706  0.5933  0.5124
 5173TIP3    H237011   1.785   2.216  12.063 -0.7327 -2.0549  2.3400
 5174TIP3   OH237012   0.886   4.892   4.740 -0.6479  0.2515  0.3141
 5174TIP3    H137013   0.899   4.983   4.767 -1.6576  0.3770  0.4002
 5174TIP3    H237014   0.948   4.843   4.794 -0.4217  0.8400  0.6017
 5175TIP3   OH237015   3.467   2.163  14.015  0.3329  0.4231  0.1266
 5175TIP3    H137016   3.557   2.182  14.041  0.2490 -0.5524  1.1732
 5175TIP3    H237017   3.469   2.071  13.989 -0.3150  0.4632 -0.0742
 5176TIP3   OH237018   5.765   4.812  11.342 -0.1042  0.1877 -0.2526
 5176TIP3    H137019   5.855   4.844  11.333 -0.1914  0.7202  0.7292
 5176TIP3    H237020   5.715   4.888  11.369 -0.9001 -0.0646 -0.9873
 5177TIP3   OH237021   5.159   1.064   2.113  0.1358 -0.8334 -0.0648
 5177TIP3    H137022   5.133   1.034   2.200  1.5818  1.3657  1.2128
 5177TIP3    H237023   5.175   1.157   2.124  2.1950 -0.8575 -2.2517
 5178TIP3   OH237024   2.700   6.215  13.995  0.8216 -0.6835 -0.2797
 5178TIP3    H137025   2.690   6.278  13.923 -3.1095  0.3008  0.8571
 5178TIP3    H237026   2.693   6.130  13.952 -0.2375 -0.1442 -1.2505
 5179TIP3   OH237027   2.700   0.915  15.234  0.3498  0.6121  0.4350
 5179TIP3    H137028   2.725   0.944  15.321 -1.2022 -1.5168  1.6765
 5179TIP3    H237029   2.779   0.870  15.201  0.3932 -0.1414  1.5066
 5180TIP3   OH237030   1.637   1.068   2.194 -0.6026 -0.9318 -0.4142
 5180TIP3    H137031   1.572   1.075   2.125 -0.2034 -2.6204 -1.0167
 5180TIP3    H237032   1.677   0.982   2.181  0.5649 -0.6497  0.9765
 5181TIP3   OH237033   3.858   0.575  11.333 -0.0677  0.1366 -0.0104
 5181TIP3    H137034   3.777   0.597  11.379  0.0070  0.2890  0.0495
 5181TIP3    H237035   3.918   0.646  11.355  0.3652 -0.4264  0.6449
 5182TIP3   OH237036   3.434   3.077   1.818  0.2430  0.0787 -0.3391
 5182TIP3    H137037   3.519   3.048   1.782  0.2358 -0.2774 -0.0725
 5182TIP3    H237038   3.386   2.996   1.835 -1.1074  0.2953 -2.7225
 5183TIP3   OH237039   2.580   4.234  13.562 -0.4869  0.5071  0.1715
 5183TIP3    H137040   2.649   4.219  13.497 -0.4016  1.8994 -0.0906
 5183TIP3    H237041   2.572   4.151  13.609  0.7939  0.0741 -0.3473
 5184TIP3   OH237042   3.950   3.970   4.473 -0.1481 -0.5886  0.1454
 5184TIP3    H137043   3.962   3.938   4.562  0.6784 -0.9032 -0.0720
 5184TIP3    H237044   4.032   4.016   4.453 -0.8702  0.7106  0.0464
 5185TIP3   OH237045   0.135   4.177   2.615 -0.2988 -0.3346 -0.1540
 5185TIP3    H137046   0.096   4.244   2.671  1.0386  0.8909 -0.6199
 5185TIP3    H237047   0.194   4.129   2.674 -0.1986 -0.1731 -0.1196
 5186TIP3   OH237048   2.539   1.562  14.428 -0.2890 -0.1238 -0.0910
 5186TIP3    H137049   2.606   1.495  14.438  2.2245  2.1986 -0.3931
 5186TIP3    H237050   2.557   1.603  14.343  0.9492  3.5269  1.6978
 5187TIP3   OH237051   2.043   4.460  14.054 -0.3213 -0.1529  0.4341
 5187TIP3    H137052   2.030   4.548  14.020 -0.3738 -0.7333 -1.1207
 5187TIP3    H237053   1.970   4.447  14.114 -0.8701  0.5128 -0.0720
 5188TIP3   OH237054   2.162   5.307   6.581 -0.2505 -0.0027  0.8706
 5188TIP3    H137055   2.182   5.372   6.649 -1.8908  0.8791  0.5609
 5188TIP3    H237056   2.246   5.292   6.538  0.5106  0.6102  2.0603
 5189TIP3   OH237057   5.121   4.955   1.873  0.3762 -0.2747 -0.1448
 5189TIP3    H137058   5.134   4.948   1.968  0.7054 -1.6777 -0.2709
 5189TIP3    H237059   5.141   5.046   1.853 -1.0464  0.4147  1.3283
 5190TIP3   OH237060   1.551   4.311  14.831  0.0596  0.0370  0.6071
 5190TIP3    H137061   1.531   4.364  14.907 -3.2360 -0.8862  0.5193
 5190TIP3    H237062   1.517   4.361  14.757 -1.6885 -1.3669  0.3765
 5191TIP3   OH237063   0.502   5.183   4.679  0.3251 -0.2364 -0.1017
 5191TIP3    H137064   0.476   5.108   4.732  1.5157 -0.4337  0.2323
 5191TIP3    H237065   0.577   5.152   4.629 -0.9424 -0.1384 -2.1510
 5192TIP3   OH237066   1.661   4.927   3.582 -0.2367 -0.4264  0.2265
 5192TIP3    H137067   1.736   4.953   3.635 -0.5349 -0.3232  0.6064
 5192TIP3    H237068   1.670   4.832   3.571 -0.0181 -0.4042  0.2232
 5193TIP3   OH237069   4.047   2.190   2.793 -0.0641 -0.0271  0.4447
 5193TIP3    H137070   3.982   2.142   2.743 -0.1390  0.9805 -0.4449
 5193TIP3    H237071   4.053   2.142   2.876 -3.3096  0.8816  1.3531
 5194TIP3   OH237072   1.183   2.582  11.901  0.7014 -0.9237  0.0995
 5194TIP3    H137073   1.096   2.616  11.883  1.7641  1.2840 -1.3161
 5194TIP3    H237074   1.169   2.489  11.920 -1.9735 -0.5266  0.4586
 5195TIP3   OH237075   6.186   6.194  16.589 -0.1385  0.0943  0.3614
 5195TIP3    H137076   6.203   6.144  16.668  1.2293  1.9943  1.3503
 5195TIP3    H237077   6.131   6.267  16.618 -2.0105 -0.6830 -1.0187
 5196TIP3   OH237078   0.211   5.909   4.677 -0.4594  0.2319 -0.6106
 5196TIP3    H137079   0.221   5.940   4.587  0.5794 -0.7221 -0.8486
 5196TIP3    H237080   0.280   5.955   4.725  1.7219 -2.2386 -1.1456
 5197TIP3   OH237081   1.358   1.136  14.207 -0.3422  0.2361  0.7524
 5197TIP3    H137082   1.439   1.087  14.218  0.0791  0.1621 -1.9977
 5197TIP3    H237083   1.386   1.222  14.177 -1.2542  0.5673  0.8078
 5198TIP3   OH237084   3.904   0.350  17.234  0.2928  0.4528  0.0304
 5198TIP3    H137085   3.962   0.321  17.163 -0.3469 -0.1870 -0.2368
 5198TIP3    H237086   3.887   0.443  17.215  1.1444  0.6211  0.0567
 5199TIP3   OH237087   5.177   2.730   3.763  0.1776  0.4495 -0.2899
 5199TIP3    H137088   5.086   2.745   3.739 -0.0155  1.1837  0.7900
 5199TIP3    H237089   5.181   2.637   3.786 -0.8333  0.8120  1.6255
 5200TIP3   OH237090   4.971   6.565   3.610  0.1251 -0.6949  0.0476
 5200TIP3    H137091   4.939   6.515   3.535  1.7804  0.9329 -1.8869
 5200TIP3    H237092   4.915   6.643   3.613  0.1090 -0.7186  0.4749
 5201TIP3   OH237093   1.666   5.952  14.078 -0.2495 -0.3498  0.1946
 5201TIP3    H137094   1.632   6.041  14.087 -0.0733 -0.2370 -0.2609
 5201TIP3    H237095   1.750   5.963  14.034 -0.3879 -0.7697 -0.1817
 5202TIP3   OH237096   0.387   0.405   5.068 -0.1314 -0.0798  0.3022
 5202TIP3    H137097   0.391   0.417   4.974 -0.4931 -0.3232  0.2570
 5202TIP3    H237098   0.320   0.338   5.082  0.0022 -0.1324  0.7225
 5203TIP3   OH237099   2.694   0.342   6.535  0.3829 -0.2384  0.0934
 5203TIP3    H137100   2.669   0.315   6.447  0.5295  1.0764 -0.3719
 5203TIP3    H237101   2.611   0.345   6.583  0.1960 -0.1948 -0.2278
 5204TIP3   OH237102   4.070   0.148  15.036 -0.1489 -0.3488  0.8063
 5204TIP3    H137103   4.089   0.117  15.125 -0.5210  0.6707  1.2638
 5204TIP3    H237104   3.974   0.157  15.035 -0.1513 -0.4402  0.2659
 5205TIP3   OH237105   2.300   5.840   4.125  0.2572 -0.2637 -0.6776
 5205TIP3    H137106   2.311   5.902   4.197  0.9281  0.2685 -1.2264
 5205TIP3    H237107   2.345   5.881   4.051 -0.4828 -0.7575 -1.4266
 5206TIP3   OH237108   3.091   5.286   1.690  0.0975 -0.0603  1.3242
 5206TIP3    H137109   3.103   5.325   1.777  2.1636  1.3083  0.5211
 5206TIP3    H237110   3.174   5.304   1.645 -0.5052 -1.7051 -0.5727
 5207TIP3   OH237111   5.964   1.332   3.229  0.5970  0.2338  0.0364
 5207TIP3    H137112   5.896   1.270   3.204  0.4087  0.6294 -0.4590
 5207TIP3    H237113   6.039   1.278   3.252 -0.1704 -0.2389  1.4972
 5208TIP3   OH237114   3.426   2.467  16.115 -0.2887 -0.0821  0.2595
 5208TIP3    H137115   3.509   2.506  16.089  0.0085  0.1948  1.5328
 5208TIP3    H237116   3.411   2.396  16.053  0.0125  0.9746 -1.0614
 5209TIP3   OH237117   5.362   4.895   5.340  0.4988  0.3233 -0.1842
 5209TIP3    H137118   5.304   4.935   5.275 -1.4361 -0.4903  0.9507
 5209TIP3    H237119   5.424   4.964   5.363 -0.0288  1.2427 -1.4386
 5210TIP3   OH237120   3.942   5.758  14.925  0.2310 -0.2115 -0.2330
 5210TIP3    H137121   3.961   5.805  15.006 -0.0543  0.5253 -0.5836
 5210TIP3    H237122   4.020   5.770  14.870 -0.0112  0.2269 -0.4884
 5211TIP3   OH237123   4.633   2.369   0.813  0.2133  0.0167 -0.3966
 5211TIP3    H137124   4.665   2.459   0.823  0.4921 -0.0971 -0.2552
 5211TIP3    H237125   4.539   2.375   0.826  0.3541  0.1332  0.6330
 5212TIP3   OH237126   0.952   4.497   0.223  0.2604  0.5315  0.0473
 5212TIP3    H137127   1.018   4.508   0.291  0.1122 -1.0470  0.4925
 5212TIP3    H237128   0.997   4.518   0.141  1.4792 -1.0208  0.2914
 5213TIP3   OH237129   1.756   4.897  12.478  0.0767  0.1512  0.4545
 5213TIP3    H137130   1.840   4.914  12.435 -1.1638  3.2385 -1.0753
 5213TIP3    H237131   1.695   4.880  12.406 -0.5790 -2.7049  1.5570
 5214TIP3   OH237132   4.710   0.799  17.067 -0.3914  0.0831 -0.5601
 5214TIP3    H137133   4.646   0.729  17.073 -0.6359  0.3165 -0.4103
 5214TIP3    H237134   4.675   0.869  17.123  0.2117  0.0372 -0.0985
 5215TIP3   OH237135   5.368   5.460  12.967 -0.2533 -0.0526 -0.4400
 5215TIP3    H137136   5.409   5.387  13.014 -0.4711  0.6766  0.9209
 5215TIP3    H237137   5.274   5.448  12.982 -0.3443  0.0217 -0.9441
 5216TIP3   OH237138   1.606   0.212  15.877  0.1299  0.2939  0.3247
 5216TIP3    H137139   1.675   0.152  15.906  0.4024  1.2690  1.8578
 5216TIP3    H237140   1.534   0.198  15.939 -0.4102  0.4416 -0.2616
 5217TIP3   OH237141   5.490   2.403  16.793 -0.1718  0.4436  0.1372
 5217TIP3    H137142   5.434   2.442  16.726  3.1722  1.9426 -2.0369
 5217TIP3    H237143   5.450   2.431  16.876 -1.9197  2.4502 -1.2596
 5218TIP3   OH237144   3.799   0.890  14.725 -0.2052  0.1458  0.2151
 5218TIP3    H137145   3.707   0.908  14.743 -0.9671 -1.4366 -1.8073
 5218TIP3    H237146   3.822   0.819  14.786 -0.4072  0.3180  0.4941
 5219TIP3   OH237147   1.655   0.243   6.014  0.5030 -0.2166  0.4915
 5219TIP3    H137148   1.709   0.310   5.972  1.2608 -0.9943  0.1961
 5219TIP3    H237149   1.606   0.203   5.942 -0.9866  0.9030  0.8277
 5220TIP3   OH237150   2.680   5.893  12.524 -0.2158 -0.4214  0.6787
 5220TIP3    H137151   2.769   5.928  12.522 -0.9290  1.5454  0.4703
 5220TIP3    H237152   2.646   5.919  12.610 -1.4575  1.3667 -0.2757
 5221TIP3   OH237153   5.195   5.697   5.175 -0.3506  0.3045  0.0077
 5221TIP3    H137154   5.281   5.687   5.217 -0.5788  0.1049  0.4342
 5221TIP3    H237155   5.172   5.610   5.145 -0.7904  0.1871  0.6645
 5222TIP3   OH237156   6.342   5.263   5.557 -0.3742 -0.2285  0.2758
 5222TIP3    H137157   6.420   5.260   5.502  0.9392  0.1332  2.0190
 5222TIP3    H237158   6.269   5.261   5.496  0.9782 -1.5355 -1.3824
 5223TIP3   OH237159   0.718   0.312   5.550 -0.0115  0.2598  0.0432
 5223TIP3    H137160   0.810   0.334   5.538 -0.0061  0.1421 -0.1468
 5223TIP3    H237161   0.692   0.271   5.467 -0.3111  0.5516 -0.0116
 5224TIP3   OH237162   6.015   2.471  14.279 -0.0222 -0.1591  1.0688
 5224TIP3    H137163   5.965   2.540  14.324 -1.2345 -0.3201  0.0168
 5224TIP3    H237164   6.023   2.502  14.189 -0.8014 -1.4812  0.5154
 5225TIP3   OH237165   4.935   0.270   5.394 -0.4049  0.1248 -0.4083
 5225TIP3    H137166   4.971   0.344   5.441 -0.5612 -0.1574  0.1577
 5225TIP3    H237167   4.990   0.263   5.315 -0.0483  0.5004 -0.1967
 5226TIP3   OH237168   3.148   2.640  15.771 -0.7090 -0.7340 -0.3426
 5226TIP3    H137169   3.160   2.550  15.801  1.3427 -0.7824 -1.0991
 5226TIP3    H237170   3.232   2.662  15.729 -0.8136  1.8243  0.5988
 5227TIP3   OH237171   0.643   6.452  16.907  0.5835 -0.1557  0.2863
 5227TIP3    H137172   0.736   6.440  16.886  0.6622  0.5756  0.2089
 5227TIP3    H237173   0.640   6.447  17.003  0.6253 -0.6860  0.2639
 5228TIP3   OH237174   6.108   6.099   1.294 -0.3149 -0.1612 -0.7843
 5228TIP3    H137175   6.079   6.148   1.371 -2.4229 -1.8765 -0.3733
 5228TIP3    H237176   6.132   6.166   1.230  1.4697  1.3259  1.2816
 5229TIP3   OH237177   4.570   2.460  16.016  0.1500  0.1034 -0.1263
 5229TIP3    H137178   4.543   2.404  15.944 -1.1132 -0.5539  0.8218
 5229TIP3    H237179   4.602   2.540  15.974 -0.0160 -0.4889 -1.4200
 5230TIP3   OH237180   0.326   4.209  14.345  0.0074  0.1070 -0.2259
 5230TIP3    H137181   0.413   4.232  14.377 -0.0938 -0.0625  0.1713
 5230TIP3    H237182   0.324   4.113  14.346  0.2868  0.0584 -1.5017
 5231TIP3   OH237183   4.235   0.702  11.185 -0.2726 -0.0125  0.0703
 5231TIP3    H137184   4.313   0.669  11.231 -0.7853 -1.5996 -0.1305
 5231TIP3    H237185   4.270   0.742  11.105  0.5350  1.8296  1.2673
 5232TIP3   OH237186   1.209   0.677  10.690  0.3662  0.0173 -0.6154
 5232TIP3    H137187   1.297   0.664  10.725  0.4165  2.2215  0.1824
 5232TIP3    H237188   1.161   0.599  10.718  0.9781  0.6543  2.5731
 5233TIP3   OH237189   5.734   5.685   4.188  0.0546 -0.1355 -0.0951
 5233TIP3    H137190   5.767   5.601   4.221 -1.3857 -0.5731  0.2788
 5233TIP3    H237191   5.710   5.733   4.267  0.4300  0.4534 -0.3363
 5234TIP3   OH237192   5.538   5.035  16.830  0.0136 -0.2274 -0.5190
 5234TIP3    H137193   5.582   5.058  16.749 -0.4162 -1.6764 -1.2071
 5234TIP3    H237194   5.470   5.102  16.840  1.5303  1.3153 -0.0842
 5235TIP3   OH237195   3.687   6.714   3.586  0.2257  0.3190 -0.2775
 5235TIP3    H137196   3.653   6.679   3.669  1.4819  0.5125  0.3358
 5235TIP3    H237197   3.720   6.638   3.539  1.6639  0.4694  0.4426
 5236TIP3   OH237198   4.408   2.068   3.718  0.7829  0.1865 -0.1080
 5236TIP3    H137199   4.443   2.025   3.639  2.1324  2.0178 -0.5770
 5236TIP3    H237200   4.486   2.089   3.770  0.0267  0.5077  0.9226
 5237TIP3   OH237201   0.854   5.785   3.407  0.1818 -0.3487  0.7256
 5237TIP3    H137202   0.913   5.824   3.472  0.1912  0.9750 -0.0420
 5237TIP3    H237203   0.878   5.828   3.325 -0.2247 -1.5719 -0.0520
 5238TIP3   OH237204   5.659   4.410  15.105 -0.2306 -0.2015 -0.1659
 5238TIP3    H137205   5.696   4.347  15.043  3.2059  1.5722 -0.1340
 5238TIP3    H237206   5.705   4.392  15.187 -1.4560  0.4239  0.6930
 5239TIP3   OH237207   4.274   4.635   0.402  0.7900 -0.1864  0.0047
 5239TIP3    H137208   4.205   4.623   0.467 -0.1296  0.8521 -0.7395
 5239TIP3    H237209   4.235   4.607   0.320  1.2118  0.5192 -0.4486
 5240TIP3   OH237210   5.514   2.988   4.531  0.0537 -0.0475 -0.1220
 5240TIP3    H137211   5.564   2.913   4.563  0.3167  0.2358  0.1339
 5240TIP3    H237212   5.522   2.983   4.436 -1.7208 -1.5817 -0.2453
 5241TIP3   OH237213   5.861   1.023  12.770  0.3153 -0.9030  0.3280
 5241TIP3    H137214   5.798   1.013  12.698  0.4049  1.9158 -0.2756
 5241TIP3    H237215   5.904   1.107  12.752  2.1022 -1.2896  2.3852
 5242TIP3   OH237216   3.137   1.038   5.077 -0.0529 -0.4467 -0.5445
 5242TIP3    H137217   3.232   1.039   5.071 -0.0738 -1.5072 -1.4707
 5242TIP3    H237218   3.107   1.067   4.991 -0.6205  1.9155  0.3727
 5243TIP3   OH237219   0.390   3.475   3.263 -0.2365  0.3489  0.5045
 5243TIP3    H137220   0.399   3.403   3.200 -0.4923  0.1828  0.6545
 5243TIP3    H237221   0.331   3.440   3.330  1.5023 -0.1679  1.8267
 5244TIP3   OH237222   2.052   5.909  13.092  0.1047 -0.1293 -0.1249
 5244TIP3    H137223   1.983   5.974  13.107 -0.2641 -0.8820  1.8123
 5244TIP3    H237224   2.024   5.833  13.142  1.6603 -0.9696 -0.4669
 5245TIP3   OH237225   2.825   0.344   0.078  0.4614 -0.3946  0.4219
 5245TIP3    H137226   2.797   0.349   0.170  0.1447 -0.3290  0.3229
 5245TIP3    H237227   2.874   0.262   0.073  1.3555  0.0864  0.8826
 5246TIP3   OH237228   0.178   4.390  12.414  0.4698  0.0665  0.6324
 5246TIP3    H137229   0.201   4.394  12.507 -0.5930 -0.6081  0.9402
 5246TIP3    H237230   0.198   4.300  12.388  2.3967  0.7106 -0.2589
 5247TIP3   OH237231   4.934   5.321  14.490  0.6968  0.1401 -0.0601
 5247TIP3    H137232   4.990   5.340  14.566  1.6498 -1.6975 -0.2441
 5247TIP3    H237233   4.902   5.232  14.506  0.4530 -0.0614 -1.5426
 5248TIP3   OH237234   5.393   2.813  13.861 -0.5954  0.0006 -0.0569
 5248TIP3    H137235   5.388   2.903  13.828  0.2119 -0.5715 -1.8565
 5248TIP3    H237236   5.335   2.812  13.937  0.4913  2.4111  0.9163
 5249TIP3   OH237237   5.808   4.814  13.188  0.0406 -0.0889 -0.7742
 5249TIP3    H137238   5.721   4.854  13.191 -0.1398 -0.5100  0.1022
 5249TIP3    H237239   5.795   4.731  13.141  0.2746  0.5268 -1.9575
 5250TIP3   OH237240   0.663   0.650   0.735  0.4175  0.3162  0.5588
 5250TIP3    H137241   0.681   0.572   0.787  2.1102  0.6198  0.4946
 5250TIP3    H237242   0.587   0.690   0.777  0.5578 -0.4717  1.6116
 5251TIP3   OH237243   6.085   3.229   4.085 -0.0623  0.4872 -0.2409
 5251TIP3    H137244   6.086   3.304   4.025 -1.9177 -0.7923 -2.0028
 5251TIP3    H237245   6.141   3.164   4.042 -0.3994 -0.0034  0.0630
 5252TIP3   OH237246   1.616   2.520   4.555 -0.0674  0.4233 -0.6240
 5252TIP3    H137247   1.574   2.536   4.471 -0.8700 -0.4206 -0.4079
 5252TIP3    H237248   1.542   2.508   4.616  0.4998  0.0589  0.0008
 5253TIP3   OH237249   4.617   3.359   4.242  0.0571  0.0871 -0.1844
 5253TIP3    H137250   4.599   3.316   4.159 -1.2367  1.7341 -0.8183
 5253TIP3    H237251   4.605   3.453   4.223  0.6265  0.5646  1.6338
 5254TIP3   OH237252   6.487   5.726   0.732  0.0176 -0.3585 -0.1904
 5254TIP3    H137253   6.417   5.768   0.782 -0.7847 -1.5752 -0.2269
 5254TIP3    H237254   6.564   5.729   0.789 -0.8903 -1.7961  1.2119
 5255TIP3   OH237255   6.407   2.270  16.192 -0.0376  0.2411 -0.2457
 5255TIP3    H137256   6.490   2.307  16.221 -0.7174  1.1372  0.6168
 5255TIP3    H237257   6.341   2.313  16.246 -0.8925 -2.3722  0.9642
 5256TIP3   OH237258   4.586   5.899  14.857 -0.0544  0.9964 -0.1238
 5256TIP3    H137259   4.512   5.900  14.797  0.7103  0.2949 -1.1072
 5256TIP3    H237260   4.623   5.987  14.851 -1.0232  1.4781  0.6791
 5257TIP3   OH237261   4.025   6.772  10.851 -0.1766  0.3513 -0.3470
 5257TIP3    H137262   4.066   6.857  10.834  0.1634  0.1886 -0.3435
 5257TIP3    H237263   4.094   6.708  10.834 -0.6691  0.0226 -1.1737
 5258TIP3   OH237264   1.540   1.579  17.282 -0.0040  0.9325  0.0758
 5258TIP3    H137265   1.487   1.501  17.297  0.3378  0.6575 -0.1336
 5258TIP3    H237266   1.545   1.622  17.367 -1.3341  1.4582 -0.0828
 5259TIP3   OH237267   4.093   1.351   0.375 -0.4354 -0.3827  0.1323
 5259TIP3    H137268   4.068   1.259   0.371  1.8037 -1.0768  0.5503
 5259TIP3    H237269   4.103   1.368   0.469 -0.5496  0.2207  0.0379
 5260TIP3   OH237270   2.628   5.736  16.782 -0.6846  0.6477 -0.1965
 5260TIP3    H137271   2.646   5.644  16.804 -1.4019  0.0410 -1.9647
 5260TIP3    H237272   2.681   5.786  16.843 -0.7475 -0.9280  1.2316
 5261TIP3   OH237273   4.708   3.679  14.918  0.3960  0.0611 -0.2191
 5261TIP3    H137274   4.640   3.618  14.943  0.9508 -0.1697  0.7621
 5261TIP3    H237275   4.755   3.635  14.847  2.0258 -1.5675  1.7581
 5262TIP3   OH237276   6.498   1.112  12.628 -0.2571  0.0928 -0.2646
 5262TIP3    H137277   6.525   1.158  12.708  2.9176  1.2973 -1.8645
 5262TIP3    H237278   6.529   1.023  12.640  2.1350  0.7696 -0.8806
 5263TIP3   OH237279   3.842   1.279   5.058  0.0473  0.3450  0.1580
 5263TIP3    H137280   3.935   1.257   5.056  0.3074  1.1042  1.9057
 5263TIP3    H237281   3.836   1.363   5.014 -0.1103 -0.5234 -1.5477
 5264TIP3   OH237282   5.179   2.538   0.395  0.0301 -0.0986 -0.2370
 5264TIP3    H137283   5.101   2.555   0.446  0.9634 -0.4790  1.3834
 5264TIP3    H237284   5.154   2.557   0.305 -1.7677  0.2428  0.3093
 5265TIP3   OH237285   1.522   0.116   2.186  0.2076 -0.1682  0.3153
 5265TIP3    H137286   1.502   0.201   2.148 -1.3281 -0.6675 -0.0530
 5265TIP3    H237287   1.604   0.129   2.233  1.2392  0.9380 -1.6445
 5266TIP3   OH237288   1.721   5.432  17.139  0.0789 -0.0111  0.0906
 5266TIP3    H137289   1.806   5.399  17.168  0.0396 -2.0999 -1.8266
 5266TIP3    H237290   1.741   5.512  17.091  0.7282  0.4866  1.1597
 5267TIP3   OH237291   3.568   3.026  10.900  0.0630  0.4546  0.7346
 5267TIP3    H137292   3.607   2.944  10.929  1.3687  1.0399  0.6833
 5267TIP3    H237293   3.619   3.095  10.943 -0.0872  1.2667 -0.3277
 5268TIP3   OH237294   5.133   2.234  11.946 -0.1792 -0.3245  0.3581
 5268TIP3    H137295   5.069   2.303  11.928 -1.8616 -0.9849  3.1920
 5268TIP3    H237296   5.215   2.268  11.911 -1.3422  2.1637 -0.2064
 5269TIP3   OH237297   3.925   2.202  12.127  0.3148  0.4021 -0.0987
 5269TIP3    H137298   3.846   2.209  12.182 -0.9225  0.4574 -1.7826
 5269TIP3    H237299   3.917   2.275  12.065  1.4452  0.1197 -0.6031
 5270TIP3   OH237300   4.360   3.726  15.317  0.0282  0.4898  0.1404
 5270TIP3    H137301   4.409   3.644  15.323  0.1518  0.4127 -1.4797
 5270TIP3    H237302   4.330   3.730  15.226 -0.7241  1.8168  0.4170
 5271TIP3   OH237303   4.998   5.699  16.038 -0.8788 -0.3281 -0.3949
 5271TIP3    H137304   4.966   5.701  16.128  0.5554 -0.5321  0.1523
 5271TIP3    H237305   5.054   5.776  16.030 -2.3055  0.6483 -1.6682
 5272TIP3   OH237306   1.793   0.377   4.042 -0.2155 -0.5641 -0.5893
 5272TIP3    H137307   1.840   0.372   3.959 -2.3080  1.2131 -1.9549
 5272TIP3    H237308   1.702   0.358   4.020 -0.9534  0.7214  1.1493
 5273TIP3   OH237309   6.729   2.663  17.140 -0.0810 -0.0136  0.2430
 5273TIP3    H137310   6.771   2.749  17.135  1.1174 -0.6057 -0.1816
 5273TIP3    H237311   6.768   2.622  17.218 -0.1075 -0.4438  0.0346
 5274TIP3   OH237312   3.590   0.367   2.292  0.2947  0.5331  0.3018
 5274TIP3    H137313   3.676   0.338   2.323 -0.6537  0.5152  3.2667
 5274TIP3    H237314   3.554   0.292   2.244  1.5147  0.1876 -0.0954
 5275TIP3   OH237315   0.197   1.834  16.539 -0.0281 -0.7566  0.8268
 5275TIP3    H137316   0.203   1.794  16.626 -1.7193  1.0170  1.8572
 5275TIP3    H237317   0.267   1.900  16.538  0.4922 -1.3010  0.5079
 5276TIP3   OH237318   0.485   6.541   4.259 -0.0011 -0.3045  0.3673
 5276TIP3    H137319   0.463   6.607   4.325 -0.2471  0.2456 -0.2484
 5276TIP3    H237320   0.405   6.490   4.247  1.0573 -2.9321  3.2377
 5277TIP3   OH237321   6.776   3.054   2.196  0.1800  0.3462 -0.5351
 5277TIP3    H137322   6.819   3.072   2.280 -0.9366 -0.0160  0.1339
 5277TIP3    H237323   6.759   3.141   2.159  1.1421  0.4979 -0.6400
 5278TIP3   OH237324   1.784   5.844   4.856 -0.2711 -0.0746 -0.4169
 5278TIP3    H137325   1.737   5.825   4.775 -1.9953  3.2990 -0.3805
 5278TIP3    H237326   1.718   5.841   4.924  0.6265 -0.2537  0.4693
 5279TIP3   OH237327   5.279   3.682  14.497  0.0422  0.7260  0.7470
 5279TIP3    H137328   5.274   3.745  14.425  0.7434  0.3789  0.3875
 5279TIP3    H237329   5.361   3.703  14.542 -0.8291  1.5356  2.0267
 5280TIP3   OH237330   0.721   3.342  15.764 -0.2977 -0.8101 -0.0327
 5280TIP3    H137331   0.676   3.376  15.841 -0.6494  0.1061 -0.6179
 5280TIP3    H237332   0.793   3.404  15.749 -1.0412 -0.1841 -1.2116
 5281TIP3   OH237333   4.722   4.886   3.218 -0.3741 -0.3167  0.8816
 5281TIP3    H137334   4.798   4.931   3.181 -0.8647 -0.1531  0.0219
 5281TIP3    H237335   4.677   4.953   3.270 -0.4535 -0.1372  0.5862
 5282TIP3   OH237336   2.279   2.508  12.801 -0.0794 -0.2850  0.3828
 5282TIP3    H137337   2.187   2.518  12.778  0.0056 -0.8404 -0.2252
 5282TIP3    H237338   2.321   2.588  12.768 -0.1711 -0.5155 -0.3146
 5283TIP3   OH237339   3.369   2.989  16.589 -0.1859 -0.2152  0.0083
 5283TIP3    H137340   3.289   2.984  16.642  0.0757  0.4485  0.4765
 5283TIP3    H237341   3.339   2.971  16.500 -0.7714 -0.5029  0.2565
 5284TIP3   OH237342   1.521   2.034  14.824 -1.2970  0.8432  0.0061
 5284TIP3    H137343   1.454   1.965  14.830 -0.1886 -0.1986  0.9200
 5284TIP3    H237344   1.480   2.110  14.867 -2.6362  0.8857 -1.2595
 5285TIP3   OH237345   3.173   3.883  13.048 -0.2540  0.3051 -0.8940
 5285TIP3    H137346   3.232   3.810  13.032  1.7229  1.6324 -0.0328
 5285TIP3    H237347   3.216   3.958  13.007 -1.2718  1.3498 -0.1076
 5286TIP3   OH237348   0.545   0.030  15.478  0.1603  0.1705 -0.1650
 5286TIP3    H137349   0.509  -0.049  15.518 -0.3186  0.9941  1.1050
 5286TIP3    H237350   0.471   0.071  15.434  0.6791 -0.7147 -1.9641
 5287TIP3   OH237351   4.117   6.418   2.976  0.4276 -0.6596  0.2298
 5287TIP3    H137352   4.196   6.369   2.998 -0.2113 -2.4545 -1.1408
 5287TIP3    H237353   4.074   6.364   2.909 -1.2843  0.9137 -0.0199
 5288TIP3   OH237354   3.472   4.611   0.844 -0.1973  0.5225 -0.5768
 5288TIP3    H137355   3.485   4.706   0.839  1.3766  0.2772 -3.5600
 5288TIP3    H237356   3.387   4.597   0.801  0.3015  0.5115 -1.5944
 5289TIP3   OH237357   0.659   4.849   0.572  0.6565  0.3000  0.4593
 5289TIP3    H137358   0.649   4.944   0.580 -0.5872  0.3733 -1.3533
 5289TIP3    H237359   0.737   4.838   0.517  1.4605  0.1956  1.5741
 5290TIP3   OH237360   3.107   0.509   0.263 -0.0401 -0.1718  0.5426
 5290TIP3    H137361   3.115   0.522   0.357  1.7376  1.6963  0.2225
 5290TIP3    H237362   3.041   0.573   0.235  0.5497  0.3830  0.3715
 5291TIP3   OH237363   0.578   6.630   0.307  0.2346 -0.5431  0.0525
 5291TIP3    H137364   0.562   6.556   0.365  0.4310 -0.1601  0.6066
 5291TIP3    H237365   0.540   6.705   0.353 -1.6958 -0.5725 -1.3686
 5292TIP3   OH237366   3.461   4.305   3.858 -0.0829 -0.4003  0.1731
 5292TIP3    H137367   3.431   4.313   3.949  0.2366 -1.8384  0.4323
 5292TIP3    H237368   3.397   4.246   3.818  0.2253 -0.3957 -0.3255
 5293TIP3   OH237369   4.376   3.275  11.777  0.2581 -0.3566  0.1472
 5293TIP3    H137370   4.308   3.319  11.725  0.6463 -0.7946 -0.7586
 5293TIP3    H237371   4.437   3.345  11.799  0.5222 -0.3014 -0.7118
 5294TIP3   OH237372   3.553   4.837   2.618 -0.1239  0.1617 -0.1513
 5294TIP3    H137373   3.629   4.811   2.566 -0.0028  1.2900 -0.5610
 5294TIP3    H237374   3.573   4.806   2.707  1.2114  1.1709 -0.0709
 5295TIP3   OH237375   2.738   2.343   6.723  0.1730  0.7816  0.1847
 5295TIP3    H137376   2.821   2.386   6.703  0.8656 -0.4830  0.2601
 5295TIP3    H237377   2.713   2.300   6.642 -0.7907  1.7249 -0.0466
 5296TIP3   OH237378   1.851   2.107   2.478  0.8245  0.1396 -0.1505
 5296TIP3    H137379   1.802   2.093   2.559  1.2565 -1.8745 -0.1995
 5296TIP3    H237380   1.784   2.112   2.410  0.6076 -1.4499 -0.0748
 5297TIP3   OH237381   0.894   4.675   5.824 -0.4536 -0.4001  0.1183
 5297TIP3    H137382   0.814   4.666   5.771  0.1423  0.3330 -0.9243
 5297TIP3    H237383   0.881   4.757   5.872 -0.3144 -0.2688 -0.0691
 5298TIP3   OH237384   2.621   2.019   2.087 -0.1948 -0.3090 -0.1855
 5298TIP3    H137385   2.555   2.081   2.053  1.7246  1.4687 -0.8587
 5298TIP3    H237386   2.628   2.040   2.180 -0.3437 -0.2933 -0.1764
 5299TIP3   OH237387   3.730   4.911  16.762  0.0204 -0.3141  0.2211
 5299TIP3    H137388   3.693   4.918  16.850 -1.6332 -0.3853 -0.4123
 5299TIP3    H237389   3.727   5.001  16.728 -1.2135 -0.5653 -0.4212
 5300TIP3   OH237390   3.401   3.355   3.022 -0.7117  0.3690  0.2253
 5300TIP3    H137391   3.378   3.448   3.027  0.0987  0.6841 -1.3236
 5300TIP3    H237392   3.342   3.319   2.956 -1.1991 -0.3120  0.9969
 5301TIP3   OH237393   0.654   3.779  13.849  0.2301  0.0200 -0.4820
 5301TIP3    H137394   0.727   3.830  13.885  0.6946 -0.0164 -1.3560
 5301TIP3    H237395   0.630   3.825  13.769  0.1996 -0.7465 -0.9156
 5302TIP3   OH237396   5.092   6.398  13.217  0.1498 -0.0560  0.5011
 5302TIP3    H137397   5.117   6.306  13.220 -0.1660 -0.1132  2.0569
 5302TIP3    H237398   5.057   6.410  13.128  0.1513 -1.4335  0.2892
 5303TIP3   OH237399   5.323   3.650  14.820  0.4810  0.3339 -0.0547
 5303TIP3    H137400   5.237   3.692  14.816 -0.2077 -1.0983 -0.7836
 5303TIP3    H237401   5.341   3.644  14.914 -0.7537 -0.3717  0.1678
 5304TIP3   OH237402   4.039   2.411   0.621 -0.2566 -0.8841  0.3461
 5304TIP3    H137403   4.133   2.412   0.634 -0.1711 -2.6690  0.1337
 5304TIP3    H237404   4.010   2.498   0.646  1.4166 -0.3701  0.6018
 5305TIP3   OH237405   6.595   1.480   5.465 -0.0413 -0.2228  0.0570
 5305TIP3    H137406   6.579   1.446   5.377  1.4714 -2.3690  0.5409
 5305TIP3    H237407   6.550   1.420   5.524 -0.5115  0.8246  0.8056
 5306TIP3   OH237408   3.621   2.511  13.850  0.0502 -0.1231 -0.4200
 5306TIP3    H137409   3.557   2.581  13.838  1.2964  1.6067  2.0067
 5306TIP3    H237410   3.616   2.490  13.943  2.6323 -0.2148 -0.2157
 5307TIP3   OH237411   5.649   5.174   4.789 -0.0979 -0.5334 -0.7043
 5307TIP3    H137412   5.691   5.129   4.862 -0.5674 -0.7355 -0.5603
 5307TIP3    H237413   5.634   5.105   4.724 -2.4459 -0.9789  0.2207
 5308TIP3   OH237414   2.327   6.795  15.493 -0.5100  0.5194  0.1100
 5308TIP3    H137415   2.388   6.759  15.558 -1.0915 -0.2523  0.2419
 5308TIP3    H237416   2.251   6.823  15.544  0.0158  2.1665  0.0309
 5309TIP3   OH237417   3.188   2.668  16.258  0.2577 -0.1464  0.6725
 5309TIP3    H137418   3.246   2.600  16.224 -3.4979 -3.1446 -0.4348
 5309TIP3    H237419   3.168   2.722  16.181 -0.6937 -0.9836  0.3105
 5310TIP3   OH237420   1.955   0.661  15.222  0.9325  0.0461  0.3944
 5310TIP3    H137421   1.910   0.699  15.297  0.4599  0.7188 -0.2139
 5310TIP3    H237422   2.028   0.720  15.205  1.1129 -0.1734  0.3974
 5311TIP3   OH237423   4.919   5.056   2.290  0.0609 -0.2990  0.0589
 5311TIP3    H137424   4.951   5.083   2.376 -1.7173  0.2430  0.5785
 5311TIP3    H237425   4.969   5.111   2.229 -0.4055  1.1107  0.8925
 5312TIP3   OH237426   2.319   0.357  16.154  0.7702  0.3345  0.0558
 5312TIP3    H137427   2.256   0.339  16.084 -0.3960  1.0125  0.8941
 5312TIP3    H237428   2.401   0.376  16.107 -0.5816  3.3808 -1.3630
 5313TIP3   OH237429   3.732   6.051   2.480  0.1491  0.2057 -0.1647
 5313TIP3    H137430   3.637   6.058   2.472  0.2537  2.2759 -0.1130
 5313TIP3    H237431   3.766   6.074   2.394  0.6277  1.4725  0.3305
 5314TIP3   OH237432   4.779   3.613   3.235  0.3460 -0.2310  0.1719
 5314TIP3    H137433   4.816   3.667   3.165  1.7216 -0.1509  0.9315
 5314TIP3    H237434   4.708   3.666   3.272 -1.5753 -0.9518 -2.2232
 5315TIP3   OH237435   1.321   0.982  13.332  0.2620  0.3005 -0.2255
 5315TIP3    H137436   1.320   0.890  13.306 -1.1728  0.6342 -1.5014
 5315TIP3    H237437   1.243   0.992  13.388  1.4353  0.3641  1.4680
 5316TIP3   OH237438   4.860   6.601   2.775  0.0500  0.6665 -0.4225
 5316TIP3    H137439   4.925   6.613   2.706  1.1911 -1.0587  0.2757
 5316TIP3    H237440   4.784   6.562   2.730  0.5211  0.1887 -0.8105
 5317TIP3   OH237441   0.388   5.779  15.862  0.5404 -0.0515 -0.3306
 5317TIP3    H137442   0.364   5.724  15.937  1.3750 -1.7894 -1.2816
 5317TIP3    H237443   0.320   5.761  15.797 -0.4702  1.8420  0.1263
 5318TIP3   OH237444   4.821   3.375  12.885 -0.1811  0.1449  0.2367
 5318TIP3    H137445   4.744   3.432  12.881  0.8260  1.4698 -2.1377
 5318TIP3    H237446   4.892   3.432  12.913  0.3209 -0.6353  0.5878
 5319TIP3   OH237447   6.097   6.428  13.683 -0.4142  1.0182 -0.1908
 5319TIP3    H137448   6.153   6.438  13.759  0.1495 -0.9781 -0.2824
 5319TIP3    H237449   6.132   6.489  13.618  2.2946 -0.8078 -0.5667
 5320TIP3   OH237450   2.636   0.268   5.390  0.4002  0.2483  0.4077
 5320TIP3    H137451   2.574   0.335   5.362  1.3710  0.6970 -0.7427
 5320TIP3    H237452   2.721   0.298   5.358  1.6772  0.8179  3.8994
 5321TIP3   OH237453   2.556   0.856   2.901 -0.1326 -0.0516  0.0916
 5321TIP3    H137454   2.625   0.913   2.866 -0.4140 -0.6457 -1.5067
 5321TIP3    H237455   2.554   0.781   2.841 -2.1184 -0.0747  0.1163
 5322TIP3   OH237456   0.830   4.184   2.280 -0.0962  0.2846  0.2140
 5322TIP3    H137457   0.738   4.201   2.304 -0.3762  1.4747 -1.5453
 5322TIP3    H237458   0.832   4.194   2.185  1.7699 -0.2920  0.1668
 5323TIP3   OH237459   4.395   2.975  12.018  0.3326  0.3287  0.0831
 5323TIP3    H137460   4.321   2.933  12.062  1.6592 -1.2470  0.9113
 5323TIP3    H237461   4.389   3.067  12.045 -0.2715 -0.1345  1.6466
 5324TIP3   OH237462   2.780   6.662   3.280  0.4382 -0.6456  0.3274
 5324TIP3    H137463   2.743   6.614   3.354 -1.7734  1.4831  0.7250
 5324TIP3    H237464   2.775   6.601   3.206 -2.0438 -1.1784  0.8485
 5325TIP3   OH237465   1.387   2.922   0.140  0.2992 -0.2720 -0.7261
 5325TIP3    H137466   1.468   2.885   0.106  0.3953 -1.0956  0.3449
 5325TIP3    H237467   1.372   2.876   0.223 -1.2056 -0.0546 -0.8441
 5326TIP3   OH237468   4.626   0.221   4.533 -0.7483 -0.0290 -0.3149
 5326TIP3    H137469   4.642   0.160   4.461  0.8646  2.5634 -2.3460
 5326TIP3    H237470   4.689   0.196   4.600 -1.5425 -1.8316 -0.1928
 5327TIP3   OH237471   5.232   0.103  15.424  0.2084  0.1241 -0.1821
 5327TIP3    H137472   5.197   0.027  15.471 -0.2744 -0.4716 -1.4502
 5327TIP3    H237473   5.199   0.178  15.471  1.4160 -0.4192  1.6351
 5328TIP3   OH237474   6.023   1.319  13.651 -0.1593  0.5384  0.3114
 5328TIP3    H137475   6.075   1.291  13.576 -1.1175 -1.7526  0.4463
 5328TIP3    H237476   5.947   1.363  13.613 -1.4126 -1.9128 -0.2279
 5329TIP3   OH237477   6.631   1.205  17.012  0.6562 -0.7652 -0.1740
 5329TIP3    H137478   6.698   1.212  17.080  0.8532 -1.2018 -0.3175
 5329TIP3    H237479   6.549   1.224  17.057  1.0649  1.9202 -0.4307
 5330TIP3   OH237480   0.054   4.968  14.732  0.0891  0.7325 -0.2627
 5330TIP3    H137481   0.027   4.936  14.818  3.3396 -0.2882  0.5122
 5330TIP3    H237482   0.011   5.053  14.724 -1.1056  0.4223  1.9004
 5331TIP3   OH237483   3.535   4.408   0.461 -0.0550  0.5985 -0.0153
 5331TIP3    H137484   3.441   4.427   0.470  0.1259  1.2957  0.5375
 5331TIP3    H237485   3.558   4.362   0.542 -0.1133 -0.4369 -0.5745
 5332TIP3   OH237486   5.392   1.795  16.628 -0.4941 -0.3892  0.0052
 5332TIP3    H137487   5.338   1.817  16.552  0.6403  1.5262 -0.3091
 5332TIP3    H237488   5.457   1.733  16.595 -2.0313 -2.2261  0.2462
 5333TIP3   OH237489   6.542   2.452  12.295  0.1708 -1.0123  0.6108
 5333TIP3    H137490   6.578   2.378  12.343  0.8473 -1.8314 -1.0848
 5333TIP3    H237491   6.610   2.519  12.297  1.3444 -2.0509 -1.4221
 5334TIP3   OH237492   6.736   4.658  11.187 -0.5423 -0.4922 -0.0747
 5334TIP3    H137493   6.673   4.679  11.118 -1.2842  0.6621  0.9058
 5334TIP3    H237494   6.709   4.713  11.261  2.1150  0.7209  0.1216
 5335TIP3   OH237495   5.946   6.775  10.968  0.7567 -0.1203  0.2574
 5335TIP3    H137496   6.017   6.838  10.956 -0.6672  1.1547 -2.2383
 5335TIP3    H237497   5.867   6.829  10.969 -0.5754 -1.8079 -2.6665
 5336TIP3   OH237498   5.756   2.085  16.852  0.2160 -0.2112  0.3434
 5336TIP3    H137499   5.717   2.116  16.770 -0.8835  0.5224  1.1052
 5336TIP3    H237500   5.724   1.996  16.862 -1.1372  0.2936  0.8298
 5337TIP3   OH237501   1.666   6.408  15.247  0.3037 -0.2317 -0.0820
 5337TIP3    H137502   1.625   6.412  15.333 -0.1157 -0.3639 -0.2717
 5337TIP3    H237503   1.721   6.485  15.242  0.1943 -0.1338  0.2397
 5338TIP3   OH237504   0.150   4.394   2.783 -0.1011  0.3535  0.2508
 5338TIP3    H137505   0.215   4.443   2.732  0.2319 -0.9899 -0.6729
 5338TIP3    H237506   0.195   4.372   2.865 -0.3571  1.7983  0.8132
 5339TIP3   OH237507   3.132   6.558  12.402 -0.0896  0.1075  0.2145
 5339TIP3    H137508   3.124   6.653  12.400  3.0324  0.5244  1.9623
 5339TIP3    H237509   3.113   6.534  12.492  1.2307 -0.6276  0.3266
 5340TIP3   OH237510   4.232   1.615  16.425  0.4743 -0.4368  0.5054
 5340TIP3    H137511   4.172   1.547  16.455 -0.5293  0.2706  0.1525
 5340TIP3    H237512   4.311   1.568  16.400  0.3048 -1.3300  1.5522
 5341TIP3   OH237513   2.406   2.475   4.794 -0.1450 -0.0313  0.3523
 5341TIP3    H137514   2.312   2.492   4.799  0.0377  1.2165 -0.1362
 5341TIP3    H237515   2.414   2.399   4.736 -0.7906  0.6370 -0.6437
 5342TIP3   OH237516   6.792   0.204  14.485  0.1119  0.0240 -0.5333
 5342TIP3    H137517   6.826   0.181  14.571 -0.3413  1.1989 -0.0138
 5342TIP3    H237518   6.737   0.130  14.459  0.0253 -0.2153  0.3183
 5343TIP3   OH237519   2.814   2.143  14.625  0.4442  0.3712 -0.2037
 5343TIP3    H137520   2.872   2.130  14.699  1.0800  1.9710 -0.3965
 5343TIP3    H237521   2.732   2.173  14.663  1.0028  1.9153 -0.1635
 5344TIP3   OH237522   5.232   3.353  16.716  0.1066  0.0753 -0.5804
 5344TIP3    H137523   5.284   3.423  16.677  0.7612  0.6687  1.2282
 5344TIP3    H237524   5.253   3.357  16.810 -1.9448 -0.7621 -0.0216
 5345TIP3   OH237525   0.069   1.297   0.760 -0.2806 -0.6805  0.4338
 5345TIP3    H137526   0.023   1.377   0.784  0.8487  0.0627  0.1565
 5345TIP3    H237527   0.159   1.310   0.789  0.3102 -1.1553 -1.0481
 5346TIP3   OH237528   0.366   1.854  15.973  0.1805  0.2936 -0.2348
 5346TIP3    H137529   0.404   1.821  16.054  0.8647 -1.8556 -1.3360
 5346TIP3    H237530   0.281   1.888  15.998  0.6481  0.2823  1.4767
 5347TIP3   OH237531   5.903   0.451   2.034 -0.1475  0.1696  0.5004
 5347TIP3    H137532   5.914   0.423   1.943 -1.3303  0.5568  0.2180
 5347TIP3    H237533   5.985   0.427   2.077  0.9394  1.1103 -0.9500
 5348TIP3   OH237534   1.665   3.342   5.527  0.7305  0.0680 -0.7818
 5348TIP3    H137535   1.740   3.388   5.564 -0.4674  1.1950  0.3901
 5348TIP3    H237536   1.664   3.257   5.571  1.6926 -0.2312 -1.3171
 5349TIP3   OH237537   5.838   2.293   5.422  0.1320  0.5139 -0.0369
 5349TIP3    H137538   5.824   2.227   5.489  0.5906  0.6981  0.2476
 5349TIP3    H237539   5.927   2.325   5.438 -0.0851  1.1988 -0.1665
 5350TIP3   OH237540   1.650   0.433  14.787 -0.4990 -0.5240  0.2088
 5350TIP3    H137541   1.578   0.489  14.759 -2.1145 -1.7579  1.6330
 5350TIP3    H237542   1.686   0.476  14.865  0.7450  0.3804 -0.8165
 5351TIP3   OH237543   4.522   2.986  16.853 -0.4339 -0.0261  0.0014
 5351TIP3    H137544   4.557   2.902  16.884  1.7100  1.1286  0.9178
 5351TIP3    H237545   4.466   3.016  16.924 -0.8493 -0.4680 -0.1362
 5352TIP3   OH237546   2.959   6.730  15.945 -0.0573  0.1476 -0.3441
 5352TIP3    H137547   2.873   6.689  15.955 -0.0692  0.1711 -0.3506
 5352TIP3    H237548   2.941   6.817  15.909  0.0171 -0.1067 -1.0074
 5353TIP3   OH237549   3.139   6.760  13.729  0.1591  0.2516  0.0727
 5353TIP3    H137550   3.215   6.714  13.695  0.1493  1.3091 -1.4744
 5353TIP3    H237551   3.103   6.702  13.796 -0.0089 -2.1201 -1.9425
 5354TIP3   OH237552   6.748   4.872   0.910  0.1578  0.1119 -0.0180
 5354TIP3    H137553   6.702   4.950   0.944 -2.4376 -0.4373 -1.9648
 5354TIP3    H237554   6.713   4.800   0.963  0.6292 -0.0299  0.0965
 5355TIP3   OH237555   5.778   2.341  10.710  0.0064  0.1191 -0.2129
 5355TIP3    H137556   5.727   2.421  10.694  0.1617  0.5722  1.4050
 5355TIP3    H237557   5.720   2.287  10.764 -0.4220 -1.2602 -1.9611
 5356TIP3   OH237558   3.068   1.264  14.418 -0.0158 -0.1938  0.2643
 5356TIP3    H137559   3.087   1.338  14.361 -0.6331  1.8488  2.5020
 5356TIP3    H237560   3.148   1.252  14.470 -0.5686  0.2664  1.2641
 5357TIP3   OH237561   2.760   2.688   1.836  0.3573 -0.2909  0.6696
 5357TIP3    H137562   2.730   2.736   1.759  1.4941  0.4510  0.6581
 5357TIP3    H237563   2.805   2.753   1.889  1.7302 -1.2765  0.7789
 5358TIP3   OH237564   5.867   6.099  14.781 -0.4680 -0.1952 -0.2087
 5358TIP3    H137565   5.940   6.059  14.828 -0.9893 -0.0107  0.7867
 5358TIP3    H237566   5.907   6.136  14.701  0.8830  1.4666  1.1555
 5359TIP3   OH237567   6.066   1.871  14.802 -0.0983  0.0406  0.7731
 5359TIP3    H137568   6.054   1.782  14.769 -1.9771  0.1453  1.0650
 5359TIP3    H237569   6.161   1.880  14.812  0.1672 -1.7501  0.2720
 5360TIP3   OH237570   4.913   0.257  13.281 -0.3419 -0.5650 -0.0317
 5360TIP3    H137571   4.877   0.192  13.220  0.3871 -0.6263 -0.3992
 5360TIP3    H237572   4.931   0.208  13.361 -2.3911 -0.2644  0.6715
 5361TIP3   OH237573   4.527   0.582   1.372  0.0958  0.2019  0.4248
 5361TIP3    H137574   4.451   0.636   1.391 -0.2739 -0.1547 -0.0253
 5361TIP3    H237575   4.549   0.602   1.281 -0.3341 -0.7508  0.1021
 5362TIP3   OH237576   5.240   2.021  11.813 -0.0450  0.2929  0.0750
 5362TIP3    H137577   5.217   1.930  11.831 -1.4483  0.6288  0.1020
 5362TIP3    H237578   5.171   2.072  11.857  0.1970  1.3337 -0.7196
 5363TIP3   OH237579   5.264   4.547  11.536  0.7688  0.2485 -0.6430
 5363TIP3    H137580   5.173   4.576  11.546  0.1118 -1.7139 -0.4659
 5363TIP3    H237581   5.314   4.627  11.525 -0.8658  1.4291  0.1904
 5364TIP3   OH237582   6.631   3.679   6.713 -0.5333  0.2818 -0.3371
 5364TIP3    H137583   6.548   3.646   6.681 -0.6869  1.1136 -0.8162
 5364TIP3    H237584   6.629   3.774   6.696  0.2678  0.4080  0.1624
 5365TIP3   OH237585   5.218   3.375  16.039  0.4929 -0.1364 -0.4368
 5365TIP3    H137586   5.128   3.344  16.040  0.0307  1.1637 -0.3598
 5365TIP3    H237587   5.265   3.313  16.094 -0.3411 -0.8582 -0.5146
 5366TIP3   OH237588   1.828   4.951  15.791  0.0338 -0.2914  0.1485
 5366TIP3    H137589   1.843   5.031  15.841 -0.5016 -0.4194  0.5175
 5366TIP3    H237590   1.892   4.955  15.719  1.9765 -0.8833  1.7411
 5367TIP3   OH237591   1.943   4.108   3.565  0.1266 -0.6781 -0.3672
 5367TIP3    H137592   2.002   4.117   3.640 -1.0111 -0.5610  0.5466
 5367TIP3    H237593   1.978   4.034   3.516  2.0223  0.4505 -0.8153
 5368TIP3   OH237594   4.421   1.905   3.991  0.2326 -0.1267  1.1206
 5368TIP3    H137595   4.473   1.898   4.071  0.7876 -0.5887  0.7267
 5368TIP3    H237596   4.451   1.986   3.951  0.9242 -0.5721  0.7140
 5369TIP3   OH237597   3.876   1.628   4.408 -0.2303 -0.4581  0.2157
 5369TIP3    H137598   3.929   1.690   4.459  0.2302  0.2698 -1.0798
 5369TIP3    H237599   3.939   1.562   4.378 -0.3013 -0.3368 -0.2108
 5370TIP3   OH237600   1.740   4.321   2.538 -0.2970  0.2354  0.2643
 5370TIP3    H137601   1.820   4.304   2.588 -0.4232  2.2203  1.2302
 5370TIP3    H237602   1.740   4.255   2.469 -0.4839 -3.2824  3.2582
 5371TIP3   OH237603   6.489   4.826   4.498  0.1056  0.0664 -0.6966
 5371TIP3    H137604   6.583   4.811   4.485  0.0226  0.0970 -1.3340
 5371TIP3    H237605   6.469   4.779   4.579  0.6683  0.0436 -0.5669
 5372TIP3   OH237606   6.802   3.569   1.996  0.4602 -0.1793  0.2834
 5372TIP3    H137607   6.741   3.559   1.922  1.6275  0.0574 -0.7355
 5372TIP3    H237608   6.827   3.661   1.995 -0.8443  0.2486  2.0918
 5373TIP3   OH237609   4.488   5.529  11.863 -0.4127 -0.2227  0.2548
 5373TIP3    H137610   4.439   5.603  11.897 -0.2064 -0.2855  0.6903
 5373TIP3    H237611   4.463   5.455  11.918 -0.8412 -0.5469 -0.3566
 5374TIP3   OH237612   4.868   0.260  12.767  0.0858  0.2962  0.7476
 5374TIP3    H137613   4.960   0.251  12.742  0.1713  1.5212  0.5471
 5374TIP3    H237614   4.819   0.248  12.686  0.3146  3.3878  0.0345
 5375TIP3   OH237615   5.515   5.304   0.619  0.5771 -0.1881 -0.8029
 5375TIP3    H137616   5.559   5.347   0.545  0.4590  0.0139 -0.7549
 5375TIP3    H237617   5.431   5.348   0.626  0.6459 -0.1115 -0.4548
 5376TIP3   OH237618   3.951   4.711  10.828  0.1653  0.1586  0.1564
 5376TIP3    H137619   3.958   4.664  10.745  2.1019 -0.8509  0.8443
 5376TIP3    H237620   4.041   4.732  10.852 -0.3948  0.8990  1.7570
 5377TIP3   OH237621   1.118   4.573   6.020 -0.3345 -0.5103 -0.2708
 5377TIP3    H137622   1.033   4.617   6.030  0.2606  0.6991 -0.4313
 5377TIP3    H237623   1.126   4.519   6.099 -0.6374  0.4442  0.4372
 5378TIP3   OH237624   3.340   1.252   1.522 -0.8211  0.6503 -0.5399
 5378TIP3    H137625   3.367   1.211   1.605 -1.1032  0.5075 -0.5156
 5378TIP3    H237626   3.358   1.345   1.534 -2.8611  0.9849  0.5339
 5379TIP3   OH237627   6.631   0.471  14.285  0.7890 -0.4263  0.9093
 5379TIP3    H137628   6.647   0.504  14.373  0.7025 -2.3303  1.6917
 5379TIP3    H237629   6.598   0.382  14.299  1.6390 -1.1038 -1.0605
 5380TIP3   OH237630   0.441   1.207   3.162  0.3791 -0.3279  0.2580
 5380TIP3    H137631   0.399   1.132   3.121  0.6857 -0.1914 -0.3202
 5380TIP3    H237632   0.534   1.196   3.142  0.6003 -0.5149  1.3403
 5381TIP3   OH237633   3.013   0.646   1.046  0.4782  0.2066 -0.0247
 5381TIP3    H137634   3.022   0.728   1.095  0.0610  1.0490 -1.3106
 5381TIP3    H237635   2.919   0.628   1.045  0.5834 -0.3857  0.3958
 5382TIP3   OH237636   5.257   5.120   5.716 -0.1144 -0.6783 -0.1783
 5382TIP3    H137637   5.297   5.038   5.687 -0.0003 -0.4646 -0.6258
 5382TIP3    H237638   5.217   5.156   5.637  0.8841  0.3124 -0.2507
 5383TIP3   OH237639   0.302   6.126  16.010 -0.5308 -0.1208 -0.4956
 5383TIP3    H137640   0.380   6.172  15.981 -0.3974 -0.0511 -0.0369
 5383TIP3    H237641   0.290   6.153  16.101 -0.3112 -1.1571 -0.1366
 5384TIP3   OH237642   2.816   6.005  15.784 -0.3911 -0.1237 -0.0526
 5384TIP3    H137643   2.788   6.014  15.693  1.1011  1.7299 -0.3960
 5384TIP3    H237644   2.750   6.051  15.835 -0.6420 -0.1975 -0.3115
 5385TIP3   OH237645   2.861   2.422  16.445  0.3893  0.0351  0.0435
 5385TIP3    H137646   2.769   2.397  16.450  0.0128  1.4746  0.8290
 5385TIP3    H237647   2.863   2.492  16.380  1.0954 -0.6096 -0.6567
 5386TIP3   OH237648   5.756   3.955  12.209  0.3562  0.2789 -0.6558
 5386TIP3    H137649   5.848   3.977  12.195  0.7028 -1.5683 -1.5849
 5386TIP3    H237650   5.755   3.860  12.218 -1.3795  0.3295  0.2098
 5387TIP3   OH237651   4.753   4.427  12.945  0.5393 -0.1382  0.1660
 5387TIP3    H137652   4.679   4.444  13.003  0.7620 -0.5784  0.5879
 5387TIP3    H237653   4.771   4.334  12.955  1.8723  0.1815  0.9617
 5388TIP3   OH237654   6.365   3.185  11.724 -0.0811  0.2155 -0.1597
 5388TIP3    H137655   6.345   3.107  11.673 -3.1862  0.3867  0.6276
 5388TIP3    H237656   6.361   3.257  11.660 -0.9722  0.1055 -0.2382
 5389TIP3   OH237657   0.692   0.232  14.979  0.1703 -0.3392 -0.4758
 5389TIP3    H137658   0.681   0.302  14.914  0.8155  0.0602 -0.1581
 5389TIP3    H237659   0.649   0.265  15.058  0.9448 -0.0655 -0.1602
 5390TIP3   OH237660   6.638   5.729  12.947  0.3154  0.6090 -0.0582
 5390TIP3    H137661   6.679   5.772  13.022 -0.2716  0.6406  0.2550
 5390TIP3    H237662   6.687   5.647  12.937  0.3007  0.5256  0.4700
 5391TIP3   OH237663   2.119   3.827  16.231  0.0542 -1.0413 -0.0693
 5391TIP3    H137664   2.086   3.862  16.148  1.7125 -0.7632 -0.6684
 5391TIP3    H237665   2.214   3.822  16.218  0.4237 -0.4017  2.0536
 5392TIP3   OH237666   6.517   4.927  16.790  0.0770  0.6605  0.6199
 5392TIP3    H137667   6.578   4.902  16.860  0.3097  1.7730  0.8352
 5392TIP3    H237668   6.573   4.967  16.723 -0.2278  0.1966  0.0810
 5393TIP3   OH237669   1.971   3.464   1.217  0.4881 -0.0928 -0.1266
 5393TIP3    H137670   2.012   3.526   1.157  1.6621 -0.8983 -0.1939
 5393TIP3    H237671   1.905   3.420   1.165  1.3808 -0.6646 -0.8015
 5394TIP3   OH237672   5.454   6.618   0.899 -0.0698 -0.1507 -0.2870
 5394TIP3    H137673   5.460   6.679   0.825  1.0069  0.3928  0.2097
 5394TIP3    H237674   5.467   6.532   0.860 -0.3077  0.0543 -0.8334
 5395TIP3   OH237675   6.799   6.561  17.244  0.5364 -0.2867 -0.4107
 5395TIP3    H137676   6.711   6.577  17.209  0.9106 -1.4858 -2.0133
 5395TIP3    H237677   6.792   6.584  17.337 -1.3012  0.1955 -0.6175
 5396TIP3   OH237678   4.388   2.950  16.359  0.2046 -0.2092  0.1764
 5396TIP3    H137679   4.436   3.033  16.366 -0.1201 -0.1660  2.8631
 5396TIP3    H237680   4.410   2.903  16.439 -3.0382 -0.8367  0.8395
 5397TIP3   OH237681   2.837   3.509   2.154  0.0555 -0.4737  0.5368
 5397TIP3    H137682   2.833   3.515   2.058  0.8600 -0.2190  0.5072
 5397TIP3    H237683   2.747   3.493   2.181 -0.2720  0.0453 -0.2216
 5398TIP3   OH237684   0.724   0.720  16.010  0.0594 -0.5656  0.4100
 5398TIP3    H137685   0.805   0.669  16.006  0.4455  0.0818 -0.4398
 5398TIP3    H237686   0.654   0.655  16.007  0.4944 -1.0521 -2.8672
 5399TIP3   OH237687   4.182   5.848   4.566 -0.3869 -0.1329  0.5797
 5399TIP3    H137688   4.128   5.838   4.488 -2.2902  3.3196  1.2395
 5399TIP3    H237689   4.134   5.802   4.635  0.1418 -1.2679  0.2155
 5400TIP3   OH237690   5.915   5.366  10.822 -0.3662 -0.2244 -0.0902
 5400TIP3    H137691   5.827   5.385  10.789 -0.3623 -0.1064 -0.0329
 5400TIP3    H237692   5.955   5.313  10.753 -0.2589  0.2526 -0.3997
 5401TIP3   OH237693   5.357   0.072   2.598  0.3311  0.2969 -0.5900
 5401TIP3    H137694   5.372   0.013   2.671 -1.6728  0.5763  0.1121
 5401TIP3    H237695   5.279   0.037   2.554 -1.0684  2.4297 -0.0274
 5402TIP3   OH237696   5.314   2.156   5.100 -0.7859 -0.4449 -0.8222
 5402TIP3    H137697   5.384   2.191   5.154 -1.6494  0.6371 -0.3610
 5402TIP3    H237698   5.248   2.225   5.098 -0.8692 -0.5043 -3.1209
 5403TIP3   OH237699   5.441   4.290   2.260  0.7075  0.0373  0.4319
 5403TIP3    H137700   5.361   4.250   2.225 -0.1148  0.1383  2.1115
 5403TIP3    H237701   5.512   4.245   2.213 -0.2701 -1.3662  0.2111
 5404TIP3   OH237702   6.259   2.178  12.150  0.3187 -0.0267 -0.5586
 5404TIP3    H137703   6.301   2.121  12.214  0.5324 -3.7165 -3.6402
 5404TIP3    H237704   6.166   2.155  12.155  0.1690  0.5095 -0.7885
 5405TIP3   OH237705   0.281   0.804  10.496  0.4904 -0.1734 -0.0435
 5405TIP3    H137706   0.368   0.776  10.524  0.8393 -0.2817 -1.1908
 5405TIP3    H237707   0.221   0.747  10.545  1.0677 -0.1761  0.6674
 5406TIP3   OH237708   5.160   0.888  16.293 -0.2502  0.1787  0.6933
 5406TIP3    H137709   5.147   0.815  16.354 -0.5268  0.2135  0.6744
 5406TIP3    H237710   5.207   0.954  16.345 -0.2540  0.1033  0.7921
 5407TIP3   OH237711   1.195   5.342  13.449 -0.2426 -0.2571 -0.2500
 5407TIP3    H137712   1.220   5.397  13.523 -2.8557 -2.0069  2.1267
 5407TIP3    H237713   1.137   5.397  13.397 -0.8183  0.0812  0.7193
 5408TIP3   OH237714   4.278   1.174  13.008  0.1174  0.0336 -0.2117
 5408TIP3    H137715   4.354   1.128  12.970  0.3502  0.7065 -0.5789
 5408TIP3    H237716   4.211   1.106  13.016  0.4638 -0.3815 -0.7203
 5409TIP3   OH237717   5.236   1.372   5.850  0.0774  0.2985 -0.5857
 5409TIP3    H137718   5.192   1.296   5.888 -0.1227  0.0564 -1.2830
 5409TIP3    H237719   5.199   1.447   5.896  0.4308 -0.0305  0.2605
 5410TIP3   OH237720   0.247   5.310  11.524  0.2974  0.2810 -0.1163
 5410TIP3    H137721   0.203   5.343  11.602  0.0719  0.5238 -0.3453
 5410TIP3    H237722   0.273   5.221  11.548 -1.6861 -0.4525 -0.4835
 5411TIP3   OH237723   2.007   0.251   0.380  0.2110  0.0539  0.1635
 5411TIP3    H137724   1.959   0.217   0.304 -1.6551  0.7277  0.9920
 5411TIP3    H237725   2.093   0.276   0.344 -0.0025 -1.2160 -1.3589
 5412TIP3   OH237726   1.389   4.543   2.940  0.5724 -0.2155  0.2916
 5412TIP3    H137727   1.429   4.456   2.940  0.6534 -0.2282 -2.1086
 5412TIP3    H237728   1.299   4.527   2.971  0.3571 -1.2909 -0.8098
 5413TIP3   OH237729   1.673   2.851  17.028 -0.5030 -0.3252  0.6084
 5413TIP3    H137730   1.583   2.824  17.046 -1.5830  1.4299 -1.5226
 5413TIP3    H237731   1.665   2.944  17.004  2.0983  0.2576  1.7019
 5414TIP3   OH237732   3.723   2.059   0.764  0.7953 -0.0404 -0.5337
 5414TIP3    H137733   3.672   2.084   0.687  0.8926  2.1655  0.0449
 5414TIP3    H237734   3.756   1.971   0.744 -2.3458 -1.1578 -1.3415
 5415TIP3   OH237735   3.309   3.128  11.560 -0.1848  0.0572 -0.0315
 5415TIP3    H137736   3.400   3.121  11.589 -0.3825  0.4631  0.6981
 5415TIP3    H237737   3.292   3.043  11.518  0.4233 -0.1526  0.1228
 5416TIP3   OH237738   1.051   2.847  11.471 -0.1730  0.4549  0.6332
 5416TIP3    H137739   1.033   2.936  11.442  0.7909  0.3608 -0.2854
 5416TIP3    H237740   1.139   2.850  11.508  0.4918 -0.4013 -0.7879
 5417TIP3   OH237741   1.164   2.476   6.079  0.1089 -0.0119  0.6958
 5417TIP3    H137742   1.175   2.564   6.114 -2.0881 -0.0043  1.5260
 5417TIP3    H237743   1.171   2.486   5.984 -2.2129  1.4913  0.6004
 5418TIP3   OH237744   1.561   5.106  13.087 -0.6699 -0.7402 -0.0698
 5418TIP3    H137745   1.559   5.122  12.993  0.7451 -2.4172 -0.4388
 5418TIP3    H237746   1.473   5.125  13.117 -0.8159  1.1135 -1.4905
 5419TIP3   OH237747   2.213   2.681  14.784  0.4012 -0.4004  0.3599
 5419TIP3    H137748   2.300   2.656  14.815  0.9924 -0.0676 -0.9612
 5419TIP3    H237749   2.205   2.774  14.806 -0.0138 -0.6532  1.3207
 5420TIP3   OH237750   5.544   5.362  16.550  0.0868  0.0885 -0.3568
 5420TIP3    H137751   5.609   5.414  16.503 -0.0618  0.9167  0.3235
 5420TIP3    H237752   5.516   5.418  16.623 -1.0354 -0.4305 -0.3575
 5421TIP3   OH237753   5.030   3.319   5.951  0.4110  0.2835  0.2366
 5421TIP3    H137754   5.118   3.280   5.954  0.2816  0.0394  0.8219
 5421TIP3    H237755   5.003   3.309   5.859  0.3436 -1.0843  0.3889
 5422TIP3   OH237756   1.244   4.010   2.968  0.2472 -0.2132 -0.3650
 5422TIP3    H137757   1.280   3.943   3.026  1.6113 -0.5411 -1.5440
 5422TIP3    H237758   1.248   4.091   3.020 -1.3601 -0.9619  1.0472
 5423TIP3   OH237759   6.536   3.190   5.407 -0.5716 -0.1727  0.3525
 5423TIP3    H137760   6.522   3.097   5.385 -1.2851 -0.3314  1.3994
 5423TIP3    H237761   6.631   3.200   5.411 -0.4851 -1.2369  1.6912
 5424TIP3   OH237762   5.036   5.843   1.489 -0.6045  0.2719  0.1536
 5424TIP3    H137763   4.945   5.872   1.497 -0.6237  0.4098 -0.5321
 5424TIP3    H237764   5.081   5.886   1.562 -1.6206 -2.0785  2.3183
 5425TIP3   OH237765   6.602   1.845   4.882  0.3400 -0.1814  0.0856
 5425TIP3    H137766   6.533   1.789   4.918 -1.8498  1.1335 -1.7688
 5425TIP3    H237767   6.587   1.931   4.921  0.9068  0.1400 -0.3771
 5426TIP3   OH237768   6.002   6.263  16.936 -0.6907  0.3120 -0.4257
 5426TIP3    H137769   6.071   6.259  16.871 -1.1534  1.5908 -1.0442
 5426TIP3    H237770   6.043   6.303  17.013 -0.6239  0.6397 -0.6311
 5427TIP3   OH237771   5.011   6.066  11.441 -0.0717 -0.2657  0.1839
 5427TIP3    H137772   4.971   6.092  11.358 -0.3175 -2.8784 -0.6296
 5427TIP3    H237773   4.943   6.013  11.484  0.3988  0.2559  1.6238
 5428TIP3   OH237774   4.628   3.021  12.416  0.2799 -0.0910  0.0304
 5428TIP3    H137775   4.679   3.102  12.422  1.4148 -0.6252 -1.5533
 5428TIP3    H237776   4.666   2.963  12.481  0.0229  0.3512  0.5832
 5429TIP3   OH237777   5.467   1.439  17.293 -0.6641  0.0095 -0.0912
 5429TIP3    H137778   5.532   1.378  17.329 -0.3558 -0.0787 -0.7819
 5429TIP3    H237779   5.395   1.382  17.266 -0.7571  0.0413  0.0917
 5430TIP3   OH237780   0.220   1.380   1.854 -0.6222  0.4822  0.0884
 5430TIP3    H137781   0.243   1.393   1.946  0.2025 -1.2992  0.1791
 5430TIP3    H237782   0.262   1.452   1.807  2.7963 -0.9939  0.6033
 5431TIP3   OH237783   4.979   1.808  14.789  0.1311 -1.0517  0.0816
 5431TIP3    H137784   4.992   1.889  14.741  0.1093 -1.0484  0.0810
 5431TIP3    H237785   5.054   1.753  14.766  1.9667  0.2068  2.6418
 5432TIP3   OH237786   1.234   4.947   1.719 -0.1862  0.0971  0.7620
 5432TIP3    H137787   1.216   4.977   1.808 -1.9227  1.2092  0.0767
 5432TIP3    H237788   1.170   4.878   1.703 -0.9092  0.9448 -0.1267
 5433TIP3   OH237789   0.451   6.347  12.547 -0.2639 -0.1101  0.1442
 5433TIP3    H137790   0.545   6.367  12.547 -0.7396  2.5109  0.2058
 5433TIP3    H237791   0.442   6.271  12.605  1.7264  0.1027  0.7982
 5434TIP3   OH237792   1.885   1.691  16.910 -0.0499  0.7071  0.5779
 5434TIP3    H137793   1.830   1.716  16.985  0.4339  2.5580  0.3706
 5434TIP3    H237794   1.832   1.714  16.833  0.1760  0.5005  0.3598
 5435TIP3   OH237795   5.259   0.493  15.466 -0.2720  0.2218 -0.0063
 5435TIP3    H137796   5.261   0.407  15.507 -0.1261  0.7648  1.1589
 5435TIP3    H237797   5.216   0.550  15.530 -0.3442  1.0285 -0.7430
 5436TIP3   OH237798   2.255   5.804  15.967  0.5667  0.6407  0.1885
 5436TIP3    H137799   2.275   5.712  15.950 -0.2058  0.7870 -1.7689
 5436TIP3    H237800   2.334   5.851  15.942  1.2277  0.5046  1.8728
 5437TIP3   OH237801   0.690   5.867  11.808 -0.2754  0.1615  0.3617
 5437TIP3    H137802   0.752   5.815  11.758  0.6112  0.9374  0.6182
 5437TIP3    H237803   0.697   5.834  11.898  0.0558  0.4870  0.4620
 5438TIP3   OH237804   6.678   1.726   4.183 -0.3834 -0.0865  0.0096
 5438TIP3    H137805   6.619   1.780   4.131 -1.0602 -0.2712  0.5734
 5438TIP3    H237806   6.690   1.774   4.264  2.5537  1.3593 -1.1617
 5439TIP3   OH237807   4.846   1.213  14.771  0.4347 -0.1764 -0.0914
 5439TIP3    H137808   4.928   1.207  14.821 -0.3504 -0.8814  1.1744
 5439TIP3    H237809   4.818   1.304  14.782  0.2986 -0.3085  0.7450
 5440TIP3   OH237810   5.145   3.529   2.374 -0.1940  0.0457  0.2327
 5440TIP3    H137811   5.132   3.462   2.441 -4.1974 -0.0709 -0.4419
 5440TIP3    H237812   5.057   3.555   2.347  1.1377  0.8126 -4.2945
 5441TIP3   OH237813   1.489   4.052  14.730 -0.0009 -0.3242  0.2182
 5441TIP3    H137814   1.393   4.056  14.726  0.0568  1.2277 -0.3458
 5441TIP3    H237815   1.514   4.128  14.783  0.9625 -0.0576 -0.5954
 5442TIP3   OH237816   5.512   0.728   0.302  0.4215  0.4027  0.1495
 5442TIP3    H137817   5.477   0.686   0.380  1.7862 -0.4537  0.3217
 5442TIP3    H237818   5.440   0.783   0.270 -1.0575 -1.2569  0.5027
 5443TIP3   OH237819   2.399   6.548   4.068 -0.6199  0.4360 -0.0027
 5443TIP3    H137820   2.424   6.456   4.066 -0.6192  0.4516 -0.7874
 5443TIP3    H237821   2.303   6.547   4.068 -0.6807  0.4463 -2.4565
 5444TIP3   OH237822   4.869   4.261   1.444 -0.4495  0.2829 -0.0965
 5444TIP3    H137823   4.849   4.221   1.359  1.5849 -0.0389 -0.4894
 5444TIP3    H237824   4.786   4.264   1.490 -1.4004 -0.5767 -1.6812
 5445TIP3   OH237825   2.486   3.795   4.482  0.1566  0.3071 -0.0954
 5445TIP3    H137826   2.432   3.871   4.504 -0.8520 -0.6004  0.6721
 5445TIP3    H237827   2.551   3.791   4.551 -1.3138 -0.9322  1.2853
 5446TIP3   OH237828   4.286   3.507  12.422  0.0356  0.2280  0.3066
 5446TIP3    H137829   4.287   3.504  12.518 -0.8164  1.4431  0.3824
 5446TIP3    H237830   4.237   3.429  12.397 -1.0296  0.6617  0.9510
 5447TIP3   OH237831   5.610   1.328   0.854  0.4735 -0.1136 -0.2483
 5447TIP3    H137832   5.545   1.283   0.909  0.4100 -0.4107 -0.5631
 5447TIP3    H237833   5.694   1.295   0.884  0.4506 -0.1244 -0.1954
 5448TIP3   OH237834   3.553   2.077   4.021 -0.0824 -0.0874  0.0927
 5448TIP3    H137835   3.495   2.136   4.070  0.3157 -0.4160  0.9897
 5448TIP3    H237836   3.586   2.016   4.087 -1.6111 -2.2805 -1.0380
 5449TIP3   OH237837   6.379   2.720   0.276  0.2393  0.3520  0.7628
 5449TIP3    H137838   6.374   2.780   0.202  0.6528  2.8682  2.6242
 5449TIP3    H237839   6.472   2.711   0.293  0.1721 -0.7797  0.5684
 5450TIP3   OH237840   4.462   1.469   6.271 -0.1647  0.9227 -0.5509
 5450TIP3    H137841   4.548   1.432   6.292 -0.5220 -0.2490 -1.0827
 5450TIP3    H237842   4.416   1.470   6.355 -0.6842 -1.3276 -0.7591
 5451TIP3   OH237843   2.685   4.802   5.491 -0.0816  0.2350 -0.1993
 5451TIP3    H137844   2.701   4.718   5.535  1.4260  0.2059 -0.7180
 5451TIP3    H237845   2.677   4.778   5.399  1.9250  0.7659 -0.5632
 5452TIP3   OH237846   3.092   6.272  14.669  0.0346 -0.2753  0.6411
 5452TIP3    H137847   3.001   6.289  14.693 -0.6334 -1.7576 -0.6469
 5452TIP3    H237848   3.101   6.309  14.581  0.6950 -0.0801  0.7874
 5453TIP3   OH237849   1.289   0.951  11.771 -0.1861 -0.4245  0.6555
 5453TIP3    H137850   1.272   0.930  11.862 -0.4521 -1.2045  0.4291
 5453TIP3    H237851   1.384   0.948  11.763 -0.2137 -1.4315  0.6554
 5454TIP3   OH237852   5.461   3.753   3.774 -0.3839  0.1185  0.2573
 5454TIP3    H137853   5.493   3.678   3.725 -0.3036  0.6139 -0.4583
 5454TIP3    H237854   5.368   3.735   3.788 -0.0487 -0.8134  1.4049
 5455TIP3   OH237855   0.798   5.115  15.659  0.4457  0.2508 -0.7902
 5455TIP3    H137856   0.709   5.125  15.624  0.7007 -1.5534 -2.0912
 5455TIP3    H237857   0.789   5.133  15.753 -0.9477  1.7572 -1.1696
 5456TIP3   OH237858   4.988   2.612   5.890  0.0591 -0.4178  0.0302
 5456TIP3    H137859   5.033   2.681   5.841 -0.2653 -0.4548 -0.3263
 5456TIP3    H237860   5.032   2.611   5.976  0.2866  0.0015 -0.0768
 5457TIP3   OH237861   6.446   4.807  12.867 -0.2744  0.1079  0.2213
 5457TIP3    H137862   6.488   4.871  12.811  0.3033  0.9369  1.5549
 5457TIP3    H237863   6.515   4.777  12.926 -1.1213  0.1696  1.2820
 5458TIP3   OH237864   3.877   5.888  15.795  0.6731 -0.1605  0.1376
 5458TIP3    H137865   3.836   5.974  15.798 -2.0506 -1.3722  1.3733
 5458TIP3    H237866   3.844   5.848  15.714  0.1944 -0.7685  0.6172
 5459TIP3   OH237867   2.767   3.997   0.230 -0.3229  0.4423 -0.2159
 5459TIP3    H137868   2.679   3.973   0.258  0.8037 -2.3355  1.2393
 5459TIP3    H237869   2.790   3.934   0.162  0.5960  1.1025 -0.5550
 5460TIP3   OH237870   5.777   0.603   3.600 -0.1171  0.0883 -1.0554
 5460TIP3    H137871   5.786   0.698   3.601 -1.9231  0.2966 -0.8616
 5460TIP3    H237872   5.712   0.586   3.532 -0.3711 -0.9373 -0.5764
 5461TIP3   OH237873   2.056   1.145   1.540 -0.0702  0.4084  0.1112
 5461TIP3    H137874   2.044   1.150   1.635 -1.6208  0.6929 -0.0611
 5461TIP3    H237875   2.010   1.222   1.507  0.0967  0.0847 -0.9038
 5462TIP3   OH237876   5.761   6.032   0.180  0.3022  0.3268  0.1511
 5462TIP3    H137877   5.772   6.113   0.231  0.5171  1.0657 -1.0351
 5462TIP3    H237878   5.738   6.062   0.092  1.9616 -0.8414 -0.7373
 5463TIP3   OH237879   4.741   3.140  12.170  0.4468 -0.4426 -0.3184
 5463TIP3    H137880   4.699   3.068  12.217  0.1150  0.7182  1.2547
 5463TIP3    H237881   4.669   3.195  12.141  0.7453  0.7289  1.0183
 5464TIP3   OH237882   6.746   6.520   2.155  0.3902  0.5616  0.1928
 5464TIP3    H137883   6.713   6.509   2.244  1.4663 -0.1258  0.5182
 5464TIP3    H237884   6.805   6.446   2.142  0.5064  0.8464 -0.9774
 5465TIP3   OH237885   0.427   4.984   4.845 -0.1644  0.1173  0.1666
 5465TIP3    H137886   0.512   4.941   4.851 -0.7639 -1.4653 -1.5507
 5465TIP3    H237887   0.367   4.924   4.890 -0.9409 -0.7279 -1.8746
 5466TIP3   OH237888   3.778   0.693   4.947 -0.4430 -0.3484 -0.1627
 5466TIP3    H137889   3.842   0.689   5.018 -1.1406  0.1220  0.5105
 5466TIP3    H237890   3.706   0.637   4.976 -2.4862  2.8018  1.3583
 5467TIP3   OH237891   5.674   4.203   2.850  0.2945  1.2145 -0.1369
 5467TIP3    H137892   5.702   4.288   2.817 -0.1712  0.9416 -1.2832
 5467TIP3    H237893   5.626   4.223   2.930  0.9843  1.9445  0.1097
 5468TIP3   OH237894   0.798   4.650   3.348 -0.3637  0.2833  0.1684
 5468TIP3    H137895   0.882   4.615   3.319 -0.1555 -1.0063  2.1626
 5468TIP3    H237896   0.798   4.741   3.316  2.3092  0.6911  1.0607
 5469TIP3   OH237897   4.071   3.256   4.015  0.1611 -0.1536 -0.3765
 5469TIP3    H137898   4.020   3.277   3.936 -1.1603  2.0033  0.9270
 5469TIP3    H237899   4.006   3.256   4.085  1.8522  2.6432  1.3714
 5470TIP3   OH237900   5.371   5.775   2.460  0.6318  0.1086 -0.2183
 5470TIP3    H137901   5.437   5.711   2.487  0.9306  0.7818  0.6884
 5470TIP3    H237902   5.292   5.748   2.507  1.2347  1.4736  1.7021
 5471TIP3   OH237903   3.911   6.559   5.827  0.2025 -0.0776  0.7411
 5471TIP3    H137904   3.888   6.558   5.919  0.5549  1.7688  0.8857
 5471TIP3    H237905   3.941   6.470   5.808  0.3171 -0.4232  2.4493
 5472TIP3   OH237906   6.446   0.242  12.507  0.2911  0.4465  0.2249
 5472TIP3    H137907   6.384   0.169  12.513 -1.0397  1.6202  2.3059
 5472TIP3    H237908   6.474   0.256  12.598  0.2234  2.7038 -0.0455
 5473TIP3   OH237909   1.832   6.081   0.951 -0.1058  0.2888 -0.0055
 5473TIP3    H137910   1.915   6.040   0.928  0.0855  1.0448 -0.6951
 5473TIP3    H237911   1.804   6.035   1.030  0.3557 -0.8082 -0.4612
 5474TIP3   OH237912   5.511   5.538   6.293 -0.3317  0.1619 -0.6039
 5474TIP3    H137913   5.454   5.465   6.272  0.3115 -0.0322 -1.7823
 5474TIP3    H237914   5.451   5.610   6.314 -0.9688 -0.9129  1.4694
 5475TIP3   OH237915   2.151   0.976   1.865 -0.3393  0.2802  0.1068
 5475TIP3    H137916   2.142   0.925   1.784 -1.6745  0.0046  0.3908
 5475TIP3    H237917   2.101   1.056   1.848 -0.5524  0.2602  0.6164
 5476TIP3   OH237918   2.309   6.388  16.828  0.1132 -0.1940  0.1894
 5476TIP3    H137919   2.250   6.358  16.758  0.7854 -2.6423  0.5851
 5476TIP3    H237920   2.396   6.366  16.797  1.0482  3.8891 -0.6243
 5477TIP3   OH237921   5.161   5.347  16.602 -0.2509 -0.0259 -0.2744
 5477TIP3    H137922   5.100   5.319  16.534 -0.7959 -1.2265  0.6768
 5477TIP3    H237923   5.118   5.422  16.644  0.5664  1.4219 -1.8939
 5478TIP3   OH237924   3.734   5.762   1.233  0.2018  0.4584  0.0492
 5478TIP3    H137925   3.694   5.729   1.314  0.3900  0.5509  0.1823
 5478TIP3    H237926   3.812   5.707   1.221  0.0588  0.3057 -0.1856
 5479TIP3   OH237927   3.168   6.625   0.520 -0.0434 -0.4681 -0.2570
 5479TIP3    H137928   3.156   6.713   0.484  0.6861  0.7970  2.2962
 5479TIP3    H237929   3.249   6.594   0.479  0.3698  0.5907 -0.2893
 5480TIP3   OH237930   4.193   4.136  15.054  0.5050  0.1050 -0.3406
 5480TIP3    H137931   4.162   4.052  15.019  0.7289  0.6833 -1.9802
 5480TIP3    H237932   4.115   4.176  15.093 -0.1955  0.2386 -1.8169
 5481TIP3   OH237933   1.064   1.592   5.351  0.4424 -0.5622  0.5848
 5481TIP3    H137934   0.983   1.630   5.386  1.2487  0.0272  1.8625
 5481TIP3    H237935   1.120   1.667   5.333  1.0453 -1.0078  0.5773
 5482TIP3   OH237936   3.073   1.445  12.182  0.2051  0.1457 -0.2393
 5482TIP3    H137937   3.075   1.386  12.258  1.6053  0.0974 -0.2785
 5482TIP3    H237938   3.022   1.520  12.211 -0.5082 -0.5143  0.2531
 5483TIP3   OH237939   6.057   2.732  14.042 -0.0473 -0.2861 -0.0453
 5483TIP3    H137940   6.098   2.813  14.010 -2.3620  0.0949 -2.4594
 5483TIP3    H237941   6.127   2.667  14.040  1.9132  1.5840  2.0286
 5484TIP3   OH237942   0.021   1.522   3.544  0.4250 -0.1935  0.6088
 5484TIP3    H137943   0.008   1.611   3.509  1.1697 -0.3958 -0.2121
 5484TIP3    H237944  -0.008   1.464   3.474  0.8273 -0.6062  0.7762
 5485TIP3   OH237945   1.548   1.090   0.669 -0.6230  0.2714  0.2784
 5485TIP3    H137946   1.574   1.173   0.629 -0.2441 -0.0072 -0.0703
 5485TIP3    H237947   1.453   1.095   0.674 -0.5267  1.2643  1.4746
 5486TIP3   OH237948   1.767   0.841   5.860 -0.6198  0.8667  0.1799
 5486TIP3    H137949   1.837   0.900   5.888 -0.0475  1.8373 -2.9024
 5486TIP3    H237950   1.688   0.878   5.899 -0.1165  3.0931 -0.7506
 5487TIP3   OH237951   1.925   5.389   2.914 -0.1656 -0.2330 -0.4198
 5487TIP3    H137952   1.869   5.311   2.920  0.0837 -0.3743  0.0675
 5487TIP3    H237953   1.903   5.441   2.991  1.7851 -1.2375  0.9129
 5488TIP3   OH237954   3.141   5.336  12.105 -0.0035 -0.5960  0.4032
 5488TIP3    H137955   3.114   5.422  12.135  1.2554 -0.3300  0.8259
 5488TIP3    H237956   3.082   5.316  12.033  0.3520  1.0864 -0.4059
 5489TIP3   OH237957   4.901   0.655   0.421 -0.0982  0.6777 -0.4506
 5489TIP3    H137958   4.907   0.701   0.505 -1.9454  1.7275 -0.8215
 5489TIP3    H237959   4.860   0.571   0.443 -0.2827  0.8160 -0.2567
 5490TIP3   OH237960   5.293   2.697   1.847 -0.0612 -0.1147  0.0417
 5490TIP3    H137961   5.339   2.632   1.794 -1.1236 -0.1803 -0.8330
 5490TIP3    H237962   5.201   2.688   1.823 -0.2449  1.7689 -0.1809
 5491TIP3   OH237963   0.144   5.208   1.701  0.2461  0.1800  0.0764
 5491TIP3    H137964   0.215   5.267   1.721  0.2968  0.7738 -1.6562
 5491TIP3    H237965   0.181   5.147   1.637  0.2645 -1.9290  1.9607
 5492TIP3   OH237966   0.735   1.985   5.745  0.5453  0.6346  0.2024
 5492TIP3    H137967   0.797   2.013   5.812  1.5512  0.6135 -0.6899
 5492TIP3    H237968   0.776   2.010   5.662  1.2543 -2.8897 -0.6571
 5493TIP3   OH237969   5.333   3.742   1.470 -0.0435 -0.2099  0.0214
 5493TIP3    H137970   5.377   3.658   1.475 -1.2764 -0.8757  0.2329
 5493TIP3    H237971   5.285   3.739   1.387 -0.5413  0.0416  0.2968
 5494TIP3   OH237972   4.778   4.200   6.517 -0.5819  0.2562 -0.0337
 5494TIP3    H137973   4.806   4.109   6.530 -1.0508  0.2732  1.3098
 5494TIP3    H237974   4.859   4.251   6.524 -0.3951 -0.0115 -0.2078
 5495TIP3   OH237975   0.739   2.998   4.326  0.2360 -0.4114 -0.0954
 5495TIP3    H137976   0.713   2.917   4.283  1.0727 -0.9836  0.4575
 5495TIP3    H237977   0.769   3.055   4.255 -1.2182 -0.2229 -0.5904
 5496TIP3   OH237978   6.171   5.220  14.054  0.2828 -0.7361  0.4668
 5496TIP3    H137979   6.081   5.249  14.037  1.0616  2.1664  0.7145
 5496TIP3    H237980   6.183   5.234  14.147  1.1664 -0.4482  0.3194
 5497TIP3   OH237981   5.996   0.727   5.302 -0.5116  0.0316 -0.3885
 5497TIP3    H137982   5.988   0.795   5.369  1.7433  0.1505 -0.1563
 5497TIP3    H237983   5.969   0.647   5.346  3.1358 -0.3465  1.6270
 5498TIP3   OH237984   4.806   2.360   1.657  0.7124  0.5847 -0.1846
 5498TIP3    H137985   4.780   2.297   1.724 -0.0667  1.9829  0.8836
 5498TIP3    H237986   4.844   2.307   1.587  1.6838 -0.9181  1.4088
 5499TIP3   OH237987   2.169   0.727  13.239  0.3169  0.1671  0.1085
 5499TIP3    H137988   2.096   0.789  13.235  0.3630  0.1732 -1.3539
 5499TIP3    H237989   2.132   0.647  13.274  0.0915  0.7787  1.3326
 5500TIP3   OH237990   5.899   1.570  10.800 -0.2590  0.5300 -0.7872
 5500TIP3    H137991   5.827   1.539  10.855  0.5735  2.7337  1.7459
 5500TIP3    H237992   5.863   1.647  10.755  0.1771  1.0548 -0.2601
 5501TIP3   OH237993   4.112   1.255   5.517 -0.2589  0.2292  0.4347
 5501TIP3    H137994   4.141   1.263   5.426  1.6354  0.7499  1.0374
 5501TIP3    H237995   4.191   1.230   5.565 -1.2200 -0.0003  1.9501
 5502TIP3   OH237996   0.893   0.873   2.122  0.3237 -0.1700 -0.6450
 5502TIP3    H137997   0.918   0.782   2.137 -0.7145 -0.4351 -0.4508
 5502TIP3    H237998   0.800   0.869   2.100 -0.2778  1.0307  1.4150
 5503TIP3   OH237999   4.852   2.750  12.779 -0.0441 -0.4622  0.3368
 5503TIP3    H138000   4.765   2.751  12.737  0.1442  1.4395 -0.1189
 5503TIP3    H238001   4.832   2.748  12.873 -0.5412 -1.5246  0.2213
 5504TIP3   OH238002   0.367   3.597   1.254  0.3827  0.4629 -0.0806
 5504TIP3    H138003   0.432   3.532   1.226 -0.2396 -0.1930 -0.0462
 5504TIP3    H238004   0.317   3.552   1.323  0.6293  1.3608  0.7048
 5505TIP3   OH238005   0.487   3.590  14.378  0.1907  0.5309  0.4344
 5505TIP3    H138006   0.417   3.580  14.442 -1.4359  0.7275 -1.2128
 5505TIP3    H238007   0.568   3.596  14.430 -0.9925  0.1893  2.3893
 5506TIP3   OH238008   5.142   6.752   0.064  0.2040 -0.1590  0.5769
 5506TIP3    H138009   5.224   6.799   0.081  0.2077 -0.2806  0.9055
 5506TIP3    H238010   5.143   6.680   0.127  1.0689 -1.6964 -1.0933
 5507TIP3   OH238011   1.982   4.722   2.365 -0.5457  0.1348  0.2689
 5507TIP3    H138012   2.011   4.690   2.450 -1.3594  0.3965  0.6517
 5507TIP3    H238013   2.052   4.696   2.305  0.4756  0.7396  1.1574
 5508TIP3   OH238014   0.689   6.680   6.641  0.1055 -0.2263  0.4861
 5508TIP3    H138015   0.691   6.659   6.548 -0.6318  1.0289  0.1487
 5508TIP3    H238016   0.698   6.596   6.686  0.1601 -0.8827 -0.7211
 5509TIP3   OH238017   0.633   3.591   0.519  0.3342 -0.6338 -0.0765
 5509TIP3    H138018   0.707   3.621   0.572  0.0635 -0.1630  0.0414
 5509TIP3    H238019   0.638   3.644   0.439 -0.9940  0.8087  0.7377
 5510TIP3   OH238020   1.932   5.946   0.660 -0.3641  0.2542 -0.1731
 5510TIP3    H138021   1.924   5.903   0.745 -0.9560  0.6159 -0.0387
 5510TIP3    H238022   1.978   5.883   0.605  1.2641  0.5454  0.7875
 5511TIP3   OH238023   5.713   0.659   2.117  0.1470  0.1298  0.1740
 5511TIP3    H138024   5.725   0.731   2.056  1.2919 -0.5762 -0.4741
 5511TIP3    H238025   5.777   0.593   2.090 -1.2714 -1.4022  0.3481
 5512TIP3   OH238026   4.899   4.744  12.285 -0.4423 -0.1895  0.4460
 5512TIP3    H138027   4.851   4.827  12.278 -0.3295  0.0687  2.1417
 5512TIP3    H238028   4.900   4.726  12.379 -2.0797 -3.0879  0.0235
 5513TIP3   OH238029   3.215   2.529  16.663  0.4240 -0.4379  0.2989
 5513TIP3    H138030   3.203   2.587  16.737 -1.0562  0.6040 -0.7084
 5513TIP3    H238031   3.212   2.586  16.586 -0.2087 -1.7266 -0.6755
 5514TIP3   OH238032   6.008   4.957  13.074 -0.0619 -0.4493  0.4074
 5514TIP3    H138033   5.942   4.934  13.139  1.1733 -0.8181  1.5968
 5514TIP3    H238034   5.988   4.903  12.998  0.6485 -2.9095  1.8441
 5515TIP3   OH238035   5.352   1.187   0.003  0.4169  0.1666  0.8335
 5515TIP3    H138036   5.295   1.135  -0.054  0.6983  2.5688 -1.8740
 5515TIP3    H238037   5.434   1.138   0.005  0.4186  0.0073 -0.9833
 5516TIP3   OH238038   6.415   1.067   1.397 -0.5368 -0.6415  0.1111
 5516TIP3    H138039   6.487   1.119   1.361 -0.7266 -0.4940 -0.0569
 5516TIP3    H238040   6.449   0.978   1.398 -0.1516 -0.4934  0.5541
 5517TIP3   OH238041   1.674   0.740   3.401 -0.0502  0.3991 -0.0553
 5517TIP3    H138042   1.587   0.779   3.407 -0.4169 -0.5610  1.4889
 5517TIP3    H238043   1.678   0.703   3.313 -0.5262  1.9271 -0.7558
 5518TIP3   OH238044   0.945   4.057   1.390 -0.2744 -0.0714 -0.5610
 5518TIP3    H138045   0.925   4.095   1.304  1.0224  3.0014  0.3746
 5518TIP3    H238046   1.040   4.042   1.388 -0.1935  0.2779  0.4310
 5519TIP3   OH238047   4.916   1.681  13.770 -0.1467 -0.5841  0.1062
 5519TIP3    H138048   4.976   1.617  13.808 -0.6904 -1.0134  0.2479
 5519TIP3    H238049   4.889   1.642  13.687  0.7076  0.1572 -0.5390
 5520TIP3   OH238050   2.655   0.430   1.604 -0.4544  0.0454 -0.5529
 5520TIP3    H138051   2.587   0.363   1.610 -0.9422  0.6648  2.3911
 5520TIP3    H238052   2.616   0.507   1.645  1.5759  0.7939  0.0772
 5521TIP3   OH238053   4.313   5.693   0.297  0.2802  0.5874 -0.3062
 5521TIP3    H138054   4.349   5.607   0.316 -0.7380 -0.1043 -1.3442
 5521TIP3    H238055   4.376   5.755   0.333  1.5812 -0.5841 -0.5165
 5522TIP3   OH238056   3.687   5.727  12.706  0.6450 -0.0396  0.3366
 5522TIP3    H138057   3.693   5.719  12.610  1.3643  1.1162  0.2639
 5522TIP3    H238058   3.595   5.711  12.726  0.2018  1.0458 -0.7066
 5523TIP3   OH238059   2.919   5.957   5.118  0.5312 -0.4014 -0.0212
 5523TIP3    H138060   2.994   5.945   5.059  1.1743 -1.9983  1.0404
 5523TIP3    H238061   2.957   5.949   5.205 -0.6538  0.4004  0.5933
 5524TIP3   OH238062   0.627   0.298  15.877  0.6300 -0.2657 -0.1541
 5524TIP3    H138063   0.687   0.263  15.943 -0.0477 -2.5361 -0.6397
 5524TIP3    H238064   0.677   0.297  15.796 -0.0552 -2.4057 -0.6096
 5525TIP3   OH238065   6.642   1.421   5.195  0.0546  0.4231  0.5192
 5525TIP3    H138066   6.612   1.486   5.132  2.0494  1.1521  0.2246
 5525TIP3    H238067   6.604   1.338   5.165 -2.4663  1.3931  0.8495
 5526TIP3   OH238068   6.045   3.219   1.051  0.5835 -0.3902  0.3565
 5526TIP3    H138069   5.954   3.189   1.041  0.4214 -0.0809  0.8846
 5526TIP3    H238070   6.050   3.251   1.141  1.2613 -0.5489  0.3774
 5527TIP3   OH238071   4.179   5.034   1.660 -0.0963 -0.4273 -0.1827
 5527TIP3    H138072   4.191   5.129   1.665 -1.5570  0.0686 -3.5241
 5527TIP3    H238073   4.265   5.000   1.637  0.0972  0.3005 -0.5718
 5528TIP3   OH238074   1.687   3.833   1.094 -0.5519 -0.5619  0.3652
 5528TIP3    H138075   1.616   3.897   1.087  0.6583  0.6425 -1.8836
 5528TIP3    H238076   1.740   3.864   1.167 -1.4478 -0.5747  1.0397
 5529TIP3   OH238077   6.378   6.070  17.218  0.0443 -0.5310  0.7417
 5529TIP3    H138078   6.411   6.060  17.129 -1.5288 -1.2490  0.2041
 5529TIP3    H238079   6.450   6.040  17.273  1.2390  0.4266 -0.2470
 5530TIP3   OH238080   1.004   1.844   5.210  0.1897  0.2011 -0.1808
 5530TIP3    H138081   0.912   1.857   5.188 -0.1105 -1.2514  0.0971
 5530TIP3    H238082   1.051   1.855   5.127 -0.0850  1.9780 -0.1410
 5531TIP3   OH238083   5.241   0.390   3.331 -0.0643 -0.3687  0.4171
 5531TIP3    H138084   5.153   0.389   3.368 -0.8708 -1.0589 -1.4093
 5531TIP3    H238085   5.233   0.440   3.250  0.6949 -2.2101 -0.8769
 5532TIP3   OH238086   2.678   4.749   5.220  0.4250 -0.0426 -0.0592
 5532TIP3    H138087   2.763   4.787   5.197  1.8954 -3.3887 -0.7396
 5532TIP3    H238088   2.644   4.715   5.137 -2.0651  1.9009  0.0462
 5533TIP3   OH238089   6.075   1.315  11.586  0.1857 -0.0834 -0.2404
 5533TIP3    H138090   6.001   1.370  11.561 -0.8177 -1.7094 -1.1072
 5533TIP3    H238091   6.150   1.374  11.588 -0.9318  1.4024 -0.4886
 5534TIP3   OH238092   6.254   4.652   5.753  0.0704 -0.4428  0.0449
 5534TIP3    H138093   6.165   4.637   5.721  0.8910 -1.3585 -1.9484
 5534TIP3    H238094   6.310   4.633   5.678  2.1317 -2.4394  1.9383
 5535TIP3   OH238095   4.565   1.363  15.443  0.2994 -0.9880  0.0908
 5535TIP3    H138096   4.645   1.412  15.424 -0.3026  0.0327  0.1038
 5535TIP3    H238097   4.509   1.426  15.490 -1.3146 -1.0036 -1.6780
 5536TIP3   OH238098   3.118   2.871  12.158  0.1653 -0.1838 -0.1274
 5536TIP3    H138099   3.206   2.835  12.149  0.5382  0.4002  0.9839
 5536TIP3    H238100   3.117   2.911  12.245 -1.9358 -2.1906  0.8913
 5537TIP3   OH238101   4.891   5.130   0.866 -0.4965  0.3449  0.1510
 5537TIP3    H138102   4.861   5.087   0.786 -1.4353 -0.1427  0.7560
 5537TIP3    H238103   4.839   5.210   0.871  1.5637  1.8932 -1.2227
 5538TIP3   OH238104   1.080   0.084  11.463  0.4639 -0.1693  0.1570
 5538TIP3    H138105   0.998   0.119  11.430  0.3737  0.9627  1.4693
 5538TIP3    H238106   1.058  -0.002  11.498 -0.0361 -0.1199 -0.0392
 5539TIP3   OH238107   6.501   4.272  10.470  0.0799 -0.1804  0.2688
 5539TIP3    H138108   6.411   4.302  10.483 -0.2144 -1.8241  2.9102
 5539TIP3    H238109   6.555   4.343  10.502 -0.3613  0.0705  0.4695
 5540TIP3   OH238110   4.692   0.499   2.950  0.3859  0.3208 -0.0391
 5540TIP3    H138111   4.718   0.538   2.866 -0.8331  0.6323 -0.2908
 5540TIP3    H238112   4.597   0.491   2.944  0.4640 -1.4251  0.5606
 5541TIP3   OH238113   5.103   6.363   3.785  0.0364  0.7503 -0.2939
 5541TIP3    H138114   5.074   6.434   3.728 -0.4569  1.3485  0.6737
 5541TIP3    H238115   5.193   6.345   3.758 -0.2355  0.9170 -1.3453
 5542TIP3   OH238116   1.934   4.997   3.732  0.2027 -0.6681 -0.0895
 5542TIP3    H138117   1.881   4.929   3.774  0.3616 -1.9407 -1.8416
 5542TIP3    H238118   2.020   4.988   3.771 -0.1907 -0.3416  0.8842
 5543TIP3   OH238119   3.521   6.320  11.141  0.3135 -0.5866  0.0359
 5543TIP3    H138120   3.507   6.230  11.111 -0.6335 -0.8748  1.2815
 5543TIP3    H238121   3.500   6.318  11.235  2.3103  0.4708  0.5679
 5544TIP3   OH238122   4.864   2.392  15.792 -0.4232 -0.4409 -0.3914
 5544TIP3    H138123   4.882   2.483  15.814 -1.3425 -0.5089  0.7368
 5544TIP3    H238124   4.784   2.394  15.740 -0.1602 -0.5568 -0.7995
 5545TIP3   OH238125   2.170   2.153   5.757 -0.3215 -0.3330  0.1004
 5545TIP3    H138126   2.180   2.208   5.835  1.3265 -1.9681  1.1433
 5545TIP3    H238127   2.249   2.171   5.705 -0.1288 -1.1490  0.0996
 5546TIP3   OH238128   0.797   1.442  17.299 -0.3179  0.4795 -0.3927
 5546TIP3    H138129   0.735   1.439  17.226 -3.1372  1.7411  1.7419
 5546TIP3    H238130   0.789   1.531  17.334  0.8446 -0.0943  1.4921
 5547TIP3   OH238131   6.319   2.747  13.688 -0.3066  0.3844  0.2791
 5547TIP3    H138132   6.391   2.700  13.646 -0.6048 -1.3463  1.5682
 5547TIP3    H238133   6.249   2.746  13.623  0.4280  1.0470 -0.5442
 5548TIP3   OH238134   6.658   0.081   4.058  0.0171 -0.2030  0.0881
 5548TIP3    H138135   6.713   0.136   4.001  0.7859 -1.4934 -0.4557
 5548TIP3    H238136   6.677  -0.009   4.030  0.9362 -0.9549  2.8031
 5549TIP3   OH238137   6.727   2.721   6.619  0.5256 -0.4947  0.1096
 5549TIP3    H138138   6.816   2.695   6.593  0.8383  0.9604 -0.3480
 5549TIP3    H238139   6.738   2.768   6.701  0.2576  0.1759 -0.2313
 5550TIP3   OH238140   5.576   1.457   4.559 -0.3571  0.3716  0.1566
 5550TIP3    H138141   5.659   1.442   4.604  0.2157 -0.9874 -1.2241
 5550TIP3    H238142   5.559   1.374   4.514 -1.9803  0.9514 -0.3540
 5551TIP3   OH238143   2.740   6.684  15.016  0.7566  0.6983  0.6868
 5551TIP3    H138144   2.743   6.608  14.958  1.2577  1.8258 -0.8273
 5551TIP3    H238145   2.832   6.704  15.034  1.0358  3.7446 -2.8869
 5552TIP3   OH238146   4.978   3.390  14.395  0.4547  0.0446  0.1322
 5552TIP3    H138147   5.015   3.424  14.476 -1.3441 -0.3108  1.1550
 5552TIP3    H238148   4.975   3.466  14.337  1.5393  0.3583  0.4642
 5553TIP3   OH238149   4.815   3.231  14.668 -1.1916 -0.3325 -0.3435
 5553TIP3    H138150   4.789   3.178  14.743 -0.4162  0.2508  0.3592
 5553TIP3    H238151   4.782   3.183  14.592 -1.7934 -1.0505  0.3481
 5554TIP3   OH238152   3.373   4.969  12.593  0.0729 -0.5681  0.0785
 5554TIP3    H138153   3.408   5.049  12.630  1.4792  0.0883 -2.4540
 5554TIP3    H238154   3.285   4.993  12.562  0.1595 -0.2392  0.0917
 5555TIP3   OH238155   3.840   5.784  16.789 -0.6924 -0.3733 -0.3690
 5555TIP3    H138156   3.756   5.800  16.745 -1.5267 -2.1272  0.4928
 5555TIP3    H238157   3.859   5.865  16.836 -1.4325  0.3637 -1.3014
 5556TIP3   OH238158   5.739   3.443   1.058  0.4338 -0.2538  0.1649
 5556TIP3    H138159   5.734   3.351   1.032 -1.7812  0.1253 -0.9390
 5556TIP3    H238160   5.823   3.473   1.021  1.0644 -1.7261  0.3224
 5557TIP3   OH238161   0.223   2.709  13.493  0.2650 -0.3888 -0.0287
 5557TIP3    H138162   0.139   2.662  13.487  0.6172 -1.3866  2.0662
 5557TIP3    H238163   0.287   2.648  13.456  0.6039 -1.3491  1.9877
 5558TIP3   OH238164   2.290   2.003  17.282 -0.1380  0.1663 -0.0331
 5558TIP3    H138165   2.275   2.067  17.212 -2.6439  0.1460  0.4124
 5558TIP3    H238166   2.204   1.989  17.321  0.8318 -1.4321  1.6868
 5559TIP3   OH238167   1.960   3.135   4.268  0.4611 -0.5228 -0.1790
 5559TIP3    H138168   1.958   3.231   4.276  1.1405 -0.6080  1.2091
 5559TIP3    H238169   1.870   3.111   4.246 -0.1418  0.2942  1.2872
 5560TIP3   OH238170   2.680   6.012  13.813  0.1639  0.8341 -0.2758
 5560TIP3    H138171   2.619   5.942  13.834  0.7412  0.4960  0.2869
 5560TIP3    H238172   2.663   6.031  13.720 -0.0353  0.0048 -0.4170
 5561TIP3   OH238173   0.867   2.072  16.212  0.4603  0.0963 -0.2275
 5561TIP3    H138174   0.920   2.069  16.292  0.4729 -0.8400 -0.2597
 5561TIP3    H238175   0.845   1.980  16.194  2.0520  0.0574 -2.3652
 5562TIP3   OH238176   1.107   5.875  15.309  0.5590 -0.3427 -0.0666
 5562TIP3    H138177   1.028   5.865  15.255  0.0689 -1.0445  0.7575
 5562TIP3    H238178   1.173   5.822  15.265  0.2360 -0.7038 -0.1270
 5563TIP3   OH238179   4.428   3.723  12.683 -0.0499 -0.4991  0.0079
 5563TIP3    H138180   4.343   3.679  12.681 -0.5747  0.4794 -0.0973
 5563TIP3    H238181   4.409   3.809  12.720  0.3309  0.8603 -2.7193
 5564TIP3   OH238182   2.968   3.345  12.668 -0.0088 -0.6065 -0.1787
 5564TIP3    H138183   3.047   3.387  12.701 -0.4884 -0.1370  0.3776
 5564TIP3    H238184   2.979   3.346  12.572 -0.4438  1.6914 -0.2621
 5565TIP3   OH238185   5.852   5.707   1.750 -0.1822  0.4410 -0.7096
 5565TIP3    H138186   5.897   5.780   1.706  1.1171 -0.0034 -0.1520
 5565TIP3    H238187   5.790   5.675   1.685 -0.7873  2.0331 -0.9725
 5566TIP3   OH238188   2.700   3.202   3.730  0.5131  0.5959 -0.2379
 5566TIP3    H138189   2.767   3.256   3.772  0.4287  0.6604 -0.1867
 5566TIP3    H238190   2.659   3.154   3.802  0.6987  0.3399 -0.3017
 5567TIP3   OH238191   2.751   2.678  11.465 -0.4649 -0.1485  0.1953
 5567TIP3    H138192   2.692   2.751  11.448  0.3771  0.9978  1.9123
 5567TIP3    H238193   2.701   2.622  11.525  0.4994  1.4328  2.6385
 5568TIP3   OH238194   2.696   6.518   2.384 -0.5643 -0.0419  0.0538
 5568TIP3    H138195   2.679   6.513   2.290  0.8261 -1.7699 -0.1645
 5568TIP3    H238196   2.676   6.430   2.417  0.1392  0.1895  1.1567
 5569TIP3   OH238197   2.730   4.604   6.479  0.3401 -0.0209 -0.1374
 5569TIP3    H138198   2.703   4.693   6.502  0.2902 -0.2037  0.5237
 5569TIP3    H238199   2.818   4.596   6.515 -1.0528 -1.5274  3.3220
 5570TIP3   OH238200   0.318   3.980  14.662  0.3403  0.1239 -0.2937
 5570TIP3    H138201   0.296   4.018  14.577  0.1415 -0.1772 -0.3763
 5570TIP3    H238202   0.283   4.042  14.725  1.9049  1.2025 -0.4103
 5571TIP3   OH238203   4.654   1.693   1.822  0.3909  0.3362 -0.4412
 5571TIP3    H138204   4.721   1.625   1.832  0.8435  0.4775 -2.1033
 5571TIP3    H238205   4.583   1.650   1.774 -0.0803  0.5791  0.0300
 5572TIP3   OH238206   4.130   1.238  14.351  0.3295 -0.5642 -0.2852
 5572TIP3    H138207   4.087   1.312  14.394  0.2088  0.4478 -2.0352
 5572TIP3    H238208   4.211   1.225  14.400  1.4871  2.2713 -1.2413
 5573TIP3   OH238209   4.211   1.040   6.122  0.4758  0.0718 -0.8586
 5573TIP3    H138210   4.287   1.055   6.178  0.3857 -0.7572 -0.5025
 5573TIP3    H238211   4.155   1.116   6.138  0.6712  0.0839 -0.1849
 5574TIP3   OH238212   5.571   0.754   4.202 -0.3257  0.0832 -0.7261
 5574TIP3    H138213   5.529   0.837   4.184 -1.0339 -0.0819  0.0971
 5574TIP3    H238214   5.521   0.716   4.275  2.8568  1.1638  2.3152
 5575TIP3   OH238215   2.935   6.289   4.679  0.4320 -0.7344 -0.3905
 5575TIP3    H138216   2.990   6.342   4.737 -1.3883  0.0501  0.7116
 5575TIP3    H238217   2.931   6.203   4.721  1.1497 -0.9325 -0.7125
 5576TIP3   OH238218   3.716   4.627   4.769  0.2031 -0.2745  0.4146
 5576TIP3    H138219   3.789   4.655   4.713 -1.5036  2.3661 -0.6985
 5576TIP3    H238220   3.748   4.641   4.858  1.1668  0.6419 -0.0457
 5577TIP3   OH238221   4.140   0.539   1.582  0.1309  0.2721 -0.4722
 5577TIP3    H138222   4.203   0.486   1.630  0.1325  1.0749  0.4552
 5577TIP3    H238223   4.062   0.484   1.576  0.7329 -0.5278 -1.1709
 5578TIP3   OH238224   3.961   2.393   5.098  0.3249 -0.1127 -0.9060
 5578TIP3    H138225   4.007   2.324   5.146  2.3104  1.5880 -0.2161
 5578TIP3    H238226   3.881   2.408   5.148  1.8602  0.9067  1.3656
 5579TIP3   OH238227   5.365   5.845   0.854  0.1518 -0.0942  0.8108
 5579TIP3    H138228   5.337   5.784   0.786  0.6239 -1.0312  1.4370
 5579TIP3    H238229   5.339   5.803   0.936  0.8803  0.3427  1.2771
 5580TIP3   OH238230   0.733   5.442   0.685 -0.3144  0.0952 -0.2503
 5580TIP3    H138231   0.822   5.410   0.701  0.2818  1.7843  0.0078
 5580TIP3    H238232   0.677   5.384   0.736  0.7813 -0.0279  0.8461
 5581TIP3   OH238233   2.026   2.612   5.013 -0.1916  0.1284  0.4241
 5581TIP3    H138234   2.000   2.702   4.992  0.3866  0.2189  0.0769
 5581TIP3    H238235   2.083   2.621   5.089  0.3903  0.1207 -0.0082
 5582TIP3   OH238236   1.790   5.389  14.678 -0.1578  0.0333 -0.1466
 5582TIP3    H138237   1.714   5.447  14.687  1.2377  2.1150 -0.9911
 5582TIP3    H238238   1.771   5.316  14.737 -2.0438  1.3144  0.9615
 5583TIP3   OH238239   1.880   4.807   5.752  0.2949 -0.0389 -0.2299
 5583TIP3    H138240   1.951   4.839   5.696  0.8029  0.9581  0.9392
 5583TIP3    H238241   1.804   4.860   5.726  0.4676  0.2516 -0.1561
 5584TIP3   OH238242   1.438   5.653   5.958 -0.4937 -0.4860  0.1655
 5584TIP3    H138243   1.400   5.709   5.890  0.2792 -1.2860 -0.9642
 5584TIP3    H238244   1.445   5.567   5.917  1.2823 -0.6645  0.7861
 5585TIP3   OH238245   0.199   2.519   2.990  0.3553  0.0016 -0.4111
 5585TIP3    H138246   0.204   2.530   2.895 -2.2123  0.5308 -0.5412
 5585TIP3    H238247   0.214   2.425   3.004 -1.8228 -0.5906 -1.6304
 5586TIP3   OH238248   3.532   6.061   5.813 -0.4663 -0.2561 -0.4172
 5586TIP3    H138249   3.504   5.999   5.880 -1.0587 -0.4866 -0.8640
 5586TIP3    H238250   3.570   6.134   5.861 -0.1599 -0.7730  0.1344
 5587TIP3   OH238251   3.816   2.972   2.583  0.4296  0.4174 -0.4076
 5587TIP3    H138252   3.730   2.991   2.547  0.7173  0.3345 -1.1513
 5587TIP3    H238253   3.816   2.877   2.597  0.9641  0.1637 -1.9481
 5588TIP3   OH238254   1.754   4.453  13.636  0.3844  0.2639  0.7666
 5588TIP3    H138255   1.774   4.536  13.593  1.4381 -0.4294 -0.1408
 5588TIP3    H238256   1.658   4.449  13.638  0.3237  1.0084 -0.1581
 5589TIP3   OH238257   1.684   1.739   1.498 -0.3623  0.1853  0.5075
 5589TIP3    H138258   1.657   1.797   1.427 -2.8687 -1.1983  0.2086
 5589TIP3    H238259   1.619   1.752   1.566 -1.2943 -2.4848  0.2669
 5590TIP3   OH238260   4.422   3.178  14.440  0.2039 -0.3668 -0.5074
 5590TIP3    H138261   4.494   3.163  14.379  1.2591  0.3275  0.5322
 5590TIP3    H238262   4.399   3.270  14.428  0.1187 -0.3433 -0.1702
 5591TIP3   OH238263   6.652   4.660  15.747 -0.0615  0.2765 -0.1223
 5591TIP3    H138264   6.603   4.707  15.815 -1.3843  0.3322 -1.0616
 5591TIP3    H238265   6.744   4.671  15.770 -0.4162  1.8227  0.6477
 5592TIP3   OH238266   5.074   2.712  12.642  0.2202 -0.0358 -0.4164
 5592TIP3    H138267   4.997   2.741  12.691 -1.0741 -3.4432 -0.1781
 5592TIP3    H238268   5.120   2.653  12.702  3.1094  1.8782 -0.5645
 5593TIP3   OH238269   2.015   2.960  10.663  0.8537 -0.4926 -0.0920
 5593TIP3    H138270   2.106   2.930  10.674  1.3211  0.6169 -0.7635
 5593TIP3    H238271   2.005   3.030  10.726  0.4194 -0.6810  0.0502
 5594TIP3   OH238272   1.535   1.675   6.369 -0.1325  0.2290  0.0532
 5594TIP3    H138273   1.612   1.733   6.367 -1.4536  2.2675  2.3612
 5594TIP3    H238274   1.461   1.734   6.353 -1.4327 -1.0462  1.1594
 5595TIP3   OH238275   1.265   5.320   0.784  0.7230 -0.4145 -0.2222
 5595TIP3    H138276   1.332   5.380   0.818  0.8846  0.5493 -2.1156
 5595TIP3    H238277   1.272   5.243   0.839  1.0566  0.9767  1.8129
 5596TIP3   OH238278   2.046   3.559   3.212 -0.1492  0.0618  0.0865
 5596TIP3    H138279   1.984   3.497   3.175 -0.1560  0.1346 -0.0242
 5596TIP3    H238280   2.131   3.515   3.205 -0.0275  0.4006 -0.7737
 5597TIP3   OH238281   2.515   6.046   1.351 -0.1584  0.0626  0.2069
 5597TIP3    H138282   2.570   6.095   1.412  0.3186 -0.6046  0.3242
 5597TIP3    H238283   2.554   5.959   1.348 -0.6626 -0.1499 -0.4292
 5598TIP3   OH238284   0.681   4.156  13.165  0.1014 -0.1990 -0.1682
 5598TIP3    H138285   0.764   4.128  13.204 -0.1151  1.6342  1.7962
 5598TIP3    H238286   0.634   4.075  13.150  0.4027 -1.1374  3.1317
 5599TIP3   OH238287   5.693   3.650   4.990 -0.5474 -0.5185  0.1009
 5599TIP3    H138288   5.674   3.638   5.083  1.2759  1.7792  0.8606
 5599TIP3    H238289   5.613   3.688   4.953 -0.2685  1.6074  1.5019
 5600TIP3   OH238290   2.266   4.960   0.788  0.3964 -0.0613 -0.1683
 5600TIP3    H138291   2.217   4.925   0.714  1.5890 -2.4237  0.0421
 5600TIP3    H238292   2.267   5.054   0.775 -1.1503 -0.2522 -2.0399
 5601TIP3   OH238293   1.933   0.564  16.907 -0.0353  0.4875  0.6240
 5601TIP3    H138294   1.952   0.544  16.999 -1.6257  0.8997  1.0848
 5601TIP3    H238295   1.906   0.656  16.908  1.2704  0.8991 -0.4917
 5602TIP3   OH238296   1.436   4.399   3.528  0.1257  0.1482  0.0377
 5602TIP3    H138297   1.494   4.384   3.453 -0.7802  2.1083 -1.1564
 5602TIP3    H238298   1.495   4.410   3.603  1.0876 -1.1939 -0.4825
 5603TIP3   OH238299   2.453   4.036   3.052 -0.0739 -0.4355  0.2466
 5603TIP3    H138300   2.392   3.983   3.001 -1.5851 -0.4630  2.0059
 5603TIP3    H238301   2.537   4.027   3.006 -0.9512 -1.9420 -1.1464
 5604TIP3   OH238302   0.741   1.508   3.420  0.4889 -0.3694 -0.3696
 5604TIP3    H138303   0.652   1.543   3.422  0.3145 -0.8198  0.1051
 5604TIP3    H238304   0.792   1.574   3.372  0.1438  0.4674  0.3818
 5605TIP3   OH238305   3.491   0.511   0.840 -0.4505  0.0099 -0.2365
 5605TIP3    H138306   3.540   0.452   0.782 -1.2845  0.0284 -0.9717
 5605TIP3    H238307   3.406   0.521   0.798  0.4605  3.8127 -1.6091
 5606TIP3   OH238308   0.464   5.393  14.439 -0.0275 -0.5020  0.2464
 5606TIP3    H138309   0.523   5.365  14.369  0.3943  1.1391 -0.1114
 5606TIP3    H238310   0.378   5.400  14.398  0.1881  0.2994 -0.0877
 5607TIP3   OH238311   6.188   6.482   4.097 -0.1236  0.2825 -0.0743
 5607TIP3    H138312   6.152   6.422   4.163  0.1312 -0.0300 -0.2189
 5607TIP3    H238313   6.159   6.446   4.014  2.3636 -1.2864 -0.3611
 5608TIP3   OH238314   5.304   4.342   0.151  0.4550 -0.0715 -0.1711
 5608TIP3    H138315   5.326   4.277   0.217 -0.2616  0.7982  0.9573
 5608TIP3    H238316   5.319   4.426   0.194 -1.6166  0.5354 -0.5319
 5609TIP3   OH238317   0.240   2.965   6.510 -0.4336 -0.0888 -0.2730
 5609TIP3    H138318   0.265   3.057   6.501 -3.4197  0.7005 -1.7798
 5609TIP3    H238319   0.252   2.928   6.423 -0.7134 -0.7083 -0.0566
 5610TIP3   OH238320   4.775   6.106  13.869 -0.3112  0.2606  1.2857
 5610TIP3    H138321   4.769   6.010  13.872  1.1700  0.1371  0.9351
 5610TIP3    H238322   4.766   6.132  13.961  0.2565 -0.2942  1.5119
 5611TIP3   OH238323   0.894   1.792  15.749 -0.7349  0.0601 -0.3273
 5611TIP3    H138324   0.987   1.792  15.775 -0.7659  4.9164  0.7286
 5611TIP3    H238325   0.847   1.808  15.831 -2.3911 -0.6148 -1.1192
 5612TIP3   OH238326   4.330   1.977   2.801  0.1996  0.1001 -0.4271
 5612TIP3    H138327   4.356   2.053   2.748  0.9056  0.0255 -0.2004
 5612TIP3    H238328   4.337   1.903   2.741 -3.3399  0.4760 -1.5616
 5613TIP3   OH238329   5.345   6.165  16.721 -0.1451 -0.1748  0.3847
 5613TIP3    H138330   5.285   6.228  16.760 -3.8181 -1.7277 -2.1666
 5613TIP3    H238331   5.416   6.217  16.685  0.4222  1.7514  3.8702
 5614TIP3   OH238332   3.473   3.207  14.208  0.1899 -0.2434 -0.8629
 5614TIP3    H138333   3.388   3.205  14.164  0.5759  0.1456 -1.6485
 5614TIP3    H238334   3.508   3.294  14.190  1.8380 -1.2010 -2.6830
 5615TIP3   OH238335   5.783   3.352   1.519 -0.2130 -0.6854 -0.3693
 5615TIP3    H138336   5.790   3.369   1.613 -1.9425  1.0835 -0.5035
 5615TIP3    H238337   5.709   3.292   1.511  0.1330 -1.0934 -0.6076
 5616TIP3   OH238338   2.908   5.118  14.919  0.7506  0.2228  0.0915
 5616TIP3    H138339   2.939   5.066  14.994  1.2142  1.2394  0.6189
 5616TIP3    H238340   2.859   5.055  14.867  0.0912 -0.4299  1.4299
 5617TIP3   OH238341   1.555   1.825  11.985 -0.3987 -0.1326  0.6244
 5617TIP3    H138342   1.526   1.894  11.925  0.0665 -0.2469  0.2601
 5617TIP3    H238343   1.634   1.860  12.026  0.6429 -0.9674 -0.5887
 5618TIP3   OH238344   4.055   3.184  15.777 -0.9344 -0.3549 -0.1816
 5618TIP3    H138345   4.093   3.106  15.818 -0.3554 -0.3065 -0.6123
 5618TIP3    H238346   4.026   3.155  15.691 -3.5916 -0.8363  0.7812
 5619TIP3   OH238347   5.694   6.404  13.414 -0.1111  0.1865  0.3063
 5619TIP3    H138348   5.607   6.375  13.441 -0.2355  0.5271  0.2818
 5619TIP3    H238349   5.692   6.397  13.318 -0.2960  0.6917  0.2702
 5620TIP3   OH238350   6.746   3.169   3.741  0.6821  0.0518  0.6322
 5620TIP3    H138351   6.769   3.143   3.652  3.2783 -1.9595  1.7440
 5620TIP3    H238352   6.739   3.265   3.737  1.1545  0.0514 -1.6162
 5621TIP3   OH238353   4.785   3.178  13.837  0.5824  0.0448  0.2942
 5621TIP3    H138354   4.819   3.089  13.829  1.6442  0.4444  0.2141
 5621TIP3    H238355   4.821   3.210  13.919  1.2861  0.8465 -0.3121
 5622TIP3   OH238356   5.855   6.255   4.484 -0.3835  0.0124  0.0117
 5622TIP3    H138357   5.776   6.305   4.465 -0.8347  0.3343  2.4409
 5622TIP3    H238358   5.850   6.179   4.427 -1.3540  1.0808 -1.3830
 5623TIP3   OH238359   6.190   2.281  13.381  0.3791 -0.4414 -0.0773
 5623TIP3    H138360   6.149   2.340  13.318  0.4780 -0.7577 -0.4338
 5623TIP3    H238361   6.159   2.312  13.466 -0.8948 -0.8969 -0.3623
 5624TIP3   OH238362   6.123   5.361   3.943 -0.1242  0.4250 -0.1260
 5624TIP3    H138363   6.142   5.335   3.853  1.9961 -0.1615  0.4283
 5624TIP3    H238364   6.164   5.447   3.953  3.3222 -1.2084  1.3329
 5625TIP3   OH238365   1.718   1.561  14.367  0.2597  0.1769 -0.2978
 5625TIP3    H138366   1.632   1.579  14.405  1.0064 -0.5329  1.8991
 5625TIP3    H238367   1.754   1.647  14.344 -1.1518  0.4490 -1.6314
 5626TIP3   OH238368   5.106   1.903   4.179  0.2670 -0.0730 -0.1865
 5626TIP3    H138369   5.089   1.872   4.090  0.8359  0.2761 -0.4194
 5626TIP3    H238370   5.062   1.988   4.183 -1.1291 -0.7857  0.3906
 5627TIP3   OH238371   5.918   6.748   3.752  0.0123  0.1860 -0.5605
 5627TIP3    H138372   5.983   6.817   3.763 -0.7736  0.9590 -0.5922
 5627TIP3    H238373   5.871   6.746   3.836  0.5685 -0.9003 -0.2574
 5628TIP3   OH238374   3.967   2.952  12.661  0.3557  0.4426 -0.4269
 5628TIP3    H138375   3.997   2.904  12.584  1.4954  0.0026  0.2745
 5628TIP3    H238376   3.910   2.889  12.707  0.5729  0.3096 -0.3358
 5629TIP3   OH238377   4.960   0.607  10.995  0.6680 -0.0739 -0.1900
 5629TIP3    H138378   4.963   0.700  10.973 -1.0854  0.5958  2.0590
 5629TIP3    H238379   4.956   0.563  10.910 -2.0224  2.0950 -1.3352
 5630TIP3   OH238380   4.979   2.703  16.750 -0.0528  0.4781 -0.1347
 5630TIP3    H138381   5.031   2.708  16.831  1.6325  3.0941 -1.2343
 5630TIP3    H238382   4.904   2.761  16.766  1.5471  3.0271 -1.1219
 5631TIP3   OH238383   6.581   3.194   4.729  0.4363  0.1169 -0.2529
 5631TIP3    H138384   6.496   3.211   4.687 -0.6106 -4.0296 -0.3231
 5631TIP3    H238385   6.562   3.195   4.822  0.6182  0.3889 -0.2178
 5632TIP3   OH238386   5.327   3.472  14.298 -0.0730  0.3965 -0.4059
 5632TIP3    H138387   5.331   3.408  14.369 -0.5315  1.1726  0.3355
 5632TIP3    H238388   5.314   3.556  14.342 -2.6863  0.6540 -1.4831
 5633TIP3   OH238389   2.690   6.181  16.305  0.1208 -0.3031 -0.0044
 5633TIP3    H138390   2.773   6.203  16.262 -0.0676 -0.5229 -0.4977
 5633TIP3    H238391   2.669   6.094  16.271 -0.2130 -0.3296  0.2686
 5634TIP3   OH238392   6.443   6.541  12.383  0.6184 -0.3153 -0.3202
 5634TIP3    H138393   6.379   6.476  12.412  0.1372 -0.4661 -1.6343
 5634TIP3    H238394   6.468   6.512  12.295  1.6926  0.3411 -0.2511
 5635TIP3   OH238395   1.263   3.783   6.004 -0.1549 -0.1382 -0.5795
 5635TIP3    H138396   1.191   3.748   6.056 -2.5748  1.0271 -2.9179
 5635TIP3    H238397   1.229   3.865   5.968  2.6044  0.7972 -1.2954
 5636TIP3   OH238398   2.756   0.398   0.333  0.0483  0.2856  0.1044
 5636TIP3    H138399   2.749   0.335   0.405 -1.1047 -0.2822 -0.4958
 5636TIP3    H238400   2.767   0.483   0.377 -0.2589 -0.1017  0.9452
 5637TIP3   OH238401   4.712   6.468   3.531 -0.6021  0.1716 -0.2538
 5637TIP3    H138402   4.680   6.558   3.541 -0.4888  0.0997  0.9550
 5637TIP3    H238403   4.692   6.426   3.615  0.6061 -0.5238 -0.2830
 5638TIP3   OH238404   2.519   2.767  12.255  0.6263  0.4697 -0.1674
 5638TIP3    H138405   2.514   2.706  12.182  1.0538  1.5958 -1.1698
 5638TIP3    H238406   2.448   2.829  12.240  1.1633  1.1290 -0.0262
 5639TIP3   OH238407   6.509   4.635  14.776  0.5723 -0.3796 -0.0921
 5639TIP3    H138408   6.580   4.628  14.713  0.7829  0.7770  0.0015
 5639TIP3    H238409   6.539   4.585  14.852  1.7853  1.0205  0.3840
 5640TIP3   OH238410   0.360   3.565   0.951 -0.1839  0.0522 -0.2025
 5640TIP3    H138411   0.300   3.490   0.958  1.9305 -1.6626  0.7932
 5640TIP3    H238412   0.358   3.588   0.859 -2.1700 -0.0814 -0.2432
 5641TIP3   OH238413   6.787   4.683   0.695  0.1769  0.1874  0.5568
 5641TIP3    H138414   6.753   4.735   0.622 -0.1024 -1.0113 -0.2007
 5641TIP3    H238415   6.772   4.737   0.772  0.6209  1.5567 -0.2828
 5642TIP3   OH238416   3.175   3.808  15.470 -0.1133  0.0723 -0.2219
 5642TIP3    H138417   3.130   3.752  15.533  1.3915 -2.1589 -0.9899
 5642TIP3    H238418   3.143   3.777  15.385  2.0105 -0.8688 -0.7332
 5643TIP3   OH238419   3.544   2.941   0.070 -0.1883 -0.6224 -0.0800
 5643TIP3    H138420   3.639   2.946   0.067 -0.2556  0.6480 -0.6937
 5643TIP3    H238421   3.525   2.847   0.069  1.0692 -0.9222  1.1275
 5644TIP3   OH238422   3.072   6.574  16.842 -0.0239 -0.2560 -0.3871
 5644TIP3    H138423   3.053   6.529  16.924 -0.3858 -0.7276 -0.7236
 5644TIP3    H238424   3.106   6.660  16.869 -1.4046  0.1125  0.2490
 5645TIP3   OH238425   6.679   3.199   6.746  0.2715 -0.2007  0.8303
 5645TIP3    H138426   6.651   3.260   6.815  0.6166  1.5465 -0.4880
 5645TIP3    H238427   6.774   3.204   6.746  0.2807 -0.3016  0.3364
 5646TIP3   OH238428   5.640   1.479  10.864 -0.1340 -0.4483  0.3745
 5646TIP3    H138429   5.609   1.542  10.929  0.2571 -0.3530  0.4692
 5646TIP3    H238430   5.569   1.416  10.856 -0.2820 -0.3242  0.7155
 5647TIP3   OH238431   5.864   4.712  16.444  0.5011  0.6204 -0.0298
 5647TIP3    H138432   5.957   4.694  16.459  0.3672 -0.7094 -0.6756
 5647TIP3    H238433   5.859   4.807  16.433  2.1632  0.5099 -2.3664
 5648TIP3   OH238434   5.097   6.790   6.282 -0.4794 -0.5312  0.1390
 5648TIP3    H138435   5.045   6.832   6.351 -1.1969 -2.5466  0.8851
 5648TIP3    H238436   5.042   6.719   6.250  0.6181 -0.8109 -1.2136
 5649TIP3   OH238437   2.907   6.305  15.667  0.0647  0.2961 -0.1790
 5649TIP3    H138438   2.890   6.342  15.581 -0.1788 -1.9879 -1.2100
 5649TIP3    H238439   2.964   6.230  15.649  2.9187  1.7287  2.0635
 5650TIP3   OH238440   6.273   6.563   5.864  0.3873  0.1510  0.2742
 5650TIP3    H138441   6.192   6.588   5.819  1.7068  1.9278 -1.2841
 5650TIP3    H238442   6.245   6.500   5.930 -1.9657 -1.0787 -1.7055
 5651TIP3   OH238443   0.256   3.943  16.801 -0.7485 -0.0816 -0.0470
 5651TIP3    H138444   0.168   3.955  16.839 -1.0792 -1.1327 -0.4537
 5651TIP3    H238445   0.299   4.027  16.816 -1.6448  0.2859  0.6280
 5652TIP3   OH238446   3.192   3.271   0.298  0.1662 -0.0512 -0.2688
 5652TIP3    H138447   3.247   3.195   0.281  0.7951  0.7902 -2.4041
 5652TIP3    H238448   3.227   3.308   0.379  0.5578 -1.4007  0.2051
 5653TIP3   OH238449   0.196   3.720   5.128 -0.5308  0.7291  1.0602
 5653TIP3    H138450   0.107   3.744   5.101 -0.9680 -1.5125  0.2835
 5653TIP3    H238451   0.186   3.692   5.219 -0.8666 -0.5223  0.6611
 5654TIP3   OH238452   5.000   0.378   0.547 -0.1966  0.6429  0.6173
 5654TIP3    H138453   5.054   0.454   0.526 -0.1670  0.4591  0.0146
 5654TIP3    H238454   5.056   0.303   0.529 -1.2128  0.3798 -1.8027
 5655TIP3   OH238455   0.903   3.657   5.824 -0.9200 -0.2096  0.0469
 5655TIP3    H138456   0.852   3.631   5.747  0.7408  0.7462 -1.4495
 5655TIP3    H238457   0.988   3.684   5.789  0.9297 -2.3777  2.4780
 5656TIP3   OH238458   0.394   1.054  10.778  0.5868 -0.4421  0.5678
 5656TIP3    H138459   0.404   1.048  10.683  2.9969  1.3451  0.6202
 5656TIP3    H238460   0.368   0.966  10.804  1.5137 -1.4477 -1.5861
 5657TIP3   OH238461   6.098   5.612  16.771 -0.2401  0.0511  0.1170
 5657TIP3    H138462   6.118   5.547  16.839  1.9836  0.5790  0.0588
 5657TIP3    H238463   6.004   5.627  16.779 -0.0613  0.2310  3.2032
 5658TIP3   OH238464   4.544   3.160   0.136  0.5431 -0.2381  0.4158
 5658TIP3    H138465   4.589   3.185   0.217  0.1128  0.8171  0.3542
 5658TIP3    H238466   4.552   3.238   0.080 -0.4860 -0.4035  0.0299
 5659TIP3   OH238467   2.307   3.271  11.205 -0.0740 -0.5769 -0.2927
 5659TIP3    H138468   2.298   3.198  11.266  0.1333 -2.3232 -2.2228
 5659TIP3    H238469   2.254   3.246  11.129  0.6887  0.8896 -1.3718
 5660TIP3   OH238470   0.639   1.100  16.794 -0.2730 -0.4042  0.1815
 5660TIP3    H138471   0.602   1.027  16.745  1.0596 -0.5703 -0.6133
 5660TIP3    H238472   0.667   1.163  16.727  1.2280 -0.4615  0.7186
 5661TIP3   OH238473   4.367   1.108  12.230  0.0777  0.7070 -0.0629
 5661TIP3    H138474   4.284   1.105  12.278 -0.7105  1.3197 -1.3045
 5661TIP3    H238475   4.377   1.021  12.193  0.9978  0.0516  1.6659
 5662TIP3   OH238476   4.807   4.238   2.731  0.0530 -0.5945  0.4630
 5662TIP3    H138477   4.800   4.292   2.652 -1.3055 -0.4759  0.6390
 5662TIP3    H238478   4.898   4.210   2.733  0.0347 -0.8888 -1.3355
 5663TIP3   OH238479   0.905   2.521  15.880  0.2668  0.2258  0.3678
 5663TIP3    H138480   0.916   2.458  15.809 -0.6348 -0.3099  0.6816
 5663TIP3    H238481   0.934   2.474  15.958 -1.3402 -0.1893  0.7574
 5664TIP3   OH238482   3.803   6.548   4.654  0.5150  0.1819  0.2360
 5664TIP3    H138483   3.709   6.537   4.662  0.3886  1.2650  0.3922
 5664TIP3    H238484   3.840   6.468   4.692 -0.3224  0.1721  1.0798
 5665TIP3   OH238485   0.255   0.702  14.490  0.1414 -0.6190  0.2445
 5665TIP3    H138486   0.246   0.653  14.408 -0.5545  0.1121 -0.1446
 5665TIP3    H238487   0.307   0.779  14.466  2.6931 -1.9445  1.2222
 5666TIP3   OH238488   3.036   3.443   0.626 -0.9280  0.3961  0.2997
 5666TIP3    H138489   3.119   3.416   0.665 -0.2241  0.2625 -1.2514
 5666TIP3    H238490   2.997   3.501   0.692 -0.4862 -0.9853  1.8517
 5667TIP3   OH238491   1.674   2.339   3.466  0.0455 -0.2512 -0.3338
 5667TIP3    H138492   1.591   2.376   3.496  1.1550  1.3700  0.9217
 5667TIP3    H238493   1.682   2.257   3.515  0.0802  0.5625  1.1039
 5668TIP3   OH238494   1.091   5.860   0.220  0.1751  0.2686 -0.1500
 5668TIP3    H138495   1.094   5.921   0.146 -0.4453  0.4401 -0.0325
 5668TIP3    H238496   1.023   5.894   0.277  0.0494 -0.3526  0.0808
 5669TIP3   OH238497   5.360   0.593  11.973 -0.3990 -0.0312  0.6859
 5669TIP3    H138498   5.326   0.590  11.883  2.0139  2.3525 -0.4339
 5669TIP3    H238499   5.454   0.607  11.963  0.0961 -0.5982  3.6389
 5670TIP3   OH238500   4.332   3.958  17.012 -1.1356 -0.1669 -0.5066
 5670TIP3    H138501   4.329   4.047  17.049 -0.5877  0.1613 -1.2182
 5670TIP3    H238502   4.288   3.966  16.927 -0.8547 -0.5084 -0.6872
 5671TIP3   OH238503   0.017   4.246  13.040 -0.5258  0.4676  0.7928
 5671TIP3    H138504   0.038   4.266  12.949 -0.5985  1.2051  0.9291
 5671TIP3    H238505  -0.063   4.294  13.058  0.7561  2.3287  1.9309
 5672TIP3   OH238506   6.372   4.964  13.739  0.1393  0.3507  0.5344
 5672TIP3    H138507   6.380   5.058  13.723  0.4785  0.8176  3.1570
 5672TIP3    H238508   6.284   4.952  13.774  0.3149 -0.2176  0.8080
 5673TIP3   OH238509   4.670   0.305  12.970 -0.0357 -0.3684 -0.4000
 5673TIP3    H138510   4.590   0.316  12.919  1.1166  0.8711 -2.0706
 5673TIP3    H238511   4.740   0.310  12.905  1.5597  1.7255  1.3404
 5674TIP3   OH238512   6.348   3.857   0.705 -0.0656  0.4897  0.2088
 5674TIP3    H138513   6.386   3.944   0.720 -1.3742  1.4357 -1.5913
 5674TIP3    H238514   6.377   3.833   0.617 -1.4367  0.0550 -0.1419
 5675TIP3   OH238515   3.906   4.994  16.544  0.1637 -0.2044 -0.3938
 5675TIP3    H138516   3.989   5.037  16.526  0.0702  0.6254  0.9495
 5675TIP3    H238517   3.840   5.057  16.515 -0.0366 -1.2325 -2.2844
 5676TIP3   OH238518   2.617   3.052   2.652 -0.0651  0.3517  0.1055
 5676TIP3    H138519   2.660   2.991   2.592  1.3802  1.2865  0.1681
 5676TIP3    H238520   2.576   3.117   2.594 -0.5973  0.0052  0.0811
 5677TIP3   OH238521   5.778   0.082   1.832  0.2337 -0.1755  0.4800
 5677TIP3    H138522   5.751   0.161   1.786 -1.4495 -1.0465 -0.1074
 5677TIP3    H238523   5.825   0.030   1.766  0.7655  0.0328  0.6872
 5678TIP3   OH238524   0.542   3.593   5.105 -0.2987 -0.1647  0.1556
 5678TIP3    H138525   0.613   3.609   5.043  1.4888 -0.2677  2.0753
 5678TIP3    H238526   0.476   3.545   5.054  0.6068  0.6530 -1.9017
 5679TIP3   OH238527   4.745   0.891  12.854  0.2522  0.4437  0.2470
 5679TIP3    H138528   4.731   0.927  12.766  2.0360  0.0851 -0.2282
 5679TIP3    H238529   4.742   0.797  12.842 -1.4650  0.3625  0.9688
 5680TIP3   OH238530   4.878   2.917  16.347  0.1783 -0.2979 -0.4335
 5680TIP3    H138531   4.909   2.954  16.265  0.4679  0.4104 -0.0202
 5680TIP3    H238532   4.955   2.876  16.386 -0.0118 -0.8380 -0.6216
 5681TIP3   OH238533   3.688   2.084   5.478  0.7244 -0.0196  0.3425
 5681TIP3    H138534   3.696   2.126   5.564 -1.2554 -0.3629  0.7502
 5681TIP3    H238535   3.670   1.992   5.499 -0.8414  0.0935 -0.3851
 5682TIP3   OH238536   3.892   0.762   0.560 -0.3155  0.0998  0.2475
 5682TIP3    H138537   3.853   0.789   0.643 -1.0595  1.0697 -0.3932
 5682TIP3    H238538   3.841   0.808   0.493  0.6643 -0.1733 -0.7235
 5683TIP3   OH238539   1.308   0.209  11.321  0.8230  0.4071 -0.4127
 5683TIP3    H138540   1.239   0.205  11.254  0.9312 -1.5353 -0.4638
 5683TIP3    H238541   1.264   0.189  11.403  0.7987  2.2112  0.0415
 5684TIP3   OH238542   0.126   4.103   3.102  0.2249 -0.9713 -0.5009
 5684TIP3    H138543   0.153   4.013   3.117 -0.9062 -1.3509 -0.6496
 5684TIP3    H238544   0.063   4.121   3.172  0.0562 -0.4787 -0.7723
 5685TIP3   OH238545   1.721   6.339  13.681 -0.0098 -0.4020  0.2572
 5685TIP3    H138546   1.732   6.414  13.738  0.3952 -1.1019  1.1295
 5685TIP3    H238547   1.786   6.351  13.612 -1.1873  0.9691 -0.6553
 5686TIP3   OH238548   1.625   1.535   6.142 -0.1268 -0.7023 -0.5848
 5686TIP3    H138549   1.607   1.584   6.222 -0.3496 -1.7685  0.0407
 5686TIP3    H238550   1.539   1.520   6.103 -0.0141 -0.1230 -1.0843
 5687TIP3   OH238551   0.119   6.142   1.022 -0.4831  0.0601  0.1382
 5687TIP3    H138552   0.188   6.190   0.977  0.0082 -0.2527  0.5430
 5687TIP3    H238553   0.040   6.192   1.006 -0.7881 -1.1847 -2.9664
 5688TIP3   OH238554   3.315   2.149   2.292  0.3964 -0.4795  0.1457
 5688TIP3    H138555   3.295   2.169   2.383  1.5370  0.4723  0.2084
 5688TIP3    H238556   3.332   2.055   2.291  0.0512 -0.5519  0.8438
 5689TIP3   OH238557   1.200   2.830   2.737 -0.4374  0.0132  0.1322
 5689TIP3    H138558   1.132   2.815   2.672 -1.4687  1.3526  0.8529
 5689TIP3    H238559   1.172   2.909   2.784  0.1850 -0.9941  2.3274
 5690TIP3   OH238560   3.967   1.494   5.535 -0.0750 -0.1433  0.2417
 5690TIP3    H138561   3.913   1.421   5.503 -1.2620  0.2038  1.3664
 5690TIP3    H238562   4.055   1.473   5.505 -0.8166 -0.7303 -1.6817
 5691TIP3   OH238563   3.919   0.616  17.153 -0.5846  0.1104  0.1667
 5691TIP3    H138564   4.011   0.633  17.176 -0.7329  0.6784  0.3470
 5691TIP3    H238565   3.912   0.646  17.062  0.3605 -3.3894 -1.2641
 5692TIP3   OH238566   4.003   0.159   6.322  0.4193  0.2317  0.6859
 5692TIP3    H138567   4.013   0.127   6.232  0.4364 -0.5229  0.9543
 5692TIP3    H238568   3.909   0.163   6.335  0.4153  0.4504  0.6006
 5693TIP3   OH238569   0.169   6.656   2.288 -0.2976 -0.4734 -0.0908
 5693TIP3    H138570   0.102   6.631   2.225 -1.0483 -3.0313  1.5689
 5693TIP3    H238571   0.149   6.604   2.366  0.0899  3.0730  2.6328
 5694TIP3   OH238572   5.266   6.534   1.513 -0.0393 -0.4542  0.3449
 5694TIP3    H138573   5.305   6.525   1.426  1.0679 -1.1915  0.9123
 5694TIP3    H238574   5.238   6.626   1.516 -1.5424 -0.7881 -1.3633
 5695TIP3   OH238575   6.602   6.701   5.173  0.6029  0.1588  0.7032
 5695TIP3    H138576   6.658   6.631   5.206 -1.7367 -1.1574  2.1268
 5695TIP3    H238577   6.560   6.663   5.095 -0.9601 -0.2468  1.6961
 5696TIP3   OH238578   6.578   4.110   5.092  0.3937  0.2681  0.2017
 5696TIP3    H138579   6.534   4.062   5.023  0.6193  2.0377 -1.2669
 5696TIP3    H238580   6.522   4.099   5.169 -2.1095  1.5529 -1.2994
 5697TIP3   OH238581   3.081   4.132   6.308  0.1148  0.6159  0.0852
 5697TIP3    H138582   3.114   4.182   6.382  0.1606 -0.6042  0.9255
 5697TIP3    H238583   3.029   4.062   6.348 -1.0711  0.7749 -1.0975
 5698TIP3   OH238584   3.125   2.824   2.799  0.1563  0.1437  0.1479
 5698TIP3    H138585   3.163   2.751   2.751  0.2973 -0.3802  1.0315
 5698TIP3    H238586   3.099   2.787   2.883  0.4040  1.1400  0.6865
 5699TIP3   OH238587   2.615   1.217  13.467 -0.1765  0.0427 -0.1981
 5699TIP3    H138588   2.530   1.256  13.446  0.0730  1.4928  1.2794
 5699TIP3    H238589   2.601   1.169  13.548  0.8285  2.1959  1.3651
 5700TIP3   OH238590   3.148   5.573  11.795 -0.0669 -0.0447  0.9604
 5700TIP3    H138591   3.085   5.545  11.862 -0.1027 -2.7780 -0.0654
 5700TIP3    H238592   3.232   5.575  11.840  0.0132 -2.4606  1.0564
 5701TIP3   OH238593   2.563   0.628   2.764 -0.3241  0.3277 -0.6355
 5701TIP3    H138594   2.655   0.601   2.760 -0.7777 -1.5186  0.2149
 5701TIP3    H238595   2.535   0.630   2.673  0.3639  0.1781 -0.8586
 5702TIP3   OH238596   5.828   6.225  16.316  0.2008 -0.4856 -0.1217
 5702TIP3    H138597   5.882   6.166  16.368  1.5016  1.0564  0.3789
 5702TIP3    H238598   5.873   6.230  16.231 -0.1023 -0.5024 -0.2848
 5703TIP3   OH238599   4.565   3.441   6.416  0.2508 -0.2043  0.0908
 5703TIP3    H138600   4.652   3.440   6.456  0.9629  0.3240 -1.3660
 5703TIP3    H238601   4.507   3.403   6.482  1.2233  1.2948  1.8906
 5704TIP3   OH238602   5.573   0.323  14.500 -0.1957  0.0710  0.2348
 5704TIP3    H138603   5.554   0.310  14.593  1.1158 -0.9233  0.3859
 5704TIP3    H238604   5.575   0.418  14.489  0.6185  0.2156  1.4378
 5705TIP3   OH238605   2.892   0.616  16.357  0.2202 -0.6488 -0.2305
 5705TIP3    H138606   2.836   0.558  16.304 -1.4268 -1.0740  1.8174
 5705TIP3    H238607   2.845   0.700  16.359 -0.0943 -0.8204  0.9829
 5706TIP3   OH238608   0.830   1.371   5.274  0.2207  0.2293 -0.0033
 5706TIP3    H138609   0.857   1.451   5.230  0.6827 -0.3769 -0.8571
 5706TIP3    H238610   0.822   1.306   5.204  1.3154 -0.8504  0.8068
 5707TIP3   OH238611   0.146   4.160   4.088 -0.9486 -0.0904  0.4661
 5707TIP3    H138612   0.102   4.194   4.011  1.0030  0.8256 -0.3058
 5707TIP3    H238613   0.150   4.065   4.073  0.3348  0.1688 -1.1271
 5708TIP3   OH238614   1.244   1.630  16.547  0.0867 -0.4869 -0.7878
 5708TIP3    H138615   1.248   1.681  16.628 -1.8473 -0.8923 -0.4074
 5708TIP3    H238616   1.304   1.556  16.562 -1.5655 -1.5261  1.0067
 5709TIP3   OH238617   2.690   3.585  13.756  0.2679  0.3049 -0.0876
 5709TIP3    H138618   2.643   3.613  13.677  0.5103  1.6453  0.2272
 5709TIP3    H238619   2.622   3.547  13.812 -0.3125  1.4921  0.0325
 5710TIP3   OH238620   5.014   5.911  15.483 -0.2967  0.4493  0.4712
 5710TIP3    H138621   5.083   5.978  15.484  0.7745 -0.5867 -0.1639
 5710TIP3    H238622   5.029   5.861  15.564  0.4865 -0.5049 -0.2356
 5711TIP3   OH238623   6.191   4.436  14.884  0.2626 -0.2636  0.3099
 5711TIP3    H138624   6.213   4.520  14.844  0.6797  0.2182  1.5179
 5711TIP3    H238625   6.171   4.379  14.810 -1.9079  1.4069 -0.5052
 5712TIP3   OH238626   2.739   0.592  15.520 -0.0631 -0.0851 -0.1549
 5712TIP3    H138627   2.713   0.622  15.607 -0.9707  1.1020 -0.7968
 5712TIP3    H238628   2.825   0.630  15.506 -0.5953  1.0529 -0.3921
 5713TIP3   OH238629   5.831   2.472   1.069  0.1884  0.1719 -0.1673
 5713TIP3    H138630   5.874   2.556   1.089  1.0662 -0.0004 -1.2585
 5713TIP3    H238631   5.798   2.483   0.980  0.4921 -0.7133 -0.3920
 5714TIP3   OH238632   1.930   1.894   4.471  0.1344  0.0409  0.1828
 5714TIP3    H138633   1.952   1.893   4.378 -0.8273 -1.7057 -0.0671
 5714TIP3    H238634   1.835   1.907   4.474 -0.0431 -1.2194  0.8404
 5715TIP3   OH238635   3.345   1.526   4.729 -0.1559  0.4208  0.4910
 5715TIP3    H138636   3.379   1.610   4.759  0.7603  1.0085 -1.9907
 5715TIP3    H238637   3.406   1.462   4.765  0.0222  0.9401  1.1374
 5716TIP3   OH238638   5.141   5.717   0.293  0.4369 -0.3226 -0.2908
 5716TIP3    H138639   5.194   5.664   0.352  0.9645  1.8035  1.2759
 5716TIP3    H238640   5.199   5.740   0.221  0.8873 -0.0219  0.1676
 5717TIP3   OH238641   0.319   0.346  12.118  0.1111  0.6084 -0.6371
 5717TIP3    H138642   0.402   0.322  12.160 -0.5361  0.2374  0.4657
 5717TIP3    H238643   0.345   0.378  12.031  1.2506 -1.4904 -1.1554
 5718TIP3   OH238644   4.564   3.584  16.755 -0.3587  0.2154  0.6419
 5718TIP3    H138645   4.523   3.667  16.781  0.3521  0.1149  2.2575
 5718TIP3    H238646   4.637   3.574  16.816  1.1007 -0.3976 -1.1135
 5719TIP3   OH238647   0.871   3.973  14.128 -0.0242 -0.1098  0.4928
 5719TIP3    H138648   0.893   3.985  14.036 -2.2219 -1.3849 -0.2723
 5719TIP3    H238649   0.777   3.989  14.133  0.3846  2.2562  3.0095
 5720TIP3   OH238650   6.432   1.854   2.169  0.0060 -0.5134 -0.1987
 5720TIP3    H138651   6.412   1.825   2.258 -2.5947  0.0759 -0.5059
 5720TIP3    H238652   6.524   1.882   2.173 -0.4004  0.7438  2.6474
 5721TIP3   OH238653   1.191   5.875   5.506 -0.3138 -0.1349 -0.0319
 5721TIP3    H138654   1.175   5.793   5.460  1.8049 -0.4676 -0.2720
 5721TIP3    H238655   1.280   5.867   5.540 -0.0201  2.0608 -0.1143
 5722TIP3   OH238656   5.357   4.222  14.903 -0.1895 -0.2600  0.1392
 5722TIP3    H138657   5.347   4.135  14.866 -0.1773  0.5922 -2.0753
 5722TIP3    H238658   5.302   4.222  14.981 -0.8326 -1.9865 -0.2743
 5723TIP3   OH238659   3.917   1.886   2.658 -0.9338 -0.2631 -0.5095
 5723TIP3    H138660   3.868   1.961   2.624 -0.1709  1.0870  1.2208
 5723TIP3    H238661   3.913   1.896   2.753  0.1980 -1.7766 -0.2689
 5724TIP3   OH238662   4.573   5.415   4.967  0.2388 -0.1610  0.1515
 5724TIP3    H138663   4.536   5.396   4.881  2.1270  3.3438 -1.6952
 5724TIP3    H238664   4.502   5.459   5.015  0.3654  1.9422 -1.4375
 5725TIP3   OH238665   0.916   5.408   5.094  0.3856  0.2226 -0.2057
 5725TIP3    H138666   0.936   5.316   5.111 -0.0688 -0.2772 -2.1169
 5725TIP3    H238667   0.997   5.454   5.115  0.5461 -0.5636  0.9982
 5726TIP3   OH238668   6.608   1.319   0.237 -0.4478 -0.9653  0.1372
 5726TIP3    H138669   6.676   1.367   0.189  0.9973 -1.4317  1.6230
 5726TIP3    H238670   6.526   1.345   0.195  0.6098 -0.0735 -1.4644
 5727TIP3   OH238671   0.737   3.750   3.327 -0.3434 -0.1641  0.5684
 5727TIP3    H138672   0.741   3.724   3.418  2.3551  1.7038  1.1253
 5727TIP3    H238673   0.791   3.686   3.281  0.4707  0.3418  0.7810
 5728TIP3   OH238674   3.342   0.378  14.551  0.6830  0.3046  0.9550
 5728TIP3    H138675   3.369   0.352  14.463 -0.6468 -0.6137  0.7851
 5728TIP3    H238676   3.374   0.468  14.561 -0.6582  1.0705 -1.1469
 5729TIP3   OH238677   2.499   3.623  16.997  0.2568 -0.1717 -0.0139
 5729TIP3    H138678   2.463   3.707  17.026 -0.2289 -0.2590 -0.3421
 5729TIP3    H238679   2.428   3.583  16.946  1.7005  0.9098 -3.1564
 5730TIP3   OH238680   1.672   5.974   0.231 -0.1684  0.9199  0.2281
 5730TIP3    H138681   1.636   5.905   0.286 -1.6305  0.8952 -0.7074
 5730TIP3    H238682   1.752   5.937   0.193  1.0546  1.0524  2.5240
 5731TIP3   OH238683   2.868   0.078   0.125 -0.4954 -0.2092 -0.0637
 5731TIP3    H138684   2.860  -0.004   0.076 -0.2525  0.1190 -0.6561
 5731TIP3    H238685   2.803   0.071   0.194 -1.8721 -0.0391 -1.3093
 5732TIP3   OH238686   2.682   1.831   2.603  0.1475 -0.3597  0.0497
 5732TIP3    H138687   2.647   1.913   2.638  2.8843 -0.0259  2.3718
 5732TIP3    H238688   2.640   1.763   2.656 -1.6285 -0.4997 -1.4420
 5733TIP3   OH238689   3.433   1.233   1.091 -0.6381 -0.0782 -0.2254
 5733TIP3    H138690   3.419   1.229   0.997 -2.2714  1.9713 -0.1430
 5733TIP3    H238691   3.520   1.271   1.100 -0.4713 -0.2843 -0.9017
 5734TIP3   OH238692   0.760   0.758   6.533 -0.0453 -0.7169 -0.6446
 5734TIP3    H138693   0.796   0.742   6.446  2.4482  1.2736 -0.0984
 5734TIP3    H238694   0.837   0.765   6.590 -1.2570  2.6315  0.8503
 5735TIP3   OH238695   5.030   5.556  12.357 -0.4784  0.3599  0.3015
 5735TIP3    H138696   5.123   5.548  12.377 -0.1852  2.5101 -0.0181
 5735TIP3    H238697   4.986   5.538  12.441  0.0647 -2.2045  0.1322
 5736TIP3   OH238698   4.350   5.028  14.424  0.1675 -0.2894 -0.4688
 5736TIP3    H138699   4.286   5.063  14.487  0.6667 -0.6648  0.2673
 5736TIP3    H238700   4.364   5.099  14.362  0.1134  0.3113  0.1924
 5737TIP3   OH238701   2.855   3.441   3.839 -0.3558 -0.0941  0.4516
 5737TIP3    H138702   2.835   3.454   3.932 -0.0732 -1.1451  0.6671
 5737TIP3    H238703   2.918   3.510   3.818  1.4478 -1.2868  1.6696
 5738TIP3   OH238704   4.306   3.866  13.554 -0.2873 -0.0060  0.4718
 5738TIP3    H138705   4.256   3.920  13.492 -0.9130 -0.9514  0.1301
 5738TIP3    H238706   4.397   3.877  13.528 -0.5329 -0.3023 -0.5547
 5739TIP3   OH238707   6.618   6.373  16.419  0.2117  0.2506  0.6219
 5739TIP3    H138708   6.584   6.462  16.408 -2.5980 -0.5654  1.8432
 5739TIP3    H238709   6.683   6.380  16.489 -0.6196  1.2102  1.3214
 5740TIP3   OH238710   6.538   2.188  15.784 -0.6377  0.4852  0.3290
 5740TIP3    H138711   6.511   2.273  15.818  1.7121  1.4260  0.0379
 5740TIP3    H238712   6.500   2.184  15.697 -0.2645  1.5446  0.0966
 5741TIP3   OH238713   5.047   5.980   1.095 -0.8005 -0.3228  0.1644
 5741TIP3    H138714   4.979   6.046   1.107  0.6146  1.2864 -0.1739
 5741TIP3    H238715   5.114   6.024   1.042  1.1200 -1.3493  1.6118
 5742TIP3   OH238716   5.624   4.146   5.402  0.1058  0.9656 -0.3416
 5742TIP3    H138717   5.623   4.074   5.339 -1.3253 -0.4459  1.1999
 5742TIP3    H238718   5.546   4.198   5.380 -0.1159  0.7573 -0.0481
 5743TIP3   OH238719   0.547   6.093  14.839 -0.0873  0.6042 -0.5566
 5743TIP3    H138720   0.578   6.140  14.916 -0.5813  1.1258 -0.6682
 5743TIP3    H238721   0.452   6.091  14.848 -0.0106 -1.9629  0.3383
 5744TIP3   OH238722   5.716   0.833  12.476 -0.0213 -0.0337 -0.5712
 5744TIP3    H138723   5.697   0.911  12.423 -0.7794 -0.9143 -1.6376
 5744TIP3    H238724   5.634   0.812  12.519  0.1917 -0.2240 -0.2549
 5745TIP3   OH238725   6.226   5.028  12.874  0.0850  0.2292 -0.0163
 5745TIP3    H138726   6.204   4.944  12.913  0.3479 -0.8939 -2.1234
 5745TIP3    H238727   6.143   5.062  12.840  0.4333 -0.8192 -2.0743
 5746TIP3   OH238728   0.629   3.869   3.986  0.6931 -0.6131  0.8328
 5746TIP3    H138729   0.625   3.912   4.072  1.2300 -0.9035  1.0091
 5746TIP3    H238730   0.539   3.847   3.965  0.4445  0.3086  0.8917
 5747TIP3   OH238731   4.171   2.265   1.680  0.3766 -0.0892 -0.1763
 5747TIP3    H138732   4.120   2.215   1.745  0.3167 -0.6080 -0.6174
 5747TIP3    H238733   4.240   2.306   1.731 -0.0910  0.0823  0.3313
 5748TIP3   OH238734   5.463   6.739  15.296 -0.6631  0.1248  0.3430
 5748TIP3    H138735   5.453   6.646  15.314  0.8111  0.0486  0.9194
 5748TIP3    H238736   5.411   6.783  15.363  0.9100 -0.2607  1.8969
 5749TIP3   OH238737   3.392   1.639  13.849 -0.5887 -0.4138 -0.0395
 5749TIP3    H138738   3.458   1.569  13.850 -0.3544 -0.1915  0.9664
 5749TIP3    H238739   3.311   1.595  13.875 -0.9345 -0.7517 -1.5751
 5750TIP3   OH238740   0.679   2.098  10.896 -0.5664 -0.0789 -1.1502
 5750TIP3    H138741   0.630   2.167  10.940  0.1674 -0.5450  0.4917
 5750TIP3    H238742   0.636   2.017  10.924  1.9262 -0.6209  1.6228
 5751TIP3   OH238743   0.483   2.900  14.003  0.0690  0.1403  0.1536
 5751TIP3    H138744   0.425   2.975  14.015  0.7532  0.2981  3.4349
 5751TIP3    H238745   0.426   2.831  13.971 -0.9802  1.4868 -1.0210
 5752TIP3   OH238746   1.844   3.427  16.089  0.1825  0.3943  0.4585
 5752TIP3    H138747   1.800   3.485  16.152 -1.3952  0.2077 -0.4234
 5752TIP3    H238748   1.827   3.467  16.004 -0.5810 -1.1291 -0.1338
 5753TIP3   OH238749   6.017   0.573  15.897 -0.7400 -0.3703  0.7207
 5753TIP3    H138750   6.040   0.640  15.961  0.2395  1.4358 -1.4182
 5753TIP3    H238751   5.921   0.569  15.900 -0.7059 -0.5359  2.4535
 5754TIP3   OH238752   2.927   5.469   2.006 -0.5485 -0.0713 -0.0187
 5754TIP3    H138753   2.879   5.433   2.081  0.3605 -0.2633  0.4823
 5754TIP3    H238754   2.880   5.550   1.985 -1.1744 -0.3219  0.3771
 5755TIP3   OH238755   5.058   3.742  14.942  0.5995  0.7585  0.2658
 5755TIP3    H138756   4.966   3.718  14.951  0.0713  2.6207  0.1008
 5755TIP3    H238757   5.101   3.694  15.013 -0.6162  0.4993  0.8622
 5756TIP3   OH238758   0.037   5.573   5.265 -0.5136 -0.2398 -0.2882
 5756TIP3    H138759   0.028   5.527   5.348 -1.9833 -0.3853 -0.4978
 5756TIP3    H238760  -0.002   5.515   5.201  0.2445  0.0470 -1.0260
 5757TIP3   OH238761   3.159   4.426  15.109  0.5429 -0.7210  0.5283
 5757TIP3    H138762   3.206   4.509  15.117 -1.3551  0.3054  1.6842
 5757TIP3    H238763   3.141   4.418  15.015  2.1189 -0.6672  0.1890
 5758TIP3   OH238764   2.685   6.072   5.072 -0.7684  0.2043  0.3443
 5758TIP3    H138765   2.626   6.033   5.137  0.8269 -0.7196  1.2814
 5758TIP3    H238766   2.763   6.017   5.074  0.4544  1.8340 -0.3256
 5759TIP3   OH238767   1.215   0.644  14.587  0.2916  0.6943 -0.0415
 5759TIP3    H138768   1.156   0.635  14.512  1.6094  1.5526 -1.2494
 5759TIP3    H238769   1.243   0.554  14.605  0.4412  0.5277 -1.0082
 5760TIP3   OH238770   2.119   2.631  15.694 -0.3171  0.2720 -0.1456
 5760TIP3    H138771   2.134   2.622  15.788  0.6506  0.9291 -0.2269
 5760TIP3    H238772   2.063   2.709  15.686  0.9601  1.2268 -0.1940
 5761TIP3   OH238773   5.817   1.057   0.364 -0.2442 -0.1525 -0.0613
 5761TIP3    H138774   5.773   1.062   0.449 -0.9850  2.3487 -0.5117
 5761TIP3    H238775   5.798   0.969   0.333  1.6154 -1.8796  3.0938
 5762TIP3   OH238776   2.136   4.428  14.339  0.3987  0.1986  0.8188
 5762TIP3    H138777   2.078   4.504  14.340 -0.0802 -0.1074 -0.9985
 5762TIP3    H238778   2.077   4.353  14.331  0.9677 -0.1956  0.2112
 5763TIP3   OH238779   0.362   3.939   5.196  0.1758  0.3627  0.3989
 5763TIP3    H138780   0.322   3.853   5.180 -3.0377  1.3854  2.0641
 5763TIP3    H238781   0.362   3.981   5.110  0.2118 -0.6601 -0.1270
 5764TIP3   OH238782   5.809   3.853  15.947  0.3074  0.0529 -0.0971
 5764TIP3    H138783   5.854   3.824  15.867  1.8482  2.1121 -0.0907
 5764TIP3    H238784   5.792   3.946  15.931 -5.0180 -0.7169 -0.4762
 5765TIP3   OH238785   3.458   4.108   3.154  0.0835 -0.2373  0.1261
 5765TIP3    H138786   3.503   4.135   3.074  0.5908  0.7326  0.7216
 5765TIP3    H238787   3.493   4.165   3.222 -1.1110 -0.3279  0.8508
 5766TIP3   OH238788   1.660   4.466  12.687 -0.4605 -0.5343 -0.4761
 5766TIP3    H138789   1.567   4.466  12.712 -0.2753 -0.9652  0.2432
 5766TIP3    H238790   1.672   4.384  12.640 -1.1499  0.9088 -3.4545
 5767TIP3   OH238791   4.407   3.487  14.411 -0.6572  0.0511 -0.6518
 5767TIP3    H138792   4.469   3.496  14.339 -0.4809 -0.1477 -0.5280
 5767TIP3    H238793   4.330   3.538  14.384 -0.9573 -0.7681 -1.3931
 5768TIP3   OH238794   2.042   5.854  14.716  0.0298  0.1823 -0.1888
 5768TIP3    H138795   2.062   5.947  14.724 -0.3863  0.1437  1.6836
 5768TIP3    H238796   2.101   5.811  14.778 -1.5764 -0.5151  0.9292
 5769TIP3   OH238797   5.891   1.056  16.127  0.3401 -0.3229 -0.4242
 5769TIP3    H138798   5.947   1.005  16.068  1.9152 -1.1993  1.6737
 5769TIP3    H238799   5.951   1.087  16.195 -0.4872  4.3930 -1.4640
 5770TIP3   OH238800   5.148   3.660   5.248  0.6774  0.2525  0.6938
 5770TIP3    H138801   5.196   3.644   5.166 -0.2671  1.6483 -0.1702
 5770TIP3    H238802   5.163   3.581   5.300  0.6025 -1.0361 -1.1549
 5771TIP3   OH238803   5.066   4.549   3.579 -0.4732 -0.4732  0.0356
 5771TIP3    H138804   5.143   4.531   3.632  1.2337 -0.1190 -2.2091
 5771TIP3    H238805   5.005   4.478   3.600  0.9755 -1.5109  0.8545
 5772TIP3   OH238806   6.114   3.660   6.370  0.7008  0.3255  0.1010
 5772TIP3    H138807   6.118   3.623   6.281  0.1011  1.7070 -0.5416
 5772TIP3    H238808   6.124   3.585   6.428 -0.7781 -0.8890 -1.1337
 5773TIP3   OH238809   1.712   4.734   1.286  0.1043  0.7115  0.5437
 5773TIP3    H138810   1.699   4.711   1.194  1.0306  0.1869  0.5396
 5773TIP3    H238811   1.661   4.670   1.334 -0.4709  1.0522  0.3993
 5774TIP3   OH238812   1.291   2.865   1.366  0.4752 -0.2719  0.2330
 5774TIP3    H138813   1.300   2.954   1.401  2.0527 -0.7474  1.1560
 5774TIP3    H238814   1.346   2.812   1.424 -0.4087 -1.8485 -0.3278
 5775TIP3   OH238815   4.541   5.620  13.773  0.4190  0.5994 -0.5131
 5775TIP3    H138816   4.620   5.659  13.812  0.9333 -0.1569 -0.7869
 5775TIP3    H238817   4.563   5.609  13.681 -0.2975  1.0929 -0.7507
 5776TIP3   OH238818   3.341   1.034  14.585  0.4617  0.3482  0.5704
 5776TIP3    H138819   3.252   1.043  14.549  0.1015  2.6827  1.8531
 5776TIP3    H238820   3.398   1.050  14.510 -0.2047  0.4834  0.0741
 5777TIP3   OH238821   4.167   6.603   4.897  0.9519 -0.1657 -0.5708
 5777TIP3    H138822   4.176   6.586   4.804  3.0324  0.0288 -0.4325
 5777TIP3    H238823   4.106   6.677   4.902  1.1782  0.1179 -1.7871
 5778TIP3   OH238824   5.149   0.144   4.565 -0.5372 -0.1280 -0.1493
 5778TIP3    H138825   5.166   0.102   4.649 -1.3066  1.0999  0.6544
 5778TIP3    H238826   5.223   0.119   4.510  0.5058 -0.1347  1.2035
 5779TIP3   OH238827   5.840   4.334  11.230 -0.7983 -0.2502 -0.6262
 5779TIP3    H138828   5.853   4.306  11.139 -2.0400  2.2651 -1.6901
 5779TIP3    H238829   5.821   4.428  11.223  0.2521  0.2821  2.3705
 5780TIP3   OH238830   4.774   3.349   2.400  0.3495  0.1871 -0.0517
 5780TIP3    H138831   4.689   3.308   2.384  0.2983 -0.4266  1.5610
 5780TIP3    H238832   4.836   3.293   2.353  0.1451 -1.1034  1.1235
 5781TIP3   OH238833   4.138   0.092  11.349 -0.0194  0.4040 -0.3954
 5781TIP3    H138834   4.120   0.051  11.265  1.6772 -1.7144  0.1718
 5781TIP3    H238835   4.089   0.174  11.347 -1.8878 -0.6482 -2.4888
 5782TIP3   OH238836   1.057   2.047  11.740 -0.3248 -0.0478 -0.5877
 5782TIP3    H138837   0.966   2.064  11.764 -0.2792  0.5680 -0.8238
 5782TIP3    H238838   1.091   1.993  11.811 -1.5698 -2.4344 -1.6726
 5783TIP3   OH238839   6.427   2.664  16.037  0.3606 -0.2056  0.6554
 5783TIP3    H138840   6.470   2.583  16.009  2.3479  1.7715 -2.5327
 5783TIP3    H238841   6.491   2.707  16.094 -0.1856 -0.2218  1.3068
 5784TIP3   OH238842   1.884   6.556  11.423  0.2581 -0.8114 -0.1551
 5784TIP3    H138843   1.936   6.636  11.418 -0.5607 -0.0534  2.0855
 5784TIP3    H238844   1.805   6.582  11.472  0.0284 -2.9881  0.7553
 5785TIP3   OH238845   3.952   0.452   4.699  0.1982 -0.3053  0.6933
 5785TIP3    H138846   4.026   0.497   4.741  0.7567 -0.8520  0.3116
 5785TIP3    H238847   3.939   0.500   4.617  0.1037 -0.1938  0.7716
 5786TIP3   OH238848   0.145   5.886   0.652 -0.5312 -0.0916  0.2108
 5786TIP3    H138849   0.153   5.819   0.720 -0.3793 -1.9397 -1.5296
 5786TIP3    H238850   0.051   5.888   0.632 -0.3719 -0.9148 -0.7454
 5787TIP3   OH238851   6.727   2.381  16.975 -0.4060 -0.7211 -0.0851
 5787TIP3    H138852   6.792   2.440  17.014 -1.0135 -0.1212  0.0348
 5787TIP3    H238853   6.700   2.325  17.048  0.0288 -1.0316 -0.1561
 5788TIP3   OH238854   6.762   1.210  16.408 -0.0611  0.2708 -0.0338
 5788TIP3    H138855   6.767   1.169  16.321  1.5129 -2.2858  1.1285
 5788TIP3    H238856   6.706   1.151  16.459 -0.0681  1.1364  0.9993
 5789TIP3   OH238857   3.012   2.240  13.417 -0.2998  0.1663  0.1601
 5789TIP3    H138858   3.005   2.237  13.512 -0.1346 -0.5601  0.1559
 5789TIP3    H238859   2.922   2.244  13.386 -0.3536  0.4139  0.3447
 5790TIP3   OH238860   6.798   1.602   3.808 -0.2139 -0.0608  0.4352
 5790TIP3    H138861   6.822   1.565   3.723  1.3988  1.5047  0.1544
 5790TIP3    H238862   6.806   1.529   3.869  0.2702 -0.8089 -0.5013
 5791TIP3   OH238863   0.204   6.343   5.363  0.2104  0.2328 -0.9032
 5791TIP3    H138864   0.195   6.424   5.412  0.8599  0.6769 -1.5082
 5791TIP3    H238865   0.185   6.274   5.428  1.3707  0.7832  0.0711
 5792TIP3   OH238866   4.647   6.309  14.441 -0.2793  0.2055 -0.3446
 5792TIP3    H138867   4.713   6.250  14.475  0.1123  1.0866  0.4830
 5792TIP3    H238868   4.689   6.351  14.366 -0.1486  0.2617 -0.2406
 5793TIP3   OH238869   0.004   3.952   4.928 -0.3571 -1.1487  0.0176
 5793TIP3    H138870  -0.080   3.922   4.962 -2.0165 -0.4866 -3.1042
 5793TIP3    H238871  -0.015   3.983   4.840  3.1011 -0.4241 -0.6481
 5794TIP3   OH238872   5.323   1.378  13.597 -0.6019 -0.1736  0.0243
 5794TIP3    H138873   5.402   1.411  13.641 -0.9488  0.4265  0.2152
 5794TIP3    H238874   5.261   1.363  13.669 -0.0451 -2.4772  0.0804
 5795TIP3   OH238875   5.034   4.244   0.611 -0.1996 -0.0441 -0.5193
 5795TIP3    H138876   5.115   4.273   0.654  0.0065 -0.9914 -0.2404
 5795TIP3    H238877   4.977   4.321   0.614  0.0976  0.1571  0.7418
 5796TIP3   OH238878   2.459   4.448   3.249  0.4373  0.1296 -0.0186
 5796TIP3    H138879   2.510   4.392   3.308  0.6330  0.9697  0.6332
 5796TIP3    H238880   2.491   4.427   3.162 -0.1169 -1.4107  0.1136
 5797TIP3   OH238881   4.917   4.147  13.721 -0.2621 -0.2696  0.1349
 5797TIP3    H138882   4.842   4.204  13.740  1.8766  2.5373  0.7783
 5797TIP3    H238883   4.932   4.159  13.627 -0.0708 -0.1179  0.1853
 5798TIP3   OH238884   0.026   5.862  17.119 -0.2552  0.6799 -0.3667
 5798TIP3    H138885  -0.061   5.903  17.114 -1.1820 -1.1158  0.0110
 5798TIP3    H238886   0.009   5.776  17.157  1.3534 -0.6546 -2.4481
 5799TIP3   OH238887   1.857   2.390   1.551 -0.3695  0.3590  0.4412
 5799TIP3    H138888   1.851   2.407   1.457 -0.3999 -1.0202  0.1728
 5799TIP3    H238889   1.915   2.459   1.585 -0.1631  0.7215 -0.6284
 5800TIP3   OH238890   1.884   1.878   5.548  0.0509  0.6357  0.0383
 5800TIP3    H138891   1.918   1.908   5.632 -0.0415 -1.8827  1.0675
 5800TIP3    H238892   1.805   1.828   5.570 -1.6023  2.2179 -1.8545
 5801TIP3   OH238893   4.461   1.397   3.834  0.2029  0.0918  0.2808
 5801TIP3    H138894   4.447   1.433   3.922 -0.4546  0.9580 -0.1645
 5801TIP3    H238895   4.379   1.352   3.813 -0.6690  2.0662 -0.8782
 5802TIP3   OH238896   2.512   3.229  15.928 -0.7131  0.2415  0.2441
 5802TIP3    H138897   2.531   3.322  15.940 -0.8161  0.6329 -2.1940
 5802TIP3    H238898   2.477   3.201  16.013 -0.6523  2.3995  1.0521
 5803TIP3   OH238899   2.918   3.929  14.306 -0.6446 -0.7811 -0.2929
 5803TIP3    H138900   2.823   3.919  14.312 -0.8989  0.7877 -0.9962
 5803TIP3    H238901   2.953   3.866  14.369 -2.1419 -1.4496 -0.0830
 5804TIP3   OH238902   5.099   6.266  11.651 -0.3133  0.2430  0.7418
 5804TIP3    H138903   5.101   6.191  11.592  1.9095 -0.9744  2.2027
 5804TIP3    H238904   5.045   6.237  11.725 -1.0530  0.8300  0.4392
 5805TIP3   OH238905   5.642   5.845   2.192 -0.1436  0.2273  0.1670
 5805TIP3    H138906   5.684   5.819   2.274 -0.4159  0.1684  0.2902
 5805TIP3    H238907   5.712   5.841   2.126  0.2877  1.1143  0.5523
 5806TIP3   OH238908   4.649   4.708   4.386  0.3545 -0.8587 -0.0664
 5806TIP3    H138909   4.671   4.615   4.391  0.8062 -0.8938 -1.9020
 5806TIP3    H238910   4.582   4.713   4.317  0.5646  0.2039 -0.2069
 5807TIP3   OH238911   1.128   5.236  11.046 -0.0092 -0.3770  0.3906
 5807TIP3    H138912   1.144   5.239  10.952  3.4191 -1.4630  0.8073
 5807TIP3    H238913   1.038   5.267  11.056 -0.8316 -1.0807 -3.2898
 5808TIP3   OH238914   1.072   2.055   3.118  0.0449 -0.0934  0.0837
 5808TIP3    H138915   1.125   2.002   3.059 -3.7008 -2.5519 -1.4281
 5808TIP3    H238916   1.026   2.116   3.062 -2.3757 -1.3892  0.5256
 5809TIP3   OH238917   1.703   4.167   3.713  0.3212 -0.9327 -0.1173
 5809TIP3    H138918   1.754   4.110   3.655  0.1439  1.1870 -2.5316
 5809TIP3    H238919   1.755   4.173   3.793  3.4165  0.2313 -2.0355
 5810TIP3   OH238920   0.201   2.592  11.720  0.1012 -0.0561 -0.4977
 5810TIP3    H138921   0.258   2.642  11.780  1.6840 -1.3463 -0.8457
 5810TIP3    H238922   0.195   2.647  11.642 -2.0081  1.6648  0.7665
 5811TIP3   OH238923   3.998   4.867   3.619 -0.3227 -0.3900 -0.4269
 5811TIP3    H138924   3.949   4.794   3.580  0.4738 -0.8780 -0.5287
 5811TIP3    H238925   4.079   4.828   3.650  0.2951  0.5192 -0.8405
 5812TIP3   OH238926   5.375   0.548   1.029  0.1927 -0.1013  0.7096
 5812TIP3    H138927   5.432   0.591   1.092 -0.5398  0.3514  1.0728
 5812TIP3    H238928   5.291   0.538   1.074 -0.0305 -0.7340  0.1772
 5813TIP3   OH238929   0.948   3.190   2.317  0.3061  0.2697  0.5531
 5813TIP3    H138930   0.865   3.186   2.269  1.2345 -0.0606 -1.1362
 5813TIP3    H238931   0.959   3.102   2.353 -0.5019  0.5766  1.5713
 5814TIP3   OH238932   2.343   4.943   5.874  0.0841 -0.3273  0.2684
 5814TIP3    H138933   2.273   4.882   5.896  0.7153 -1.1337  0.0860
 5814TIP3    H238934   2.300   5.029   5.872 -0.6203 -0.6167  1.5259
 5815TIP3   OH238935   3.533   4.804   5.399  0.4066  0.0510  0.5430
 5815TIP3    H138936   3.488   4.853   5.330 -1.4759 -1.0968  0.9003
 5815TIP3    H238937   3.562   4.871   5.461 -2.3021  0.7995  1.1371
 5816TIP3   OH238938   5.291   1.091   0.620  0.3408 -0.0274 -0.0371
 5816TIP3    H138939   5.234   1.078   0.544 -0.6388 -2.9607  1.0645
 5816TIP3    H238940   5.230   1.106   0.693  0.9784 -1.7247  0.8990
 5817TIP3   OH238941   5.398   5.458   4.302 -0.1064  0.1139  0.4616
 5817TIP3    H138942   5.442   5.410   4.232 -0.8950  0.2053 -0.1014
 5817TIP3    H238943   5.358   5.533   4.259 -0.1014  0.4937  1.1047
 5818TIP3   OH238944   6.762   4.141   1.529  0.0597 -0.0122 -0.3561
 5818TIP3    H138945   6.796   4.227   1.504 -2.2215  0.8756 -0.6094
 5818TIP3    H238946   6.762   4.142   1.624 -0.7040  0.6070 -0.3542
 5819TIP3   OH238947   1.480   5.398   3.450  0.5367 -0.7694 -0.4561
 5819TIP3    H138948   1.453   5.456   3.379  1.4504 -0.7692 -0.8195
 5819TIP3    H238949   1.400   5.350   3.474  0.0235 -0.1429 -0.8827
 5820TIP3   OH238950   3.905   6.398  15.911 -0.0218  0.3454  0.4070
 5820TIP3    H138951   3.991   6.435  15.891  0.4967 -1.3433 -0.7634
 5820TIP3    H238952   3.900   6.399  16.006  3.2642 -3.4386  0.9140
 5821TIP3   OH238953   2.669   5.103   2.029 -0.5045  0.2153 -0.0251
 5821TIP3    H138954   2.636   5.151   1.953  0.4805  0.1990 -0.4807
 5821TIP3    H238955   2.595   5.100   2.090 -1.3873  0.0046 -1.0800
 5822TIP3   OH238956   1.245   5.927  14.325 -0.2141  0.0458 -0.1735
 5822TIP3    H138957   1.191   5.960  14.397 -1.1383 -0.5949 -0.5587
 5822TIP3    H238958   1.259   6.003  14.268 -0.2914  0.3262  0.1825
 5823TIP3   OH238959   5.605   3.573   0.002 -0.0474 -0.1703 -0.3100
 5823TIP3    H138960   5.510   3.568  -0.010 -0.1385  1.9614 -0.9371
 5823TIP3    H238961   5.616   3.629   0.079  0.6369  2.2148 -2.0060
 5824TIP3   OH238962   1.331   5.537   2.465 -0.0730  1.2080  0.3467
 5824TIP3    H138963   1.261   5.598   2.488 -2.4215 -1.3203  0.4542
 5824TIP3    H238964   1.372   5.515   2.548 -1.0845  0.6102  0.7181
 5825TIP3   OH238965   6.432   4.001   2.458 -0.4092  0.2601  0.9029
 5825TIP3    H138966   6.520   4.036   2.473  0.0704 -1.0100  1.1668
 5825TIP3    H238967   6.374   4.076   2.472  0.5567  0.8587  1.8525
 5826TIP3   OH238968   2.760   6.413  11.041  0.3034  0.1749  0.0294
 5826TIP3    H138969   2.831   6.465  11.004  1.0043 -1.4748 -1.0357
 5826TIP3    H238970   2.681   6.444  10.996  0.6320  0.6390 -0.2343
 5827TIP3   OH238971   1.510   0.833  16.711  0.1764  0.4677 -0.6654
 5827TIP3    H138972   1.538   0.876  16.792 -2.2871  0.5169  0.2697
 5827TIP3    H238973   1.422   0.868  16.696 -0.6463 -1.8384 -1.6362
 5828TIP3   OH238974   3.331   2.168  13.042  0.0903  0.1696  0.3463
 5828TIP3    H138975   3.286   2.091  13.078 -0.9081 -0.1495 -1.4707
 5828TIP3    H238976   3.406   2.180  13.100  0.2340 -2.1354  0.7628
 5829TIP3   OH238977   2.373   3.367   6.383  0.5141  0.3040  0.0024
 5829TIP3    H138978   2.316   3.291   6.372 -0.6004  0.8824  1.4518
 5829TIP3    H238979   2.406   3.386   6.294  0.7010 -1.7435 -0.3966
 5830TIP3   OH238980   3.312   2.978  14.813  0.0590 -0.2215  0.0744
 5830TIP3    H138981   3.336   2.950  14.901 -0.1450  0.3412  0.3147
 5830TIP3    H238982   3.243   2.917  14.786 -0.6034  0.2347  0.7157
 5831TIP3   OH238983   4.036   1.735  15.332 -0.4085 -0.0996 -0.1674
 5831TIP3    H138984   4.118   1.742  15.380  0.1401  1.0164 -1.2067
 5831TIP3    H238985   3.982   1.806  15.368 -0.7160 -0.4749  0.1203
 5832TIP3   OH238986   2.195   6.628  11.641 -0.0041 -0.0563  0.3183
 5832TIP3    H138987   2.240   6.578  11.710 -0.5763 -0.1464  0.6304
 5832TIP3    H238988   2.104   6.628  11.668 -0.0761  0.7788  0.0847
 5833TIP3   OH238989   0.781   6.157   0.311 -0.2443  0.6244 -0.1765
 5833TIP3    H138990   0.697   6.160   0.356 -0.7777 -0.4179 -1.0687
 5833TIP3    H238991   0.810   6.066   0.321  0.6032  0.8886 -0.1876
 5834TIP3   OH238992   1.208   4.067  16.698  0.2799 -0.8868  0.2796
 5834TIP3    H138993   1.122   4.036  16.671 -0.5181  0.3482  1.2543
 5834TIP3    H238994   1.190   4.149  16.745  2.0097 -0.4653  0.2843
 5835TIP3   OH238995   2.622   1.803  12.881 -0.1936 -0.3036 -0.6187
 5835TIP3    H138996   2.625   1.895  12.856  2.3612 -0.1930 -0.0897
 5835TIP3    H238997   2.616   1.755  12.798  1.1360  0.2778 -1.0645
 5836TIP3   OH238998   1.902   1.995  11.791 -0.0611  0.1895 -0.5113
 5836TIP3    H138999   1.857   2.050  11.855 -0.7541  0.1677 -0.9701
 5836TIP3    H239000   1.973   2.051  11.759 -1.2265  1.1439 -1.5464
 5837TIP3   OH239001   1.695   5.494  13.924 -0.3097  0.1223  0.3818
 5837TIP3    H139002   1.755   5.568  13.922  1.0253 -0.9149 -1.6233
 5837TIP3    H239003   1.734   5.433  13.986 -0.4254  0.3348  0.6630
 5838TIP3   OH239004   1.091   4.285  10.953 -0.2531 -0.6957 -0.1462
 5838TIP3    H139005   1.085   4.236  10.871 -0.3484 -0.1852 -0.4557
 5838TIP3    H239006   1.128   4.370  10.927 -0.5125 -0.4398  0.3040
 5839TIP3   OH239007   1.510   1.586  11.185 -0.2008  0.8090  0.2672
 5839TIP3    H139008   1.428   1.634  11.177  0.5035  2.0518  0.2366
 5839TIP3    H239009   1.573   1.637  11.133  0.9122  0.6445  1.4027
 5840TIP3   OH239010   6.486   1.435   0.653 -0.3718 -0.5093 -0.5080
 5840TIP3    H139011   6.575   1.468   0.669 -0.4248 -0.5024 -0.2252
 5840TIP3    H239012   6.499   1.342   0.632 -0.5507 -1.4598  2.9859
 5841TIP3   OH239013   6.035   0.178  10.396 -0.1852 -0.3352  0.7680
 5841TIP3    H139014   5.954   0.225  10.377  0.2922 -0.3816 -1.6763
 5841TIP3    H239015   6.104   0.244  10.390  0.1822 -0.7310  0.5393
 5842TIP3   OH239016   3.579   2.750   2.683  0.3268  0.3084  0.3809
 5842TIP3    H139017   3.668   2.724   2.707  1.0628  2.0068 -0.3441
 5842TIP3    H239018   3.585   2.774   2.591 -1.2246 -0.8791 -0.0616
 5843TIP3   OH239019   5.427   0.099  16.003  0.6496  0.0491  0.4846
 5843TIP3    H139020   5.519   0.125  15.993  0.1935  1.2572 -0.8900
 5843TIP3    H239021   5.431   0.016  16.051  2.5128 -0.5212 -0.5540
 5844TIP3   OH239022   0.908   5.771   4.745 -0.8233  0.7605  0.7143
 5844TIP3    H139023   0.932   5.846   4.689 -1.4882  0.7640  0.4233
 5844TIP3    H239024   0.841   5.806   4.803  0.0127  0.8086  1.6720
 5845TIP3   OH239025   0.981   0.300   0.769 -0.4482  0.0085 -0.3746
 5845TIP3    H139026   0.979   0.208   0.795 -0.5961 -0.0470 -0.5801
 5845TIP3    H239027   0.994   0.348   0.851  0.9358 -0.2650 -0.4244
 5846TIP3   OH239028   5.662   0.169  15.871 -0.2719  0.3597  0.5423
 5846TIP3    H139029   5.592   0.140  15.812 -0.8029  1.0420  0.8272
 5846TIP3    H239030   5.734   0.193  15.813 -1.0368  1.6970  0.1188
 5847TIP3   OH239031   5.303   3.593   1.833 -0.4785 -0.1302  0.3523
 5847TIP3    H139032   5.251   3.598   1.913 -0.5676  0.8752  0.2409
 5847TIP3    H239033   5.239   3.595   1.762 -0.2949  1.4168  0.2078
 5848TIP3   OH239034   6.049   0.837   3.430 -0.0406  0.3885  0.0757
 5848TIP3    H139035   6.083   0.748   3.441 -0.3908  0.5104  3.1956
 5848TIP3    H239036   5.954   0.825   3.426 -0.1518  0.6052  1.4115
 5849TIP3   OH239037   3.802   2.857  13.343  0.3127 -0.1822 -0.0834
 5849TIP3    H139038   3.829   2.855  13.251  1.6864 -1.8594  0.3157
 5849TIP3    H239039   3.741   2.784  13.352 -0.4463  0.4665  0.1873
 5850TIP3   OH239040   5.669   3.716   4.442  0.1185 -0.0394 -0.2320
 5850TIP3    H139041   5.723   3.762   4.378 -0.2379  1.2893  0.3909
 5850TIP3    H239042   5.607   3.665   4.390  0.5633  0.1340 -0.9362
 5851TIP3   OH239043   2.010   5.465  16.098  0.1193  0.5823 -0.9683
 5851TIP3    H139044   2.021   5.502  16.010  2.4412 -0.7670 -1.3261
 5851TIP3    H239045   2.077   5.397  16.104 -2.7106 -2.3991  0.2822
 5852TIP3   OH239046   2.032   4.612  13.134 -0.1135 -0.2874 -0.0813
 5852TIP3    H139047   2.105   4.653  13.179 -0.2556 -0.5246  0.3675
 5852TIP3    H239048   2.062   4.604  13.043  0.8924 -1.4805  0.3292
 5853TIP3   OH239049   3.223   6.740  12.662 -0.0065  0.8053  0.0672
 5853TIP3    H139050   3.162   6.797  12.615 -0.0038  0.0442 -0.8865
 5853TIP3    H239051   3.168   6.669  12.696  0.1246  0.9041  0.4929
 5854TIP3   OH239052   4.318   4.550  16.486 -0.1997  0.1373 -0.0387
 5854TIP3    H139053   4.259   4.476  16.479 -0.8109  0.3140  2.2981
 5854TIP3    H239054   4.270   4.615  16.537  1.6694  0.6115  1.2469
 5855TIP3   OH239055   4.690   6.119   3.314 -0.3828  0.0341 -0.1186
 5855TIP3    H139056   4.614   6.176   3.304 -0.3013  0.2291  0.3414
 5855TIP3    H239057   4.695   6.101   3.408 -0.1017 -0.3099 -0.1945
 5856TIP3   OH239058   4.803   1.754   3.538  0.7081  0.0888 -0.1031
 5856TIP3    H139059   4.711   1.780   3.546  1.3573  2.5561  0.2172
 5856TIP3    H239060   4.803   1.685   3.472 -1.3799 -0.1029  0.0405
 5857TIP3   OH239061   5.273   2.295   5.636 -0.2978 -0.6150 -0.2834
 5857TIP3    H139062   5.250   2.241   5.712  1.4340  2.1185  2.3792
 5857TIP3    H239063   5.360   2.264   5.611  0.1777  0.1098  0.4566
 5858TIP3   OH239064   0.863   4.089  12.773  0.1646  0.0930  0.0456
 5858TIP3    H139065   0.950   4.083  12.734 -0.1849  0.6607 -0.8746
 5858TIP3    H239066   0.803   4.063  12.703 -0.3369 -2.3845  1.2912
 5859TIP3   OH239067   6.571   1.194  15.955 -0.5223  0.3281  0.0092
 5859TIP3    H139068   6.589   1.146  15.874 -1.2295 -0.7272  0.4525
 5859TIP3    H239069   6.532   1.276  15.925  0.1078  0.3682 -0.7474
 5860TIP3   OH239070   5.703   2.019  13.091 -0.1660 -0.2843  0.6552
 5860TIP3    H139071   5.790   1.999  13.126  0.2874  2.6204  1.4205
 5860TIP3    H239072   5.719   2.045  13.001  0.0262  1.6596  1.2087
 5861TIP3   OH239073   1.328   0.030   2.379  0.0437 -0.7469  0.2585
 5861TIP3    H139074   1.389  -0.018   2.323 -0.2095 -2.0046  1.0112
 5861TIP3    H239075   1.313   0.113   2.334  2.4257 -0.3222  0.1181
 5862TIP3   OH239076   3.900   6.101   3.970  0.1010 -0.3265 -0.9420
 5862TIP3    H139077   3.833   6.036   3.950 -1.6817  1.5709 -1.5009
 5862TIP3    H239078   3.921   6.141   3.886  1.8283 -0.7201 -0.7414
 5863TIP3   OH239079   5.673   1.940  17.135 -0.0431  0.5662 -0.4387
 5863TIP3    H139080   5.687   1.903  17.222 -0.3771  1.1396 -0.1356
 5863TIP3    H239081   5.655   1.865  17.079 -1.4223  0.3257  0.3060
 5864TIP3   OH239082   5.191   6.716  16.471 -0.7210 -0.1962  0.0942
 5864TIP3    H139083   5.258   6.653  16.448  0.3681  0.6472  0.8629
 5864TIP3    H239084   5.128   6.667  16.525 -1.0837 -1.1409 -1.1526
 5865TIP3   OH239085   2.979   3.125   4.041  1.0807 -0.2748 -0.1428
 5865TIP3    H139086   2.967   3.074   3.961  1.3978 -0.5647 -0.0064
 5865TIP3    H239087   3.072   3.119   4.060  0.8444 -1.1558  0.8662
 5866TIP3   OH239088   0.578   4.253   1.305  0.2744  0.1763  0.5785
 5866TIP3    H139089   0.498   4.209   1.334  0.6235 -0.1157  1.1097
 5866TIP3    H239090   0.646   4.221   1.364  1.3961 -1.8540 -1.6352
 5867TIP3   OH239091   1.827   4.540   5.766 -0.8812 -0.0206  0.1864
 5867TIP3    H139092   1.842   4.632   5.790 -0.4701 -0.0290 -0.0221
 5867TIP3    H239093   1.872   4.490   5.834 -0.2803 -0.0508 -0.2194
 5868TIP3   OH239094   6.330   2.201   0.217 -0.0119  0.1850  0.6396
 5868TIP3    H139095   6.304   2.248   0.297 -0.7355 -0.9679  1.1108
 5868TIP3    H239096   6.255   2.209   0.159  0.3848  0.7350  0.1941
 5869TIP3   OH239097   5.840   5.652  15.044  0.4497 -0.4359  0.7491
 5869TIP3    H139098   5.864   5.742  15.065 -0.6627 -0.3696  1.8479
 5869TIP3    H239099   5.879   5.636  14.958  0.4010  1.1915  0.4003
 5870TIP3   OH239100   1.367   0.654  16.556  0.0820 -0.2070 -0.5801
 5870TIP3    H139101   1.414   0.737  16.563 -0.2848  0.0428 -1.0011
 5870TIP3    H239102   1.435   0.587  16.560  1.0052  0.1926 -4.8060
 5871TIP3   OH239103   1.459   3.298  16.607 -0.0148 -0.4212 -0.0605
 5871TIP3    H139104   1.444   3.219  16.660  1.7002 -0.9460 -0.3019
 5871TIP3    H239105   1.531   3.274  16.549  0.6273  1.3825 -0.0570
 5872TIP3   OH239106   2.222   3.882  17.364  0.3639  0.2252 -0.4571
 5872TIP3    H139107   2.304   3.836  17.351  1.4901  1.6939  1.0641
 5872TIP3    H239108   2.210   3.933  17.284  0.7541 -0.2413 -0.8137
 5873TIP3   OH239109   6.699   6.646   1.226 -0.1018  0.4370 -0.6432
 5873TIP3    H139110   6.687   6.724   1.281  0.4029  0.5828 -0.7365
 5873TIP3    H239111   6.789   6.652   1.196 -0.0642 -0.1882 -0.6564
 5874TIP3   OH239112   2.287   6.096   5.135 -0.0571  0.0389  0.7963
 5874TIP3    H139113   2.348   6.166   5.108 -1.1891  1.1847  1.1081
 5874TIP3    H239114   2.258   6.057   5.052 -0.0026  0.4602  0.5747
 5875TIP3   OH239115   4.116   6.504   3.231  0.8624 -0.1609 -0.3558
 5875TIP3    H139116   4.051   6.573   3.224  0.8415 -0.1444 -0.0281
 5875TIP3    H239117   4.105   6.452   3.152  0.0121 -0.5303 -0.0057
 5876TIP3   OH239118   0.639   3.949  12.655 -0.2207 -0.2505 -0.1073
 5876TIP3    H139119   0.597   4.020  12.604 -1.3622 -0.6245  0.2773
 5876TIP3    H239120   0.574   3.879  12.655  0.5332 -0.9603  0.3037
 5877TIP3   OH239121   3.945   0.601   4.079 -0.1234 -0.3046  0.6615
 5877TIP3    H139122   3.924   0.642   4.163 -1.2335  0.0367  0.2385
 5877TIP3    H239123   3.860   0.588   4.037  0.4886  1.4719 -1.3095
 5878TIP3   OH239124   5.163   4.934  14.203 -0.0444 -0.0885 -0.0810
 5878TIP3    H139125   5.248   4.936  14.159 -0.1302 -0.7844 -0.3038
 5878TIP3    H239126   5.154   5.020  14.243  0.1910  0.4497 -1.1443
 5879TIP3   OH239127   1.562   1.691  15.259 -0.4885  0.1243  0.2514
 5879TIP3    H139128   1.639   1.646  15.225  0.5997  1.6992  0.4816
 5879TIP3    H239129   1.550   1.766  15.201 -0.5846  1.0300  1.3917
 5880TIP3   OH239130   2.469   6.615   4.419 -0.3220  0.6547  0.0462
 5880TIP3    H139131   2.400   6.594   4.356 -0.4150 -1.4918  0.7651
 5880TIP3    H239132   2.548   6.621   4.367 -0.3429 -1.4179 -0.3216
 5881TIP3   OH239133   5.799   3.510   4.537  0.3806 -0.3840  0.1470
 5881TIP3    H139134   5.885   3.550   4.556  0.5182 -0.0211 -1.1524
 5881TIP3    H239135   5.747   3.582   4.502 -1.0151 -0.2194  2.4027
 5882TIP3   OH239136   1.634   0.494  11.099 -0.5299  0.5308 -0.0384
 5882TIP3    H139137   1.639   0.585  11.072 -0.0500  0.6728  0.4931
 5882TIP3    H239138   1.644   0.444  11.018  0.2086  0.9480 -0.2161
 5883TIP3   OH239139   5.148   5.471  15.952 -0.2035 -0.4473 -0.1813
 5883TIP3    H139140   5.137   5.394  16.008  0.6781 -0.1630  0.4036
 5883TIP3    H239141   5.107   5.542  16.001  1.7307  0.0823  0.7933
 5884TIP3   OH239142   1.096   5.647   4.004  0.2135 -0.2140  0.5030
 5884TIP3    H139143   1.168   5.669   3.945 -0.1484  0.9000  0.4391
 5884TIP3    H239144   1.026   5.616   3.945 -0.8656  2.7567  0.0274
 5885TIP3   OH239145   1.906   3.613   1.697  0.2043 -0.5024  0.2713
 5885TIP3    H139146   1.959   3.557   1.640  1.3592  0.4198  0.4220
 5885TIP3    H239147   1.819   3.571   1.697  1.2739 -2.9321  1.2597
 5886TIP3   OH239148   5.844   3.974  17.153 -0.2866  0.0881 -1.0906
 5886TIP3    H139149   5.837   3.881  17.178  1.2964  0.2775  0.2554
 5886TIP3    H239150   5.938   3.989  17.144 -0.5672  1.3980 -2.0216
 5887TIP3   OH239151   0.628   6.047  16.985 -0.6601 -0.1244  0.0639
 5887TIP3    H139152   0.657   6.118  17.041 -0.2142 -0.1654 -0.1129
 5887TIP3    H239153   0.595   5.980  17.046  2.9514 -1.6446  0.5816
 5888TIP3   OH239154   4.582   4.043  17.337  0.2694 -0.0032  0.5938
 5888TIP3    H139155   4.594   3.976  17.404  0.7066 -0.2468  0.2837
 5888TIP3    H239156   4.668   4.050  17.295 -0.2685 -0.6721 -0.6773
 5889TIP3   OH239157   0.737   4.010   0.492 -0.0057 -0.0520 -0.0778
 5889TIP3    H139158   0.768   4.100   0.504 -2.9125  1.2117 -1.1223
 5889TIP3    H239159   0.700   3.986   0.577  1.6457 -0.6883  0.4923
 5890TIP3   OH239160   5.413   3.679  15.418 -1.0193 -0.2524 -0.3721
 5890TIP3    H139161   5.444   3.712  15.503 -0.8592  0.2815 -0.6371
 5890TIP3    H239162   5.493   3.674  15.365 -1.4565  1.8212 -1.3005
 5891TIP3   OH239163   6.274   3.033  12.442  0.4006  0.2282 -0.5249
 5891TIP3    H139164   6.312   2.959  12.489 -1.5251 -1.0742 -0.8979
 5891TIP3    H239165   6.249   3.095  12.510 -0.6661 -0.8173  0.0783
 5892TIP3   OH239166   1.768   5.615   2.805 -0.0458 -0.2036 -0.3191
 5892TIP3    H139167   1.756   5.591   2.713 -2.5368 -1.9922  0.3722
 5892TIP3    H239168   1.836   5.555   2.837  0.5370  0.1514 -0.8737
 5893TIP3   OH239169   3.358   0.183   4.163 -0.7532  0.1515 -0.2163
 5893TIP3    H139170   3.376   0.127   4.087 -1.0691  0.2500 -0.3661
 5893TIP3    H239171   3.439   0.231   4.177 -0.9020  0.6298 -0.9173
 5894TIP3   OH239172   0.063   1.684  16.029 -0.0122  0.5830  0.1003
 5894TIP3    H139173   0.052   1.667  16.123 -0.2846  1.1017  0.1612
 5894TIP3    H239174   0.086   1.776  16.024 -0.3556  0.6440 -0.3705
 5895TIP3   OH239175   5.136   2.566  13.950 -0.0660  0.4535  0.3947
 5895TIP3    H139176   5.059   2.537  13.901  0.2881  0.6403 -0.2820
 5895TIP3    H239177   5.199   2.495  13.942 -0.4512 -0.0563  1.6402
 5896TIP3   OH239178   1.009   3.082   4.475 -0.0439  0.6840 -0.0052
 5896TIP3    H139179   1.051   3.062   4.558 -0.6031 -3.1168 -0.4352
 5896TIP3    H239180   0.919   3.050   4.486 -0.7519  2.0888 -1.3935
 5897TIP3   OH239181   4.654   4.044  16.776 -0.1677  0.0646 -0.0742
 5897TIP3    H139182   4.739   4.086  16.792 -1.4116  2.6687  0.2410
 5897TIP3    H239183   4.661   4.008  16.688  0.7186  1.7764 -0.7486
 5898TIP3   OH239184   3.443   5.425  12.627  0.3398 -0.3858 -0.3592
 5898TIP3    H139185   3.353   5.394  12.616  0.1718  0.1768 -0.6502
 5898TIP3    H239186   3.486   5.405  12.544  0.6850 -1.2623  0.0133
 5899TIP3   OH239187   3.071   4.727  12.624  0.0794 -0.4302 -0.1410
 5899TIP3    H139188   3.060   4.785  12.549 -1.8642  0.7517  0.9635
 5899TIP3    H239189   3.134   4.661  12.595 -0.3922  0.1421 -2.6984
 5900TIP3   OH239190   3.388   3.146  17.326  0.0103  0.1846 -0.2470
 5900TIP3    H139191   3.406   3.065  17.374  0.8490  0.3555 -0.2461
 5900TIP3    H239192   3.304   3.131  17.283 -1.8684  0.7684  2.9360
 5901TIP3   OH239193   4.431   0.578  15.922 -0.6409 -0.0812  0.3609
 5901TIP3    H139194   4.336   0.577  15.921 -0.6534  0.6845  0.5178
 5901TIP3    H239195   4.455   0.507  15.983 -1.1724  1.3071  2.2773
 5902TIP3   OH239196   4.539   0.174   5.886 -1.0317 -0.4297 -0.0525
 5902TIP3    H139197   4.555   0.263   5.917 -0.1790 -0.9217  0.9704
 5902TIP3    H239198   4.610   0.155   5.826 -1.4089 -0.3016 -0.5464
 5903TIP3   OH239199   3.623   0.693  16.257 -0.4464 -0.2814 -0.0748
 5903TIP3    H139200   3.613   0.756  16.186  0.3824 -0.1592 -0.0894
 5903TIP3    H239201   3.647   0.747  16.333 -2.1717 -0.3016  0.5326
 5904TIP3   OH239202   2.552   6.499   1.006  0.4262  0.0118 -0.1520
 5904TIP3    H139203   2.536   6.587   1.039  0.8009  0.3830 -0.9557
 5904TIP3    H239204   2.614   6.510   0.934  0.4189 -0.8979 -0.3160
 5905TIP3   OH239205   4.308   3.975  12.759 -0.2062 -0.0332 -0.0917
 5905TIP3    H139206   4.368   4.049  12.746 -0.9330  0.2146 -2.4788
 5905TIP3    H239207   4.305   3.963  12.854  2.1033  1.1847  0.2077
 5906TIP3   OH239208   1.272   0.059  14.355 -0.1325 -0.0910 -0.1463
 5906TIP3    H139209   1.325   0.123  14.307 -0.5720  0.1227 -0.3465
 5906TIP3    H239210   1.332  -0.015  14.368  0.6804  0.7323  0.9585
 5907TIP3   OH239211   4.317   2.073  15.110 -0.0889  0.7080 -0.0237
 5907TIP3    H139212   4.235   2.117  15.132 -0.4884 -0.4136  0.8265
 5907TIP3    H239213   4.355   2.048  15.195 -0.4499 -1.5431 -0.4481
 5908TIP3   OH239214   5.769   4.326  13.476  0.9479 -0.0476  0.2613
 5908TIP3    H139215   5.807   4.413  13.490  1.1465  0.2020 -1.6226
 5908TIP3    H239216   5.724   4.307  13.558  1.9455  1.2883  1.1742
 5909TIP3   OH239217   5.784   6.642  11.814  0.0741 -0.3518 -0.5540
 5909TIP3    H139218   5.833   6.626  11.733 -0.0884 -2.7872 -0.2358
 5909TIP3    H239219   5.712   6.579  11.812 -0.1211 -0.2475  1.3393
 5910TIP3   OH239220   3.916   5.481   4.253 -0.3652  0.2808  0.7312
 5910TIP3    H139221   3.976   5.554   4.240 -2.2922  1.5735 -1.5035
 5910TIP3    H239222   3.949   5.412   4.195 -1.0834  1.0659 -0.6569
 5911TIP3   OH239223   5.253   0.353  17.305  0.3201  0.2111  0.0100
 5911TIP3    H139224   5.213   0.274  17.267  0.3198 -0.4758  1.3819
 5911TIP3    H239225   5.226   0.352  17.396  1.4463  1.0842  0.3789
 5912TIP3   OH239226   6.375   6.707   3.509 -0.1112  0.1684 -0.0603
 5912TIP3    H139227   6.383   6.789   3.461  0.4906  0.6708  0.8572
 5912TIP3    H239228   6.465   6.675   3.517 -0.3804 -0.7864 -0.7453
 5913TIP3   OH239229   0.257   2.299  15.527  0.8112 -0.0834  0.0845
 5913TIP3    H139230   0.193   2.363  15.557 -0.6109 -1.4481  0.1443
 5913TIP3    H239231   0.260   2.310  15.432  2.6519  1.8517  0.2946
 5914TIP3   OH239232   0.015   6.139  13.117  0.5948  0.1616  0.0071
 5914TIP3    H139233  -0.073   6.162  13.149 -0.0732 -1.9878 -0.1277
 5914TIP3    H239234   0.008   6.143  13.022  0.3024 -1.0640 -0.0365
 5915TIP3   OH239235   5.285   1.276   2.292  0.5131 -0.6715  0.1513
 5915TIP3    H139236   5.378   1.298   2.295  0.6300 -1.1878  0.5025
 5915TIP3    H239237   5.272   1.215   2.365 -0.4673  0.7528  1.2184
 5916TIP3   OH239238   1.711   3.276  15.609  0.4084  0.1872  0.5397
 5916TIP3    H139239   1.793   3.230  15.588  0.3945 -0.7154  2.2655
 5916TIP3    H239240   1.702   3.342  15.540  1.5053 -1.0549 -0.8613
 5917TIP3   OH239241   0.031   3.238  16.142 -0.1031  0.4986 -0.0356
 5917TIP3    H139242  -0.021   3.311  16.174 -0.5732  0.5989 -1.0038
 5917TIP3    H239243   0.058   3.191  16.221 -0.8436  0.9975  0.5235
 5918TIP3   OH239244   3.004   5.208   4.701  0.9988  0.1560 -0.2488
 5918TIP3    H139245   3.022   5.122   4.738 -2.7911 -0.5454  0.4607
 5918TIP3    H239246   2.986   5.191   4.608 -1.2684 -0.2192  0.1892
 5919TIP3   OH239247   0.084   1.667   1.718  0.0852  0.0327  0.5572
 5919TIP3    H139248   0.049   1.634   1.635  0.3615  2.2949 -0.5435
 5919TIP3    H239249   0.012   1.656   1.780  0.2644 -2.7916  0.4003
 5920TIP3   OH239250   4.317   1.974   5.116 -0.1143  0.2212 -0.2693
 5920TIP3    H139251   4.242   1.915   5.110  0.1464 -0.3187  1.3136
 5920TIP3    H239252   4.393   1.916   5.113  0.1417  0.4005  1.4601
 5921TIP3   OH239253   1.632   4.757   5.000  0.0061  0.1018 -0.9216
 5921TIP3    H139254   1.664   4.847   4.990  1.9931 -0.4637 -0.0471
 5921TIP3    H239255   1.710   4.702   4.986 -0.4560 -1.3433  1.6251
 5922TIP3   OH239256   2.625   1.529  17.123 -0.0874 -0.3403 -0.0069
 5922TIP3    H139257   2.557   1.527  17.191 -0.4998 -1.6802 -0.4315
 5922TIP3    H239258   2.696   1.580  17.162 -0.4411 -0.8088  1.3200
 5923TIP3   OH239259   3.594   1.288  13.895 -0.0218 -0.4622 -0.4667
 5923TIP3    H139260   3.570   1.253  13.809 -0.6104 -0.0561 -0.4739
 5923TIP3    H239261   3.640   1.370  13.875  0.9595 -0.9945 -0.4342
 5924TIP3   OH239262   0.979   3.413  15.553 -0.3540  0.0907 -0.5236
 5924TIP3    H139263   0.945   3.354  15.486  0.4426 -0.7649 -0.1917
 5924TIP3    H239264   1.052   3.365  15.593 -0.4384  0.8190  0.5507
 5925TIP3   OH239265   2.807   2.714  17.127 -0.2608 -0.3579  0.6487
 5925TIP3    H139266   2.772   2.763  17.053  0.2321  0.8552  1.1869
 5925TIP3    H239267   2.746   2.641  17.139 -2.8041  1.7924  1.7281
 5926TIP3   OH239268   5.462   5.354  14.792  0.0522 -0.2085  0.5488
 5926TIP3    H139269   5.512   5.377  14.870 -0.3687  0.7419  0.5461
 5926TIP3    H239270   5.422   5.436  14.764 -1.1778 -0.8588  0.3183
 5927TIP3   OH239271   1.900   4.336  13.165  0.4719  0.5211  0.2206
 5927TIP3    H139272   1.890   4.426  13.134  0.9620 -0.1280 -2.0235
 5927TIP3    H239273   1.811   4.307  13.185 -0.0485  0.6770 -1.6725
 5928TIP3   OH239274   3.312   0.144   0.899 -0.1671 -0.4142  0.1358
 5928TIP3    H139275   3.310   0.193   0.817  1.5197 -0.8054 -0.1792
 5928TIP3    H239276   3.398   0.102   0.899 -0.5349 -1.2138  1.6481
 5929TIP3   OH239277   0.093   3.335   2.298  0.2384 -0.0588 -0.8233
 5929TIP3    H139278   0.030   3.406   2.315 -1.0890 -1.5433  0.8193
 5929TIP3    H239279   0.114   3.343   2.205 -1.8172  0.9489 -1.2584
 5930TIP3   OH239280   3.515   4.966   0.252  0.1218  0.1567 -0.3635
 5930TIP3    H139281   3.485   4.882   0.217  0.5260  0.0808 -0.5335
 5930TIP3    H239282   3.584   4.943   0.314 -0.4593  0.2995  0.3692
 5931TIP3   OH239283   3.802   5.905   2.760 -0.2306 -0.0469  0.1734
 5931TIP3    H139284   3.875   5.845   2.747 -1.4570 -1.3540 -1.0269
 5931TIP3    H239285   3.724   5.852   2.745 -1.4119  1.5154  0.5036
 5932TIP3   OH239286   4.328   2.023   1.892  0.0875 -0.3129 -0.3933
 5932TIP3    H139287   4.278   1.996   1.815 -2.2478 -2.6743  1.7346
 5932TIP3    H239288   4.268   2.082   1.939  1.9777  2.1748 -0.8858
 5933TIP3   OH239289   5.902   0.005   5.053  0.3391 -0.1030 -0.1577
 5933TIP3    H139290   5.854   0.081   5.022  0.6277  0.8476  1.6050
 5933TIP3    H239291   5.834  -0.061   5.070  0.1050 -0.3408 -1.8339
 5934TIP3   OH239292   1.224   2.278  12.514 -0.3970 -0.2132  0.2828
 5934TIP3    H139293   1.169   2.355  12.529 -2.6497 -1.3346 -1.5135
 5934TIP3    H239294   1.178   2.207  12.560 -0.2162 -1.1094 -0.8832
 5935TIP3   OH239295   2.124   2.754  15.939 -0.1264  0.1840  0.4663
 5935TIP3    H139296   2.179   2.832  15.949  0.3969  0.0275 -0.9186
 5935TIP3    H239297   2.034   2.787  15.944  0.0882  0.6697  1.2269
 5936TIP3   OH239298   3.633   1.145   4.437 -0.0333 -0.6324  1.1551
 5936TIP3    H139299   3.594   1.085   4.501 -1.4496 -1.5237 -0.4539
 5936TIP3    H239300   3.560   1.170   4.380  0.8800  1.3045  0.7606
 5937TIP3   OH239301   0.647   2.571   4.963  0.6764 -0.4436  0.1221
 5937TIP3    H139302   0.561   2.603   4.989  1.8299 -0.1006  4.2961
 5937TIP3    H239303   0.629   2.498   4.904 -2.4071  0.2502  0.0591
 5938TIP3   OH239304   6.203   6.137  16.042 -0.1986 -0.8146  0.3420
 5938TIP3    H139305   6.117   6.178  16.033  0.1239 -0.1577  0.1915
 5938TIP3    H239306   6.195   6.083  16.120 -0.8077 -0.9120  0.2213
 5939TIP3   OH239307   3.845   2.496  10.983  0.1485 -0.5431  0.2845
 5939TIP3    H139308   3.755   2.523  11.001 -0.0655 -0.7944 -0.3814
 5939TIP3    H239309   3.836   2.409  10.943  0.7004 -0.6602  0.4065
 5940TIP3   OH239310   3.323   5.762   4.956 -0.1397 -0.6373 -0.0374
 5940TIP3    H139311   3.319   5.773   5.051 -0.1181 -1.6269  0.0906
 5940TIP3    H239312   3.266   5.832   4.921  1.0529  0.7102  0.6111
 5941TIP3   OH239313   5.849   4.940   3.152  0.5708  0.1940  0.2824
 5941TIP3    H139314   5.870   4.860   3.199  0.3090  0.1159  0.2648
 5941TIP3    H239315   5.934   4.982   3.137  0.8036 -0.5308 -0.5245
 5942TIP3   OH239316   5.992   0.795  11.746  0.0284  0.5080  0.2130
 5942TIP3    H139317   6.077   0.752  11.736  0.1656  1.1321 -1.4965
 5942TIP3    H239318   6.002   0.880  11.704 -1.2640  0.8422  0.5258
 5943TIP3   OH239319   1.555   2.968  14.866 -0.1020 -0.1331  0.0772
 5943TIP3    H139320   1.554   2.970  14.962 -1.4423  0.5184  0.0695
 5943TIP3    H239321   1.586   3.055  14.841  0.7069 -0.4609 -0.0937
 5944TIP3   OH239322   3.922   6.214   1.016 -0.6409  0.4708 -0.5506
 5944TIP3    H139323   3.867   6.290   1.034  0.5128  1.1743  0.1730
 5944TIP3    H239324   4.008   6.251   0.993 -0.1978 -0.5951 -0.6987
 5945TIP3   OH239325   4.228   4.906   1.405 -0.4623  0.1086  0.6977
 5945TIP3    H139326   4.185   4.934   1.485  1.5449 -1.3295  2.3953
 5945TIP3    H239327   4.166   4.847   1.363 -1.0256 -0.1710  1.8892
 5946TIP3   OH239328   1.205   5.980  16.037 -0.1259 -0.1618 -0.2418
 5946TIP3    H139329   1.248   6.061  16.063  0.9467 -0.5382 -0.7906
 5946TIP3    H239330   1.190   5.990  15.943 -0.9152 -0.1869 -0.1218
 5947TIP3   OH239331   1.564   1.053  15.930 -0.2985  0.0157  0.2253
 5947TIP3    H139332   1.556   0.967  15.971  1.2158  0.1299  0.8122
 5947TIP3    H239333   1.626   1.040  15.858 -0.5589  0.4824 -0.0899
 5948TIP3   OH239334   2.181   2.255  11.529 -0.4660 -0.5667 -1.0716
 5948TIP3    H139335   2.203   2.229  11.618  0.3673 -0.9273 -1.3800
 5948TIP3    H239336   2.265   2.266  11.485 -0.8065  1.4142 -1.3160
 5949TIP3   OH239337   6.198   3.711  12.735  0.2671 -0.3756 -0.2242
 5949TIP3    H139338   6.262   3.681  12.798  1.2720  0.4271 -0.8330
 5949TIP3    H239339   6.171   3.797  12.767 -0.7609 -0.8345  0.1948
 5950TIP3   OH239340   5.487   2.978   1.768 -0.6503 -0.2742  0.0647
 5950TIP3    H139341   5.518   2.975   1.858  0.1976  0.1355 -0.1991
 5950TIP3    H239342   5.522   2.899   1.728 -1.3058 -0.6246  0.1769
 5951TIP3   OH239343   5.933   3.555  16.899 -0.2849  0.0148  0.3535
 5951TIP3    H139344   5.876   3.625  16.932 -0.3779  1.1202 -1.9821
 5951TIP3    H239345   5.986   3.597  16.831  0.9137 -1.7968  0.0905
 5952TIP3   OH239346   0.155   3.566  13.274 -0.3919 -0.1195  0.0766
 5952TIP3    H139347   0.128   3.507  13.344 -0.5289 -0.5741 -0.3525
 5952TIP3    H239348   0.225   3.619  13.312  0.4921 -1.2946  0.1357
 5953TIP3   OH239349   4.237   4.190  14.504 -0.1310  0.0916  0.0477
 5953TIP3    H139350   4.308   4.131  14.477  0.7614  0.7075  0.9879
 5953TIP3    H239351   4.205   4.151  14.586 -0.5223  0.1161 -0.0941
 5954TIP3   OH239352   0.197   3.422   6.292  0.0788 -0.3071 -0.1160
 5954TIP3    H139353   0.138   3.347   6.288 -1.2337  0.7058 -0.9094
 5954TIP3    H239354   0.194   3.450   6.383 -0.6176 -0.3286 -0.1249
 5955TIP3   OH239355   0.344   3.234  10.946  0.1084 -0.4510  0.1741
 5955TIP3    H139356   0.309   3.192  10.867 -0.3400  0.6417 -0.2299
 5955TIP3    H239357   0.414   3.291  10.914  0.1188 -0.2224  0.5996
 5956TIP3   OH239358   3.216   0.614   0.782 -0.0259  0.6965 -0.2983
 5956TIP3    H139359   3.149   0.592   0.847  1.3075 -2.0564  0.2875
 5956TIP3    H239360   3.270   0.680   0.825  0.7580 -0.9868  1.4282
 5957TIP3   OH239361   0.116   6.775   6.319  0.2340  0.3148 -0.3290
 5957TIP3    H139362   0.071   6.849   6.277 -1.4073  0.7413  2.0103
 5957TIP3    H239363   0.175   6.816   6.383 -1.3100 -0.3512  1.5867
 5958TIP3   OH239364   0.410   3.833  11.818  0.2033  0.1975 -0.3400
 5958TIP3    H139365   0.411   3.740  11.794  2.5493  0.4829 -1.7247
 5958TIP3    H239366   0.346   3.873  11.760 -1.4320 -0.6312  0.8274
 5959TIP3   OH239367   1.068   0.758  16.189 -0.1134 -0.1349  0.0864
 5959TIP3    H139368   1.070   0.711  16.272  0.4256  1.4029  0.9726
 5959TIP3    H239369   1.010   0.705  16.133 -3.0425  0.3322  2.4065
 5960TIP3   OH239370   2.087   3.289  14.600  0.0691  0.2024  0.1373
 5960TIP3    H139371   2.067   3.195  14.601  1.2021 -0.0554  0.3648
 5960TIP3    H239372   2.010   3.329  14.561 -0.5418 -0.7982  0.2632
 5961TIP3   OH239373   0.953   5.309  14.656  0.4755 -0.2643 -0.3670
 5961TIP3    H139374   1.018   5.240  14.641 -0.3751 -1.4128  0.9824
 5961TIP3    H239375   0.983   5.382  14.601  1.3085 -1.7394 -1.9929
 5962TIP3   OH239376   5.043   3.629   0.067  0.4371 -0.2734 -0.0608
 5962TIP3    H139377   4.958   3.603   0.101  1.1221  1.1465  3.1274
 5962TIP3    H239378   5.025   3.711   0.020 -0.0117 -0.1787  0.2647
 5963TIP3   OH239379   2.560   6.789  12.052 -0.1132 -0.1240 -0.0663
 5963TIP3    H139380   2.482   6.767  12.001 -1.0049  0.0893  1.1714
 5963TIP3    H239381   2.600   6.704  12.072  0.1531 -0.2190 -0.9420
 5964TIP3   OH239382   6.294   4.951  11.315  0.3272  0.4884 -0.3845
 5964TIP3    H139383   6.209   4.924  11.351  0.9256  1.6344  2.0793
 5964TIP3    H239384   6.294   4.915  11.226 -2.4660 -0.0732 -0.2694
 5965TIP3   OH239385   0.725   6.731   1.107  0.0310  0.0030  0.5734
 5965TIP3    H139386   0.709   6.706   1.016  0.1969  1.2388  0.1855
 5965TIP3    H239387   0.764   6.653   1.147  0.1365 -0.4929 -0.4617
 5966TIP3   OH239388   6.195   2.372  17.241 -0.3920  1.1046 -0.7471
 5966TIP3    H139389   6.270   2.330  17.200  0.8943  0.6857  1.7992
 5966TIP3    H239390   6.154   2.302  17.292  0.5761  2.3460  1.9194
 5967TIP3   OH239391   1.084   2.800  15.763  0.1639 -0.2223  0.0742
 5967TIP3    H139392   1.035   2.834  15.838 -0.2323  0.3484 -0.4371
 5967TIP3    H239393   1.172   2.784  15.797  0.2352  0.8840  0.4484
 5968TIP3   OH239394   1.477   5.585   1.170  0.3183 -0.0905  0.0409
 5968TIP3    H139395   1.489   5.657   1.232  1.4646  0.8091 -1.1668
 5968TIP3    H239396   1.477   5.627   1.084  0.9722 -1.5139 -0.6968
 5969TIP3   OH239397   0.045   0.305  12.827  0.1557 -0.2105 -0.5651
 5969TIP3    H139398   0.043   0.279  12.919  1.2871  1.0684 -0.1476
 5969TIP3    H239399   0.067   0.398  12.829 -1.4518  0.2451 -2.0863
 5970TIP3   OH239400   5.035   3.582   2.656  0.5459  0.2983  0.1713
 5970TIP3    H139401   4.958   3.569   2.711  2.6205 -0.8125  3.0673
 5970TIP3    H239402   5.060   3.673   2.672  0.7054  0.2049  0.4554
 5971TIP3   OH239403   1.025   5.009   3.709  0.3129  0.2013  0.2591
 5971TIP3    H139404   0.991   5.071   3.645 -1.3772  0.8703  1.7234
 5971TIP3    H239405   1.111   4.984   3.675 -0.4540  0.6123 -2.1731
 5972TIP3   OH239406   5.909   3.399  12.431 -0.1711  0.2031 -0.0169
 5972TIP3    H139407   5.823   3.384  12.471  0.1790 -1.4670  0.1685
 5972TIP3    H239408   5.918   3.328  12.367  1.7085 -0.5936  1.0709
 5973TIP3   OH239409   1.333   3.032   2.993  0.3454  0.5026  0.9956
 5973TIP3    H139410   1.269   2.985   3.046  0.2507 -0.7294 -0.1679
 5973TIP3    H239411   1.400   2.967   2.971  1.3264  1.4447  1.0951
 5974TIP3   OH239412   4.860   2.410   5.498 -0.0955  0.5404 -0.4229
 5974TIP3    H139413   4.870   2.435   5.590 -0.5122  0.5491 -0.3752
 5974TIP3    H239414   4.912   2.331   5.489 -0.8117 -0.0065  0.0680
 5975TIP3   OH239415   6.049   0.124   1.234  0.3897  0.4542  0.1546
 5975TIP3    H139416   6.033   0.164   1.319 -1.1317  0.1419  0.0431
 5975TIP3    H239417   6.096   0.043   1.254 -0.0436  0.3363  0.7213
 5976TIP3   OH239418   1.856   6.676   5.052 -0.0077  0.1524  0.8486
 5976TIP3    H139419   1.764   6.698   5.037 -0.1070 -0.4081  0.6027
 5976TIP3    H239420   1.875   6.609   4.986  0.6587  0.4651  0.7145
 5977TIP3   OH239421   3.267   6.353  13.186 -0.3640  0.0421 -0.2925
 5977TIP3    H139422   3.263   6.258  13.180  0.1663  0.0063 -0.1101
 5977TIP3    H239423   3.209   6.384  13.116  0.6245 -0.3964 -1.3269
 5978TIP3   OH239424   3.425   2.561   4.985  0.1422 -0.0189  0.1382
 5978TIP3    H139425   3.345   2.541   4.936  0.2791  1.8441 -0.9502
 5978TIP3    H239426   3.422   2.656   4.997  1.8448 -0.0148  0.7008
 5979TIP3   OH239427   4.708   4.857   0.775 -0.2241 -0.2932 -0.1907
 5979TIP3    H139428   4.753   4.830   0.855 -0.1288  0.8310  0.1560
 5979TIP3    H239429   4.616   4.838   0.792 -0.1184 -0.7147 -0.0884
 5980TIP3   OH239430   1.297   5.202  14.327  0.7780 -0.1776 -0.6949
 5980TIP3    H139431   1.381   5.245  14.347  1.8508 -1.2844 -2.5875
 5980TIP3    H239432   1.303   5.180  14.234 -0.5284 -2.6848 -0.2496
 5981TIP3   OH239433   5.143   0.662   3.615 -0.2328 -0.0272 -0.6554
 5981TIP3    H139434   5.185   0.592   3.664  0.4848  1.1087  0.4290
 5981TIP3    H239435   5.050   0.641   3.618 -0.0912 -0.6022  0.2029
 5982TIP3   OH239436   3.090   4.602   5.077  0.0439  0.2030 -0.2648
 5982TIP3    H139437   3.008   4.590   5.028 -0.8171  2.1129  0.6177
 5982TIP3    H239438   3.137   4.519   5.064 -2.0122 -0.9661 -0.7945
 5983TIP3   OH239439   5.488   2.386  12.392 -0.8155 -0.2852  0.2163
 5983TIP3    H139440   5.567   2.350  12.351 -0.5045 -0.3356  0.8483
 5983TIP3    H239441   5.416   2.354  12.338 -0.4570 -0.8767  0.0847
 5984TIP3   OH239442   1.473   1.549   5.296  0.6593 -0.2068 -0.3476
 5984TIP3    H139443   1.398   1.513   5.248  0.9974 -2.8191  0.8704
 5984TIP3    H239444   1.434   1.596   5.370  0.1778 -1.3808  0.1665
 5985TIP3   OH239445   2.610   5.869   0.712 -0.0184 -0.1760  0.2416
 5985TIP3    H139446   2.589   5.945   0.658  0.9550 -0.5803 -0.7691
 5985TIP3    H239447   2.528   5.822   0.722 -0.1575 -0.3211 -1.3079
 5986TIP3   OH239448   4.785   0.844  11.226 -0.4735 -0.0302 -0.6425
 5986TIP3    H139449   4.733   0.771  11.193 -1.1387 -0.3424  1.0321
 5986TIP3    H239450   4.723   0.917  11.232 -0.1651  0.2535 -0.8538
 5987TIP3   OH239451   3.104   6.393  13.499 -0.3060  0.0677  0.0010
 5987TIP3    H139452   3.028   6.445  13.472 -0.6819 -2.0442 -3.6043
 5987TIP3    H239453   3.179   6.447  13.474 -0.5255  1.4494  2.0711
 5988TIP3   OH239454   1.820   3.380   4.578  0.3969 -0.3345 -0.1775
 5988TIP3    H139455   1.770   3.324   4.637  0.8893 -0.0851  0.4773
 5988TIP3    H239456   1.903   3.333   4.565 -0.5538 -1.5433 -2.5138
 5989TIP3   OH239457   4.386   5.507   3.939  0.3642  0.3134  0.0386
 5989TIP3    H139458   4.434   5.470   4.013  0.6517  1.4632  0.4511
 5989TIP3    H239459   4.421   5.596   3.930 -0.4050  0.5436 -0.8143
 5990TIP3   OH239460   6.787   5.933   5.576 -0.6328  0.5349  0.1381
 5990TIP3    H139461   6.843   5.884   5.637  0.0230  1.5353  0.3878
 5990TIP3    H239462   6.702   5.936   5.619 -0.6170 -0.1691  0.2279
 5991TIP3   OH239463   6.101   2.061   0.416 -0.2663  0.1182 -0.1240
 5991TIP3    H139464   6.123   2.154   0.414  1.4610 -0.2553 -1.4163
 5991TIP3    H239465   6.025   2.053   0.358 -0.0390  0.6619 -0.5099
 5992TIP3   OH239466   5.568   6.763   6.277  0.4454  0.1772  0.6887
 5992TIP3    H139467   5.492   6.710   6.298  0.4881 -0.1125  0.1310
 5992TIP3    H239468   5.629   6.703   6.234  0.8689  0.4726  0.8616
 5993TIP3   OH239469   1.936   2.160  13.201 -0.5623  0.6239 -0.1720
 5993TIP3    H139470   1.854   2.156  13.151 -0.2929 -0.4831 -0.5594
 5993TIP3    H239471   1.989   2.226  13.155 -1.1084  1.1127 -0.1086
 5994TIP3   OH239472   1.128   0.660   1.588  0.2113  0.0448 -0.5197
 5994TIP3    H139473   1.201   0.620   1.634  0.7260 -0.2168 -1.5338
 5994TIP3    H239474   1.071   0.693   1.657  0.9130 -0.4138  0.2936
 5995TIP3   OH239475   0.526   2.465  17.034 -0.4465  0.3887 -0.2219
 5995TIP3    H139476   0.554   2.555  17.021  0.5829 -0.3782 -4.5565
 5995TIP3    H239477   0.603   2.420  17.069  0.0452  0.5632 -1.0842
 5996TIP3   OH239478   1.060   2.782  16.389 -0.1771  0.5459  0.5445
 5996TIP3    H139479   0.975   2.754  16.354  0.6249  0.5017 -1.5283
 5996TIP3    H239480   1.099   2.702  16.424  0.3216 -0.1563 -1.4741
 5997TIP3   OH239481   6.488   6.645   3.154 -0.1977  0.1621 -0.2074
 5997TIP3    H139482   6.552   6.600   3.099  0.7508 -0.3659  1.2676
 5997TIP3    H239483   6.523   6.733   3.165 -1.1910  0.7710 -1.7029
 5998TIP3   OH239484   0.082   3.842   2.016  0.0709 -0.4801 -0.0639
 5998TIP3    H139485   0.125   3.908   1.961  0.0051 -0.0408  0.4036
 5998TIP3    H239486   0.011   3.889   2.059  1.2545 -0.3097  1.8675
 5999TIP3   OH239487   4.457   4.167   3.212 -0.4598  0.0096  0.0307
 5999TIP3    H139488   4.406   4.103   3.263  0.6972 -1.6036 -0.7357
 5999TIP3    H239489   4.477   4.236   3.275 -4.0224  1.0550  0.2370
 6000TIP3   OH239490   2.091   6.347  12.864 -0.1670  1.0135 -0.1782
 6000TIP3    H139491   2.017   6.286  12.868 -1.3380  2.4457  1.6700
 6000TIP3    H239492   2.168   6.291  12.857 -1.1887 -0.6886  1.3669
 6001TIP3   OH239493   2.044   5.899  11.894 -0.3045  0.5929 -0.1965
 6001TIP3    H139494   2.042   5.955  11.972  2.2753 -0.2171  0.5580
 6001TIP3    H239495   2.098   5.947  11.831 -1.7850  0.9177 -1.2696
 6002TIP3   OH239496   6.292   2.498   4.291  0.2621  0.5506  0.2280
 6002TIP3    H139497   6.312   2.422   4.238  1.8454 -0.0612  1.6217
 6002TIP3    H239498   6.250   2.463   4.369  2.6002  0.8317  1.7135
 6003TIP3   OH239499   1.351   4.096   5.028 -0.4107  0.2269 -0.2198
 6003TIP3    H139500   1.326   4.166   5.088 -0.4480  1.2128 -1.3531
 6003TIP3    H239501   1.314   4.121   4.944 -0.2256 -1.0447 -0.7080
 6004TIP3   OH239502   0.828   2.604   2.366 -0.7328 -0.1750  0.2889
 6004TIP3    H139503   0.800   2.665   2.298  0.7971 -1.4860 -1.6670
 6004TIP3    H239504   0.779   2.630   2.444 -1.2904  2.5216 -0.8294
 6005TIP3   OH239505   0.244   6.420  12.859  0.5457 -0.1709  0.2773
 6005TIP3    H139506   0.157   6.382  12.858  0.2454  0.4571  1.2590
 6005TIP3    H239507   0.291   6.371  12.926  0.6449  0.1469  0.4396
 6006TIP3   OH239508   0.020   1.708  10.876  0.2406 -0.3280 -0.0493
 6006TIP3    H139509   0.114   1.706  10.894  0.2728 -0.1273 -0.1874
 6006TIP3    H239510  -0.007   1.616  10.876  0.4782 -0.3971 -0.2313
 6007TIP3   OH239511   4.569   1.225  12.781 -0.3684  0.3131 -0.2443
 6007TIP3    H139512   4.543   1.287  12.849  1.4946 -0.2356  1.0586
 6007TIP3    H239513   4.522   1.145  12.803  1.7397 -0.4805  1.7009
 6008TIP3   OH239514   5.557   4.292   4.650 -0.4283 -0.2737  0.1306
 6008TIP3    H139515   5.566   4.343   4.569  0.1221 -0.1498  0.2657
 6008TIP3    H239516   5.611   4.339   4.713  0.7780 -1.4902  0.0402
 6009TIP3   OH239517   4.088   5.230   6.344  0.1002  0.3532  0.1795
 6009TIP3    H139518   4.141   5.161   6.385  0.0746  1.2609  1.8194
 6009TIP3    H239519   4.009   5.185   6.314  0.9594 -0.6785 -0.6244
 6010TIP3   OH239520   5.916   6.776   2.285 -0.1082  0.2613 -0.0085
 6010TIP3    H139521   5.853   6.717   2.326  0.3482 -0.1183  0.1686
 6010TIP3    H239522   5.869   6.858   2.274 -1.6962 -0.8597 -2.7614
 6011TIP3   OH239523   4.496   3.738   1.280  0.1211  0.3291  0.0748
 6011TIP3    H139524   4.422   3.799   1.290  0.5196  0.6831  0.9493
 6011TIP3    H239525   4.555   3.782   1.219  0.6595  1.0923  1.1115
 6012TIP3   OH239526   5.535   3.644   1.723  0.0823 -0.4413 -0.3071
 6012TIP3    H139527   5.532   3.612   1.633 -0.6630  0.0405 -0.4657
 6012TIP3    H239528   5.459   3.604   1.765  1.1685 -1.7348  0.4955
 6013TIP3   OH239529   4.864   0.780  11.843 -0.3091  0.2933 -0.3689
 6013TIP3    H139530   4.942   0.833  11.858  0.2906 -0.1156 -1.8371
 6013TIP3    H239531   4.808   0.796  11.920  1.4723  0.0943  1.0247
 6014TIP3   OH239532   1.363   4.304   4.136 -0.8250 -0.2590  0.4607
 6014TIP3    H139533   1.285   4.249   4.147 -0.8273 -0.4776 -0.5124
 6014TIP3    H239534   1.350   4.346   4.051  0.2261 -0.4811  0.1774
 6015TIP3   OH239535   2.348   6.127  16.113 -0.0986  0.0200  0.0353
 6015TIP3    H139536   2.425   6.090  16.070  1.2411 -0.1073  2.3560
 6015TIP3    H239537   2.380   6.208  16.153 -1.9545  1.5753 -1.4274
 6016TIP3   OH239538   5.132   5.610   1.784  0.2381  0.2582  0.2243
 6016TIP3    H139539   5.163   5.690   1.741  0.1297 -0.4981 -1.3685
 6016TIP3    H239540   5.202   5.546   1.768  1.1455  0.4219  2.9990
 6017TIP3   OH239541   1.309   0.032  16.782 -0.3804  0.4536 -0.1005
 6017TIP3    H139542   1.328  -0.058  16.807  0.1225  0.2504 -1.1805
 6017TIP3    H239543   1.308   0.031  16.687  0.8380  1.8294 -0.1640
 6018TIP3   OH239544   1.820   1.646  14.011 -0.2576  0.0114  0.7815
 6018TIP3    H139545   1.748   1.669  14.069 -0.1834  2.4801  0.0170
 6018TIP3    H239546   1.899   1.670  14.060 -0.1358  0.7613  0.2400
 6019TIP3   OH239547   0.593   2.086  13.000  0.3886 -0.2186 -0.2552
 6019TIP3    H139548   0.514   2.099  12.948  1.1107  0.0650 -1.3171
 6019TIP3    H239549   0.587   2.151  13.070 -0.5355 -0.5162 -0.0459
 6020TIP3   OH239550   6.629   5.985   4.236 -0.0019  0.7146  0.1792
 6020TIP3    H139551   6.610   6.068   4.194 -1.3068 -0.3968 -1.5755
 6020TIP3    H239552   6.619   6.002   4.330 -0.6738  2.4004 -0.1732
 6021TIP3   OH239553   3.731   1.960   4.771  0.0407  0.2623  0.1230
 6021TIP3    H139554   3.786   2.038   4.766 -0.0651  0.2437 -1.6362
 6021TIP3    H239555   3.643   1.995   4.788  0.3701  0.3405  1.9289
 6022TIP3   OH239556   4.360   6.302   2.476 -0.1150 -0.2116  0.0265
 6022TIP3    H139557   4.270   6.299   2.509 -0.2615 -2.0640 -0.4600
 6022TIP3    H239558   4.411   6.252   2.539  0.9628  2.2502  1.2397
 6023TIP3   OH239559   0.586   0.088   1.784  0.2084  0.2506  0.3465
 6023TIP3    H139560   0.586   0.181   1.810  0.4743  0.2190  0.4548
 6023TIP3    H239561   0.561   0.041   1.863 -1.8437  0.3570 -0.1643
 6024TIP3   OH239562   3.825   2.763   1.393  0.1260 -0.0496 -0.6553
 6024TIP3    H139563   3.747   2.811   1.365  0.0058  0.0045 -0.2323
 6024TIP3    H239564   3.847   2.708   1.317 -1.1397 -1.0923 -0.2960
 6025TIP3   OH239565   1.927   4.779   5.433  0.1913  0.4241  0.0004
 6025TIP3    H139566   1.838   4.803   5.405 -0.6227  0.0201  2.0659
 6025TIP3    H239567   1.981   4.795   5.356 -1.8943 -0.7739 -1.8237
 6026TIP3   OH239568   1.195   5.957  16.808  0.1571  0.2494  0.5432
 6026TIP3    H139569   1.105   5.978  16.785 -0.2484 -0.5824  1.3083
 6026TIP3    H239570   1.191   5.866  16.838  1.2084  0.2796  0.8033
 6027TIP3   OH239571   1.571   2.015   3.453  0.3176 -0.0495  0.0909
 6027TIP3    H139572   1.500   2.078   3.439  0.4681 -0.0724 -0.8355
 6027TIP3    H239573   1.593   2.024   3.546  0.0071  0.9132  0.0819
 6028TIP3   OH239574   5.042   6.568  11.945 -0.5200 -0.3265 -0.3075
 6028TIP3    H139575   5.092   6.561  12.027 -0.5262  0.1935 -0.2578
 6028TIP3    H239576   5.107   6.584  11.878 -0.6555  0.9661 -0.1571
 6029TIP3   OH239577   5.365   0.413   6.285 -0.0382  0.2730 -0.0873
 6029TIP3    H139578   5.342   0.325   6.315 -1.6754  1.1025  1.3017
 6029TIP3    H239579   5.283   0.463   6.292  0.6482  1.7221 -1.5937
 6030TIP3   OH239580   2.410   4.646   0.265 -0.0068 -0.4801 -0.7909
 6030TIP3    H139581   2.484   4.619   0.320  0.4731 -0.1197 -1.2611
 6030TIP3    H239582   2.336   4.650   0.326  0.9857  2.2751  0.3765
 6031TIP3   OH239583   0.365   3.558  11.812  0.9935  0.2279  0.4704
 6031TIP3    H139584   0.303   3.518  11.751  0.6205  0.6284  0.5822
 6031TIP3    H239585   0.445   3.507  11.801 -0.0381 -1.8840  2.0931
 6032TIP3   OH239586   2.337   1.329   3.157 -0.8905 -0.0275  0.5971
 6032TIP3    H139587   2.399   1.332   3.229 -0.6430  1.8006  0.3711
 6032TIP3    H239588   2.290   1.246   3.168 -0.2096 -0.2201  2.2900
 6033TIP3   OH239589   0.529   1.367  11.845  0.4533 -0.6844 -0.1028
 6033TIP3    H139590   0.467   1.355  11.916 -2.4359  1.2206 -2.0772
 6033TIP3    H239591   0.595   1.299  11.859 -2.4720 -3.4402  1.7098
 6034TIP3   OH239592   5.805   1.802   3.174 -0.1573  0.0720 -0.3396
 6034TIP3    H139593   5.759   1.743   3.235 -1.3945 -1.5203 -2.6526
 6034TIP3    H239594   5.735   1.843   3.123  0.8066  1.9636 -0.2493
 6035TIP3   OH239595   5.524   1.213  14.594 -0.3945  0.2553  0.3593
 6035TIP3    H139596   5.541   1.293  14.645  3.4345 -0.3331  0.3010
 6035TIP3    H239597   5.563   1.143  14.646 -1.0756 -1.1519 -0.9498
 6036TIP3   OH239598   0.587   2.488  13.414  0.2795  0.0015 -0.1362
 6036TIP3    H139599   0.667   2.435  13.406  0.9836  1.0674 -0.4560
 6036TIP3    H239600   0.584   2.539  13.332  0.4451  1.5294  0.7667
 6037TIP3   OH239601   1.259   2.491   1.932  0.1012 -0.4479 -0.5672
 6037TIP3    H139602   1.248   2.466   2.023  1.0434  0.9846 -0.0380
 6037TIP3    H239603   1.254   2.587   1.932 -1.8115 -0.4575 -2.2927
 6038TIP3   OH239604   0.570   3.576   1.843 -0.3674 -0.2713 -0.1373
 6038TIP3    H139605   0.515   3.650   1.819 -0.7037 -0.0740  1.1898
 6038TIP3    H239606   0.637   3.613   1.900 -0.3947 -0.9413  0.3452
 6039TIP3   OH239607   1.507   3.083  12.200  0.1390 -0.8065  0.8619
 6039TIP3    H139608   1.465   3.162  12.234 -0.5271 -1.3646  1.3787
 6039TIP3    H239609   1.557   3.113  12.125 -0.5455  0.0215  0.7158
 6040TIP3   OH239610   3.063   3.993   2.258  0.2990 -0.1706  0.0157
 6040TIP3    H139611   3.047   4.074   2.307 -0.1035 -0.5400  0.5200
 6040TIP3    H239612   3.131   4.015   2.195  2.0460 -0.0906  1.8351
 6041TIP3   OH239613   2.880   5.125  13.928  0.0141 -0.4903 -0.2412
 6041TIP3    H139614   2.809   5.113  13.990  0.7220 -0.7953  0.5278
 6041TIP3    H239615   2.837   5.149  13.846 -0.9220  0.0119  0.3874
 6042TIP3   OH239616   2.724   6.417  13.768 -0.0909 -0.4269  0.1741
 6042TIP3    H139617   2.794   6.352  13.761 -1.2633 -1.7147 -0.2721
 6042TIP3    H239618   2.684   6.418  13.681 -1.4722 -0.7542  0.7710
 6043TIP3   OH239619   5.979   0.725   2.233  0.1806 -0.3309 -0.4266
 6043TIP3    H139620   5.944   0.789   2.295  1.6725 -1.5382  1.8215
 6043TIP3    H239621   6.027   0.777   2.169  0.7860  0.8851  0.9558
 6044TIP3   OH239622   3.138   6.380   2.401  0.1107  0.4657 -0.1012
 6044TIP3    H139623   3.156   6.469   2.371  0.8853  0.3263 -0.0965
 6044TIP3    H239624   3.225   6.343   2.416 -0.2350  0.3317  1.7750
 6045TIP3   OH239625   3.347   6.094  16.253  0.0388  0.0059 -0.1237
 6045TIP3    H139626   3.319   6.120  16.341  3.7249 -0.3694  1.3226
 6045TIP3    H239627   3.362   6.177  16.207 -2.9962  0.2232 -0.9547
 6046TIP3   OH239628   3.279   6.306   5.093 -0.2324 -0.2163  0.1325
 6046TIP3    H139629   3.316   6.374   5.151  0.9215 -0.9081  0.2471
 6046TIP3    H239630   3.341   6.302   5.020 -0.5443 -0.8220 -0.0974
 6047TIP3   OH239631   5.842   4.889   4.177 -0.2924 -0.0143 -0.0753
 6047TIP3    H139632   5.773   4.935   4.129 -0.2097  0.3867  0.1870
 6047TIP3    H239633   5.798   4.814   4.217 -0.4527 -0.0970 -0.4042
 6048TIP3   OH239634   3.572   2.827   6.102 -0.6008  0.4517 -0.4836
 6048TIP3    H139635   3.563   2.803   6.194  1.0245  1.9731  0.1363
 6048TIP3    H239636   3.483   2.823   6.067 -0.9482 -2.3792  0.5159
 6049TIP3   OH239637   1.954   5.428  12.351 -0.3138 -0.5613  0.0018
 6049TIP3    H139638   1.995   5.460  12.270 -1.4137 -1.4057 -0.9308
 6049TIP3    H239639   1.974   5.334  12.351  0.8634 -0.3492  1.4693
 6050TIP3   OH239640   1.591   4.119   3.426 -0.0859  0.4840 -0.6734
 6050TIP3    H139641   1.509   4.105   3.474  0.2422 -1.1636 -0.5368
 6050TIP3    H239642   1.637   4.186   3.475 -0.9039  0.6944 -0.1724
 6051TIP3   OH239643   4.938   3.148  13.350  0.3464  0.7419  0.0125
 6051TIP3    H139644   4.921   3.240  13.330  1.6156  0.7334 -1.2038
 6051TIP3    H239645   5.001   3.151  13.422  0.7373  0.8209 -0.3349
 6052TIP3   OH239646   3.054   3.806  11.934 -0.6419 -0.0665 -0.1586
 6052TIP3    H139647   3.013   3.725  11.963 -0.4705  0.5620  2.0542
 6052TIP3    H239648   3.144   3.782  11.912 -0.8204 -0.5990 -0.3181
 6053TIP3   OH239649   5.371   0.946   5.808 -0.6082  0.7321 -0.2321
 6053TIP3    H139650   5.422   0.952   5.727  1.5102  1.9593  1.0911
 6053TIP3    H239651   5.378   1.034   5.847  0.1968 -0.3510  2.2512
 6054TIP3   OH239652   4.942   2.121  13.312 -0.2143  0.0422 -0.1097
 6054TIP3    H139653   5.020   2.068  13.298  0.1706  0.8100 -0.9842
 6054TIP3    H239654   4.975   2.209  13.328 -0.8745  0.2092  0.4025
 6055TIP3   OH239655   2.063   0.606   0.169 -0.2907 -0.0727  0.1281
 6055TIP3    H139656   2.038   0.559   0.249 -2.0919 -1.0899 -0.9568
 6055TIP3    H239657   2.003   0.681   0.166 -0.4075 -0.1813 -0.3770
 6056TIP3   OH239658   3.032   0.783  13.876 -0.0246 -1.0359 -0.7137
 6056TIP3    H139659   3.103   0.829  13.831 -0.4972  0.7138  0.1996
 6056TIP3    H239660   2.954   0.805  13.826 -0.5261  0.7709  0.7098
 6057TIP3   OH239661   0.172   5.582   2.628  0.0773 -0.5092 -0.1184
 6057TIP3    H139662   0.266   5.587   2.613  0.5532  0.1725  2.4428
 6057TIP3    H239663   0.138   5.665   2.596  0.4842 -0.4325 -0.3529
 6058TIP3   OH239664   5.519   3.527   6.037  0.1286 -0.0044  0.1440
 6058TIP3    H139665   5.480   3.541   5.950  0.2231  1.1373  0.2712
 6058TIP3    H239666   5.572   3.605   6.052  0.4700 -0.4003  1.0435
 6059TIP3   OH239667   2.424   6.442  13.421  0.3126 -0.4167  0.1760
 6059TIP3    H139668   2.382   6.511  13.472 -1.7915 -0.0117 -1.8957
 6059TIP3    H239669   2.402   6.361  13.467 -1.3609 -0.0470  0.0783
 6060TIP3   OH239670   3.971   5.804  14.504  0.4890 -0.3389 -0.0726
 6060TIP3    H139671   4.025   5.733  14.539 -0.7470 -1.4969 -0.4762
 6060TIP3    H239672   3.946   5.855  14.581 -0.2111 -1.4651  0.4540
 6061TIP3   OH239673   0.976   4.126   1.872  0.2226 -0.3317 -0.1827
 6061TIP3    H139674   1.049   4.111   1.810  1.8368  1.9259  1.0340
 6061TIP3    H239675   1.017   4.169   1.946 -2.2654  0.1517  0.9899
 6062TIP3   OH239676   2.246   2.715   5.149 -0.1304  0.7714  0.0091
 6062TIP3    H139677   2.335   2.750   5.151  0.0990  0.1695  1.2432
 6062TIP3    H239678   2.198   2.767   5.213 -0.2308 -0.0192  0.5857
 6063TIP3   OH239679   6.737   5.438  11.082 -0.4701 -0.1488  0.1537
 6063TIP3    H139680   6.831   5.418  11.073 -0.4323 -0.2079  0.6355
 6063TIP3    H239681   6.693   5.369  11.033 -0.2672 -0.2215  0.0709
 6064TIP3   OH239682   3.898   6.294   4.726 -0.9332 -0.0873 -0.5271
 6064TIP3    H139683   3.980   6.275   4.772 -0.7394 -0.1688 -0.9039
 6064TIP3    H239684   3.893   6.228   4.658 -2.5685 -1.6883  1.0462
 6065TIP3   OH239685   5.211   4.882   2.684  0.2715  0.7045  1.0240
 6065TIP3    H139686   5.269   4.814   2.650  0.7628  1.4420  0.3764
 6065TIP3    H239687   5.270   4.951   2.713 -0.2815  1.6829 -0.1110
 6066TIP3   OH239688   1.030   6.648  14.286  0.0558  0.2045 -0.5128
 6066TIP3    H139689   1.109   6.703  14.288  0.8514 -0.9052 -0.7373
 6066TIP3    H239690   1.030   6.602  14.369  0.0666 -0.3887 -0.8394
 6067TIP3   OH239691   0.760   1.826  12.899  0.4365 -0.2585 -0.2468
 6067TIP3    H139692   0.727   1.792  12.982  2.0462 -1.2747  0.0096
 6067TIP3    H239693   0.758   1.921  12.910  0.0985 -0.3639  0.7351
 6068TIP3   OH239694   6.388   3.182  12.254  0.3989 -0.1593 -0.1489
 6068TIP3    H139695   6.330   3.140  12.318  0.7166  0.8228  0.8288
 6068TIP3    H239696   6.332   3.201  12.179 -0.8269  1.5702  1.1222
 6069TIP3   OH239697   1.802   4.991  10.318 -0.4105  0.1849 -0.0356
 6069TIP3    H139698   1.839   4.920  10.371  3.0716  1.5609 -0.3836
 6069TIP3    H239699   1.843   5.070  10.352 -3.0161  1.9247 -0.6619
 6070TIP3   OH239700   1.549   0.647   4.950  0.1516 -0.1177 -0.2212
 6070TIP3    H139701   1.532   0.741   4.963  0.6919  0.3896 -2.6353
 6070TIP3    H239702   1.641   0.643   4.924  0.1113 -1.3173 -0.2062
 6071TIP3   OH239703   0.226   3.827  14.035  0.5381 -0.3849 -0.3160
 6071TIP3    H139704   0.144   3.846  14.080  0.1602 -0.9935 -0.7188
 6071TIP3    H239705   0.278   3.778  14.099  0.4874 -0.2027 -0.1367
 6072TIP3   OH239706   0.477   3.762   3.248 -0.9063 -0.5301  0.2318
 6072TIP3    H139707   0.464   3.674   3.283 -0.1786 -1.1512 -0.9933
 6072TIP3    H239708   0.569   3.781   3.264 -0.6448 -0.6902 -1.0235
 6073TIP3   OH239709   2.967   4.643   4.253  0.4808  0.1028  0.2619
 6073TIP3    H139710   2.900   4.608   4.312  0.8151  1.4069  1.4867
 6073TIP3    H239711   2.918   4.673   4.176 -0.3493  0.8077  1.0354
 6074TIP3   OH239712   3.695   4.936  14.584  0.1078  0.7189 -0.6034
 6074TIP3    H139713   3.724   4.867  14.524  0.4851  0.3280  0.0200
 6074TIP3    H239714   3.654   4.889  14.656 -2.0168  1.2465 -1.3939
 6075TIP3   OH239715   5.894   3.824  11.203  0.2525  0.3998  0.4030
 6075TIP3    H139716   5.829   3.758  11.178 -0.2079  0.9365  0.1457
 6075TIP3    H239717   5.898   3.819  11.298 -0.0236  0.2262  0.4061
 6076TIP3   OH239718   6.457   3.706   6.379  0.0879 -1.2898 -0.4952
 6076TIP3    H139719   6.503   3.788   6.398 -0.9469 -0.4402 -1.5085
 6076TIP3    H239720   6.433   3.671   6.465 -0.6268  0.1698 -0.0783
 6077TIP3   OH239721   1.949   2.685   0.978  0.0724  0.2751  0.4052
 6077TIP3    H139722   1.893   2.726   1.044  0.6770  0.5730  0.7343
 6077TIP3    H239723   2.026   2.655   1.026  0.9307  1.2844 -0.2872
 6078TIP3   OH239724   1.215   0.355  14.870  0.3789 -0.3829  0.6949
 6078TIP3    H139725   1.229   0.261  14.882  0.5592 -0.2664  1.4692
 6078TIP3    H239726   1.244   0.372  14.780 -3.1217 -1.6969 -0.8510
 6079TIP3   OH239727   5.161   6.534  11.677  0.3789  0.1238 -0.0986
 6079TIP3    H139728   5.109   6.596  11.626 -0.3223 -1.2625 -1.1283
 6079TIP3    H239729   5.112   6.452  11.672  2.5149 -1.1658 -0.8413
 6080TIP3   OH239730   3.500   2.498  14.199 -0.1052 -0.3377 -0.6464
 6080TIP3    H139731   3.476   2.418  14.246  0.7220 -1.4567 -2.0360
 6080TIP3    H239732   3.419   2.547  14.191 -0.2940 -0.1509  1.7885
 6081TIP3   OH239733   1.882   5.238  11.556  0.1062  0.1327  0.3715
 6081TIP3    H139734   1.838   5.292  11.491 -0.8207  0.8487  1.5388
 6081TIP3    H239735   1.973   5.235  11.528 -0.7051 -1.9710 -2.5156
 6082TIP3   OH239736   1.041   6.469   3.802  0.1626 -0.0629  0.3064
 6082TIP3    H139737   1.032   6.380   3.835 -0.3763 -0.0334  0.2415
 6082TIP3    H239738   0.971   6.518   3.845  0.3001  0.2737  0.1514
 6083TIP3   OH239739   2.927   3.460  13.623 -0.0700 -0.0983  0.8112
 6083TIP3    H139740   2.901   3.492  13.537  1.8673  0.7146  0.4852
 6083TIP3    H239741   2.877   3.513  13.685 -0.6662  0.0438  0.2236
 6084TIP3   OH239742   1.290   3.884   1.735  0.7063  0.3926 -0.0212
 6084TIP3    H139743   1.243   3.870   1.818 -0.0935  0.5382 -0.4349
 6084TIP3    H239744   1.267   3.974   1.710  2.2972  0.9550  0.4285
 6085TIP3   OH239745   4.643   2.638  13.005 -0.3027 -0.2081  0.5233
 6085TIP3    H139746   4.618   2.650  12.914  0.5611  0.5382  0.3675
 6085TIP3    H239747   4.603   2.555  13.030 -0.5114 -0.4482 -0.5454
 6086TIP3   OH239748   6.460   2.179   3.348 -0.3635 -0.4403  0.1730
 6086TIP3    H139749   6.544   2.166   3.393  1.3712  1.3263 -2.2918
 6086TIP3    H239750   6.410   2.100   3.368  1.0447 -0.6832  3.3763
 6087TIP3   OH239751   5.945   4.197  13.878 -0.1565 -0.2933  0.0388
 6087TIP3    H139752   5.983   4.262  13.819 -1.1101 -2.1200 -2.7501
 6087TIP3    H239753   5.992   4.116  13.859  0.5705 -0.6797  2.9783
 6088TIP3   OH239754   1.912   3.091  12.423  0.0111 -0.1699 -0.0253
 6088TIP3    H139755   1.888   3.032  12.351 -0.6234  0.7282 -0.5795
 6088TIP3    H239756   1.976   3.042  12.474  1.1781 -0.5013 -1.7341
 6089TIP3   OH239757   4.354   1.604  17.298  0.0900 -0.1369  0.0322
 6089TIP3    H139758   4.337   1.698  17.311 -0.9981 -0.3623  0.3180
 6089TIP3    H239759   4.415   1.601  17.225  0.1254  0.7953  0.0085
 6090TIP3   OH239760   1.339   1.771  11.780  0.5348  0.3290 -0.4018
 6090TIP3    H139761   1.394   1.693  11.783  2.3848  1.6085  1.3053
 6090TIP3    H239762   1.274   1.757  11.850  0.6365  0.1758 -0.3384
 6091TIP3   OH239763   4.538   0.425  14.207  0.1601 -0.4730  0.1317
 6091TIP3    H139764   4.535   0.510  14.163  2.6862 -0.0076  0.6873
 6091TIP3    H239765   4.526   0.445  14.299 -1.8248 -1.0641  0.0353
 6092TIP3   OH239766   0.518   4.815  14.710 -1.0866  0.1553  0.3058
 6092TIP3    H139767   0.572   4.795  14.786  0.4060 -0.7484 -0.9452
 6092TIP3    H239768   0.457   4.883  14.741 -0.0621  0.3174  2.0930
 6093TIP3   OH239769   1.014   3.020  14.247  0.3638 -0.0660  0.0852
 6093TIP3    H139770   1.060   3.003  14.328  1.9408  1.9231 -0.3000
 6093TIP3    H239771   0.929   3.055  14.274  0.1121 -1.2061  0.8251
 6094TIP3   OH239772   4.117   5.174   0.862  0.5068 -0.5736 -0.2197
 6094TIP3    H139773   4.075   5.100   0.906  0.8957 -1.2385 -0.9400
 6094TIP3    H239774   4.210   5.165   0.882  0.4206  0.4627  0.7431
 6095TIP3   OH239775   2.473   4.232   2.275 -0.1144 -0.1724 -0.4654
 6095TIP3    H139776   2.558   4.270   2.298  0.3746 -1.3739 -0.1784
 6095TIP3    H239777   2.427   4.222   2.359 -0.4932  0.3487 -0.6055
 6096TIP3   OH239778   4.583   6.167   0.135  0.3085  0.0564  0.6617
 6096TIP3    H139779   4.607   6.079   0.165 -1.5690 -0.7747 -0.0966
 6096TIP3    H239780   4.656   6.193   0.079  1.0960 -0.8266  1.2330
 6097TIP3   OH239781   5.665   2.364   0.251  0.0657 -0.2926  0.1585
 6097TIP3    H139782   5.650   2.313   0.330  0.8475  1.9564  1.8821
 6097TIP3    H239783   5.757   2.392   0.258 -0.3434  1.3753 -0.6061
 6098TIP3   OH239784   3.458   6.082   5.555  0.1748 -0.1387  0.5108
 6098TIP3    H139785   3.494   6.061   5.641  0.0344  1.0027  0.8738
 6098TIP3    H239786   3.366   6.099   5.570  0.2100  0.3732  0.1966
 6099TIP3   OH239787   2.999   2.026   3.662 -0.3592  0.4441  0.8231
 6099TIP3    H139788   3.048   1.979   3.594 -0.8813  0.2456  0.5805
 6099TIP3    H239789   3.039   1.997   3.744 -1.1282 -1.0024  0.7267
 6100TIP3   OH239790   2.023   4.207   4.582  0.0711  0.5811 -0.2343
 6100TIP3    H139791   2.066   4.147   4.642  1.0870  1.3590 -0.1617
 6100TIP3    H239792   1.931   4.207   4.610 -0.1424 -1.5572 -0.7891
 6101TIP3   OH239793   4.855   0.224   5.931  0.7539 -0.0240 -0.1966
 6101TIP3    H139794   4.943   0.239   5.967  0.6626  0.0031  0.0137
 6101TIP3    H239795   4.871   0.192   5.842  0.9695  0.4058 -0.3152
 6102TIP3   OH239796   4.515   0.411  13.212  0.2657 -1.0418  0.1594
 6102TIP3    H139797   4.592   0.467  13.199 -0.2848 -0.2320  0.2743
 6102TIP3    H239798   4.527   0.338  13.151  1.3858 -1.2154  0.5585
 6103TIP3   OH239799   2.651   3.322   0.863  0.2294  0.1993  0.4656
 6103TIP3    H139800   2.680   3.379   0.933  1.0017 -0.0290  0.3389
 6103TIP3    H239801   2.730   3.302   0.813 -0.4347  1.0840 -1.0161
 6104TIP3   OH239802   2.584   5.710   5.190  0.3643 -0.8061  0.0017
 6104TIP3    H139803   2.549   5.774   5.128  1.3374 -0.5388 -0.3001
 6104TIP3    H239804   2.582   5.755   5.275  0.8620 -0.4402 -0.1772
 6105TIP3   OH239805   1.691   1.006   0.424 -0.6234 -0.2827 -0.2148
 6105TIP3    H139806   1.747   1.056   0.483 -2.1821  1.2331  0.0872
 6105TIP3    H239807   1.622   0.972   0.482 -0.8872 -0.7419 -0.7986
 6106TIP3   OH239808   1.442   2.773   6.386  0.6284 -0.1841 -0.5167
 6106TIP3    H139809   1.499   2.843   6.353  0.4785 -0.5145 -1.5236
 6106TIP3    H239810   1.502   2.703   6.411  0.8900  0.7902  1.8676
 6107TIP3   OH239811   5.224   2.040  16.254  0.0316  0.3221  0.3216
 6107TIP3    H139812   5.130   2.027  16.270  0.6760 -2.9161  2.4454
 6107TIP3    H239813   5.235   2.024  16.160 -1.5584  1.1823 -0.0479
 6108TIP3   OH239814   4.484   3.991  15.380  0.6124  0.1607  0.0332
 6108TIP3    H139815   4.493   4.022  15.290 -0.3476 -0.0012 -0.1319
 6108TIP3    H239816   4.457   3.900  15.371 -1.3202  0.6541  0.4418
 6109TIP3   OH239817   3.794   3.071   3.979  0.0893 -0.3375 -0.3646
 6109TIP3    H139818   3.780   2.990   3.930 -2.5021  0.3236 -0.8743
 6109TIP3    H239819   3.812   3.137   3.911 -0.6243  0.0282 -0.2071
 6110TIP3   OH239820   1.177   1.225   0.406 -0.1888  0.4945  0.5469
 6110TIP3    H139821   1.147   1.183   0.325 -1.3949  1.0961  0.6615
 6110TIP3    H239822   1.204   1.153   0.462 -0.8817 -0.0375  0.2120
 6111TIP3   OH239823   6.098   4.629   2.712  0.3469  0.6554 -0.5771
 6111TIP3    H139824   6.169   4.671   2.760  2.5488 -2.9532 -0.2392
 6111TIP3    H239825   6.042   4.591   2.781  0.4781 -0.0112 -0.8307
 6112TIP3   OH239826   3.954   3.132   2.366 -0.3215 -0.3247  0.2871
 6112TIP3    H139827   3.930   3.070   2.436 -0.6006  0.3293  0.7776
 6112TIP3    H239828   4.049   3.121   2.357 -0.3624 -0.8000  0.3885
 6113TIP3   OH239829   1.452   3.927  12.022  0.4170  0.4998 -0.3264
 6113TIP3    H139830   1.529   3.896  12.069  0.5943  1.2318 -0.1252
 6113TIP3    H239831   1.450   3.874  11.942  0.2981 -0.5155  0.3341
 6114TIP3   OH239832   1.606   6.662   3.470  0.0072  0.5880  0.2037
 6114TIP3    H139833   1.613   6.718   3.392 -1.5612  0.5237 -0.0123
 6114TIP3    H239834   1.536   6.601   3.449  0.4340 -0.2591  1.1867
 6115TIP3   OH239835   2.885   2.425   4.067  0.1687  0.2175 -0.0699
 6115TIP3    H139836   2.826   2.359   4.029 -0.2908 -0.9888  2.5424
 6115TIP3    H239837   2.827   2.495   4.096  0.3410  0.3982 -0.1628
 6116TIP3   OH239838   2.160   5.865   1.290 -0.1078 -0.1249 -1.0095
 6116TIP3    H139839   2.117   5.781   1.273 -0.9564 -0.7459  3.1447
 6116TIP3    H239840   2.226   5.845   1.357  0.4689  2.3595 -0.7273
 6117TIP3   OH239841   1.076   5.184  15.287 -0.4301 -0.2811 -0.6915
 6117TIP3    H139842   1.019   5.140  15.350  1.9388 -0.4479  1.4546
 6117TIP3    H239843   1.063   5.278  15.305 -0.6210 -0.2877 -0.7861
 6118TIP3   OH239844   4.386   1.972   5.708  0.1298  0.5407 -0.0359
 6118TIP3    H139845   4.421   2.059   5.687  0.9027  0.0780 -0.7023
 6118TIP3    H239846   4.315   1.959   5.646 -0.4518  0.9696  0.5182
 6119TIP3   OH239847   5.181   0.875   2.639 -0.0408 -0.1015 -0.1461
 6119TIP3    H139848   5.104   0.836   2.597 -1.1538  0.0554  1.6310
 6119TIP3    H239849   5.145   0.942   2.697  1.4203 -0.1053  0.8315
 6120TIP3   OH239850   6.246   2.570  10.940  0.2215 -0.5193 -0.1068
 6120TIP3    H139851   6.306   2.610  10.878  0.7064 -0.2580  0.5197
 6120TIP3    H239852   6.159   2.583  10.901  0.5897 -1.2288 -1.1926
 6121TIP3   OH239853   1.309   2.765   3.851  0.1002  0.2249 -0.5316
 6121TIP3    H139854   1.347   2.805   3.929 -0.1859 -1.1026  0.3336
 6121TIP3    H239855   1.376   2.776   3.783  0.9813  0.1365  0.2970
 6122TIP3   OH239856   1.083   6.004   1.164 -0.1228 -0.1827  0.0562
 6122TIP3    H139857   1.052   6.077   1.110 -0.0458 -0.4064 -0.2884
 6122TIP3    H239858   1.004   5.953   1.184 -0.0796 -0.3670 -0.2444
 6123TIP3   OH239859   3.820   1.039   3.239  0.2157  0.0235 -0.0093
 6123TIP3    H139860   3.913   1.051   3.255  0.3437 -1.6239  0.6336
 6123TIP3    H239861   3.781   1.038   3.327 -0.4473  0.8436 -0.2777
 6124TIP3   OH239862   0.938   0.410  14.663 -0.2326  0.2522 -0.0517
 6124TIP3    H139863   0.992   0.341  14.625  1.1877  1.1626  0.2139
 6124TIP3    H239864   0.953   0.403  14.758 -0.1501  0.8490 -0.0157
 6125TIP3   OH239865   3.641   5.311   4.963  0.1291 -0.1409  0.3025
 6125TIP3    H139866   3.583   5.385   4.983 -0.5633 -0.7848  0.7575
 6125TIP3    H239867   3.723   5.333   5.007  0.5426  1.1779 -1.0367
 6126TIP3   OH239868   0.081   5.463  15.633  0.3297  0.3152  0.2580
 6126TIP3    H139869   0.025   5.445  15.557  1.7295  2.3844 -1.3763
 6126TIP3    H239870   0.051   5.402  15.700 -1.7962 -0.7530 -1.5464
 6127TIP3   OH239871   3.284   4.694  15.109  0.2761 -0.2293 -0.4891
 6127TIP3    H139872   3.293   4.699  15.014 -0.8182  2.5029 -0.5467
 6127TIP3    H239873   3.218   4.760  15.130  0.6109 -0.6448  2.1935
 6128TIP3   OH239874   1.513   4.433  11.952 -0.2268  0.5828 -0.1747
 6128TIP3    H139875   1.469   4.348  11.954  2.2828 -0.8172 -0.9091
 6128TIP3    H239876   1.521   4.457  12.044  0.3504 -0.7474  0.1549
 6129TIP3   OH239877   0.832   4.822   0.988  0.2408 -0.4179  0.1323
 6129TIP3    H139878   0.882   4.802   1.067 -0.4405  1.3663  1.0682
 6129TIP3    H239879   0.888   4.882   0.938  0.3159 -0.8787 -0.3527
 6130TIP3   OH239880   4.632   6.108   3.889 -0.2740  0.3666 -0.1652
 6130TIP3    H139881   4.542   6.113   3.858 -0.4602  0.1156  0.3206
 6130TIP3    H239882   4.628   6.047   3.963  0.2983  0.3318 -0.1596
 6131TIP3   OH239883   4.504   5.700  16.338 -0.6253  0.2607 -0.1951
 6131TIP3    H139884   4.430   5.677  16.281 -1.1218  0.3221  0.4072
 6131TIP3    H239885   4.475   5.674  16.425 -0.3738  1.2926  0.2105
 6132TIP3   OH239886   0.008   5.656   4.670  0.6178  0.1857 -0.0364
 6132TIP3    H139887  -0.037   5.588   4.719 -0.0065  1.0170  0.5634
 6132TIP3    H239888   0.019   5.620   4.582 -2.1878  0.3541 -0.5347
 6133TIP3   OH239889   5.021   1.195   5.391 -0.5387  0.0699  0.3064
 6133TIP3    H139890   5.003   1.288   5.402 -0.3295  0.0494  0.8373
 6133TIP3    H239891   5.039   1.163   5.480  0.7399 -0.1960 -0.0370
 6134TIP3   OH239892   3.196   4.041  17.127  0.1802  0.0080 -0.2803
 6134TIP3    H139893   3.105   4.019  17.144  0.5207 -1.6106 -0.4064
 6134TIP3    H239894   3.219   3.992  17.049  1.1418  0.4518 -0.2964
 6135TIP3   OH239895   2.940   5.384   5.041 -0.4487  0.5688 -0.1404
 6135TIP3    H139896   2.853   5.371   5.003 -0.1054 -1.7105 -0.2918
 6135TIP3    H239897   2.934   5.467   5.087 -1.8040  1.9655 -2.6104
 6136TIP3   OH239898   6.140   1.365  12.396  0.0821 -0.3614 -0.3153
 6136TIP3    H139899   6.098   1.345  12.313 -0.1748  0.4633 -0.3973
 6136TIP3    H239900   6.205   1.296  12.408  0.5037 -0.1842 -1.4649
 6137TIP3   OH239901   1.305   3.539   2.637 -0.3399  0.7680 -0.1496
 6137TIP3    H139902   1.235   3.585   2.683 -0.3660 -0.4979  1.1208
 6137TIP3    H239903   1.386   3.581   2.667 -0.4594  1.2826 -0.5288
 6138TIP3   OH239904   5.619   2.839   2.703 -0.9978 -0.0832 -0.4973
 6138TIP3    H139905   5.618   2.771   2.770 -0.8713  0.3953  0.0048
 6138TIP3    H239906   5.613   2.792   2.620  0.9074 -0.8228 -0.2717
 6139TIP3   OH239907   4.089   0.066   2.953 -0.0615 -0.3230 -0.0361
 6139TIP3    H139908   4.175   0.072   2.911  0.3169  2.2372  0.9539
 6139TIP3    H239909   4.034   0.128   2.904 -0.9344 -0.8293  0.2845
 6140TIP3   OH239910   0.120   6.799   6.667  0.0842  0.7421 -0.3787
 6140TIP3    H139911   0.140   6.888   6.641 -0.2241  0.7006 -0.7729
 6140TIP3    H239912   0.136   6.796   6.761 -0.7846  1.4613 -0.1993
 6141TIP3   OH239913   2.831   4.891   0.086  0.1653 -0.3428  0.1346
 6141TIP3    H139914   2.744   4.854   0.076 -0.0312  0.6022 -2.4447
 6141TIP3    H239915   2.883   4.847   0.018  0.9383  1.1212 -0.2621
 6142TIP3   OH239916   2.986   2.102  15.361  0.0045  0.4401  0.8678
 6142TIP3    H139917   2.980   2.132  15.451 -1.3871  0.9284  0.6387
 6142TIP3    H239918   3.080   2.103  15.341  0.3350  0.2603  2.3105
 6143TIP3   OH239919   3.167   0.593  15.710  0.2486 -0.2572 -0.8058
 6143TIP3    H139920   3.100   0.594  15.778 -0.7630  0.5972 -1.7770
 6143TIP3    H239921   3.249   0.582  15.758 -0.5873 -1.8760  0.3780
 6144TIP3   OH239922   4.166   0.625   4.830  0.0195  0.0736  0.0837
 6144TIP3    H139923   4.258   0.629   4.804  0.4503 -0.9254  1.3443
 6144TIP3    H239924   4.140   0.717   4.840  0.7261  0.3796 -0.7730
 6145TIP3   OH239925   6.316   2.729   1.593  0.2228 -1.1274 -0.0791
 6145TIP3    H139926   6.333   2.818   1.624  0.3480 -1.3762  0.5800
 6145TIP3    H239927   6.227   2.733   1.558  0.8031 -0.3576 -1.5243
 6146TIP3   OH239928   4.987   1.609  11.941 -0.1627 -0.0113 -0.5855
 6146TIP3    H139929   4.974   1.518  11.915 -0.5558 -0.7456  1.9744
 6146TIP3    H239930   4.899   1.648  11.937 -0.2917 -0.2358  0.0300
 6147TIP3   OH239931   6.093   5.747  13.375 -0.1082  0.1045  0.0800
 6147TIP3    H139932   6.089   5.686  13.448 -1.7867  0.4589  0.3016
 6147TIP3    H239933   6.083   5.834  13.415  1.5444  0.5262 -0.3121
 6148TIP3   OH239934   1.135   0.896   1.403 -0.1591  0.2311  0.0235
 6148TIP3    H139935   1.040   0.893   1.390 -0.0182 -0.1587 -1.0523
 6148TIP3    H239936   1.153   0.825   1.465 -0.5077 -0.0637 -0.2060
 6149TIP3   OH239937   0.152   3.639   4.508 -0.2278 -0.0630 -0.0192
 6149TIP3    H139938   0.176   3.675   4.593 -0.2853  0.6335 -0.2901
 6149TIP3    H239939   0.101   3.560   4.528 -0.8222  0.4719  0.5965
 6150TIP3   OH239940   5.326   2.486   3.921 -0.7733 -0.0212  0.4690
 6150TIP3    H139941   5.391   2.556   3.915  0.0588 -0.7100  1.2194
 6150TIP3    H239942   5.353   2.422   3.855 -3.5879  1.8973 -2.9240
 6151TIP3   OH239943   6.337   0.379  14.142 -0.2737 -0.0637 -0.0828
 6151TIP3    H139944   6.256   0.378  14.092 -0.2317 -0.1354 -0.1501
 6151TIP3    H239945   6.335   0.461  14.190 -0.9114 -0.5618  0.7719
 6152TIP3   OH239946   6.330   6.296  16.388  0.1141 -0.2601 -0.0301
 6152TIP3    H139947   6.419   6.299  16.421  0.8390 -1.5205 -1.7457
 6152TIP3    H239948   6.281   6.246  16.454  0.5083  0.8789  1.1755
 6153TIP3   OH239949   5.717   0.908   3.907 -0.3655 -0.1187 -0.0800
 6153TIP3    H139950   5.779   0.863   3.964  1.0444 -0.4185 -1.7682
 6153TIP3    H239951   5.634   0.905   3.955  0.1547 -2.6039  0.8059
 6154TIP3   OH239952   0.983   6.643  16.651 -0.3689 -0.7753 -0.2248
 6154TIP3    H139953   0.985   6.733  16.618 -1.1957 -0.3572  0.7888
 6154TIP3    H239954   0.925   6.648  16.727 -1.8360 -2.5041 -1.1681
 6155TIP3   OH239955   6.507   1.864  10.589 -0.4133 -0.4526  0.2808
 6155TIP3    H139956   6.447   1.916  10.642 -1.0446  0.4901 -1.2836
 6155TIP3    H239957   6.542   1.798  10.649 -0.5759  0.9606  2.0100
 6156TIP3   OH239958   2.174   2.359  14.920  0.0139  0.4890 -0.2994
 6156TIP3    H139959   2.222   2.355  14.837 -0.5357 -1.0423 -0.5717
 6156TIP3    H239960   2.083   2.370  14.894 -0.1101  0.4398  0.1106
 6157TIP3   OH239961   6.044   3.928   0.489  0.3751 -0.0992 -0.2455
 6157TIP3    H139962   5.994   3.854   0.455 -0.3314  0.5079 -0.5454
 6157TIP3    H239963   6.122   3.931   0.433  0.3088 -0.4769 -0.3640
 6158TIP3   OH239964   1.706   0.138  12.269  0.1987 -0.2656 -0.1184
 6158TIP3    H139965   1.713   0.088  12.188  2.3196  0.9527 -0.7565
 6158TIP3    H239966   1.626   0.105  12.311 -0.9656 -0.9051 -2.6855
 6159TIP3   OH239967   2.495   0.829  11.070 -0.2416 -0.6446 -0.2736
 6159TIP3    H139968   2.469   0.833  11.162  0.1289 -1.1197 -0.1427
 6159TIP3    H239969   2.436   0.763  11.032 -0.3484 -0.4983 -0.3653
 6160TIP3   OH239970   3.614   2.817   4.056 -0.3750  0.0376 -0.0659
 6160TIP3    H139971   3.563   2.806   4.136  0.6039 -0.2625  0.5316
 6160TIP3    H239972   3.559   2.871   3.999 -0.6400  1.1601  1.2203
 6161TIP3   OH239973   0.540   1.651   3.290 -0.7559 -0.1864 -0.9109
 6161TIP3    H139974   0.631   1.643   3.263  0.4737  2.1259  1.9958
 6161TIP3    H239975   0.509   1.732   3.248 -1.6611 -1.1257 -2.1466
 6162TIP3   OH239976   2.991   0.633  15.904 -0.3272  0.4526 -0.2889
 6162TIP3    H139977   2.933   0.704  15.931 -0.1258  0.3986  0.2962
 6162TIP3    H239978   2.935   0.557  15.897 -0.4694  0.5765 -0.5153
 6163TIP3   OH239979   4.814   5.823   5.270  0.1983  0.4512  0.0412
 6163TIP3    H139980   4.895   5.811   5.319 -0.1712 -2.9973  0.0789
 6163TIP3    H239981   4.842   5.856   5.185  1.5272  0.2331  0.3738
 6164TIP3   OH239982   6.013   2.449  14.655  0.2344 -0.3282 -0.2570
 6164TIP3    H139983   6.031   2.376  14.595  0.5342 -0.7253  0.3032
 6164TIP3    H239984   6.100   2.483  14.678  0.2001 -0.9098  0.8291
 6165TIP3   OH239985   1.690   0.652   1.847 -0.0107 -0.4489  0.2160
 6165TIP3    H139986   1.609   0.701   1.833  1.2785  1.2575 -1.8558
 6165TIP3    H239987   1.738   0.702   1.912  0.1259 -0.5011  0.1558
 6166TIP3   OH239988   1.256   0.571   1.830 -0.9524  0.4893  0.1373
 6166TIP3    H139989   1.249   0.571   1.926  1.3251  2.7860  0.3973
 6166TIP3    H239990   1.288   0.483   1.809  0.4022  0.5588  1.7148
 6167TIP3   OH239991   4.830   1.503   1.422 -0.1185  0.0403  0.1985
 6167TIP3    H139992   4.844   1.526   1.330  2.5577  1.9309  0.9691
 6167TIP3    H239993   4.838   1.586   1.468 -2.3189 -0.7115  2.1427
 6168TIP3   OH239994   2.977   0.462  13.389  0.0934 -0.5366  0.2596
 6168TIP3    H139995   3.013   0.375  13.371  0.8118 -0.5134  1.4636
 6168TIP3    H239996   3.012   0.485  13.475 -1.8306  0.0270  0.9349
 6169TIP3   OH239997   4.265   6.767   0.419 -0.0018 -0.1454 -0.4575
 6169TIP3    H139998   4.188   6.713   0.438 -1.8780  2.6245  0.3927
 6169TIP3    H239999   4.291   6.742   0.331 -1.2172 -1.8861 -0.3642
 6170TIP3   OH240000   2.768   2.923   6.576 -0.6324  0.3424 -0.3959
 6170TIP3    H140001   2.737   2.862   6.643 -0.3007  0.4187 -0.1731
 6170TIP3    H240002   2.770   2.871   6.495 -1.7581  0.4460 -0.5128
 6171TIP3   OH240003   0.935   0.000   5.677 -0.2252  0.2636  0.2010
 6171TIP3    H140004   0.907  -0.044   5.596  0.9396  0.3304 -0.2612
 6171TIP3    H240005   0.944  -0.070   5.741  0.7193 -0.0697 -0.2767
 6172TIP3   OH240006   5.016   3.045   2.955  0.0919  0.2109  0.1564
 6172TIP3    H140007   4.992   3.023   2.865  1.0058  0.3721 -0.1391
 6172TIP3    H240008   4.951   3.000   3.008 -0.2450 -0.1909 -0.5702
 6173TIP3   OH240009   2.447   1.155  10.788 -0.0611  0.7219  0.6162
 6173TIP3    H140010   2.425   1.246  10.808 -0.0014  0.7023  0.7755
 6173TIP3    H240011   2.363   1.113  10.769 -0.0155  0.9842 -0.1838
 6174TIP3   OH240012   1.719   0.676  13.823 -0.0877  0.1296 -0.0756
 6174TIP3    H140013   1.810   0.702  13.812  0.8511 -3.2731 -1.6587
 6174TIP3    H240014   1.723   0.582  13.840 -3.3330 -0.1497 -0.2151
 6175TIP3   OH240015   3.327   4.548   1.408 -0.0950  0.3563 -0.2271
 6175TIP3    H140016   3.284   4.550   1.493  0.1298  0.0902 -0.1087
 6175TIP3    H240017   3.375   4.466   1.406 -0.3707  0.2004 -0.7444
 6176TIP3   OH240018   6.758   4.683  14.012  0.4839 -0.4329  0.0582
 6176TIP3    H140019   6.668   4.705  14.033  1.0331  0.4190  1.6917
 6176TIP3    H240020   6.771   4.595  14.049  1.0400  0.5088  2.3175
 6177TIP3   OH240021   6.165   4.321  14.577  0.3049  0.0401 -0.0674
 6177TIP3    H140022   6.261   4.317  14.572  0.3547  0.3401  0.5940
 6177TIP3    H240023   6.141   4.381  14.506  0.5902 -0.2147 -0.3834
 6178TIP3   OH240024   4.431   4.773  15.362  0.7281 -0.3263 -0.9883
 6178TIP3    H140025   4.368   4.708  15.393  0.6286 -0.6453 -1.8231
 6178TIP3    H240026   4.436   4.759  15.267  2.7077 -0.9037 -0.8508
 6179TIP3   OH240027   0.690   6.183   5.968 -0.4100 -0.1757  0.0756
 6179TIP3    H140028   0.667   6.276   5.958  1.9848  0.6042  1.0975
 6179TIP3    H240029   0.613   6.143   6.007 -0.7263  1.8919  1.7496
 6180TIP3   OH240030   3.376   0.321   0.650 -0.2984 -0.5190 -0.7149
 6180TIP3    H140031   3.403   0.249   0.593  0.8131 -0.5173 -0.2224
 6180TIP3    H240032   3.310   0.368   0.599 -0.8017 -1.6756 -1.1827
 6181TIP3   OH240033   5.656   6.450  16.329  0.1240 -0.1059  0.6271
 6181TIP3    H140034   5.703   6.528  16.301 -1.4679  1.0607  1.0052
 6181TIP3    H240035   5.723   6.391  16.362  1.4678  0.7016 -0.5932
 6182TIP3   OH240036   0.869   1.312  11.377 -0.0759  0.0070  0.8152
 6182TIP3    H140037   0.963   1.324  11.365 -0.1182  0.8084  1.1947
 6182TIP3    H240038   0.839   1.272  11.296  0.6441 -0.5875  0.8269
 6183TIP3   OH240039   2.069   4.882  14.871  0.1771  0.2765  0.2009
 6183TIP3    H140040   2.141   4.873  14.809 -1.9869  0.8110 -2.6029
 6183TIP3    H240041   2.074   4.804  14.926  0.3864 -2.0009 -2.7818
 6184TIP3   OH240042   4.058   2.561  14.036  0.0999 -0.2277  0.0043
 6184TIP3    H140043   4.079   2.468  14.021 -0.2713 -0.1362 -1.1722
 6184TIP3    H240044   3.971   2.560  14.076  0.7288 -0.4376  1.4318
 6185TIP3   OH240045   4.176   6.340  11.567 -0.3474 -0.5920 -0.2335
 6185TIP3    H140046   4.093   6.314  11.607  0.5316 -2.4236  0.5482
 6185TIP3    H240047   4.197   6.269  11.506  0.6447 -0.1844 -0.3913
 6186TIP3   OH240048   2.880   5.954   2.981  0.2012  0.4896 -0.8361
 6186TIP3    H140049   2.912   5.982   2.895  0.5291 -0.7182 -1.1145
 6186TIP3    H240050   2.814   5.888   2.961  0.0269  0.4609 -0.1616
 6187TIP3   OH240051   0.426   3.569   4.105  0.2169 -0.2720 -0.0600
 6187TIP3    H140052   0.499   3.586   4.165 -1.3424  1.5300  1.4547
 6187TIP3    H240053   0.384   3.490   4.140  0.6922 -0.5995 -0.2132
 6188TIP3   OH240054   0.818   4.951   3.426 -0.1928 -0.6258  0.2354
 6188TIP3    H140055   0.837   5.038   3.393 -1.0114 -0.0994  1.1228
 6188TIP3    H240056   0.903   4.905   3.423 -0.3415 -0.9008 -3.2790
 6189TIP3   OH240057   4.928   6.706  14.211  0.1792  0.1273 -0.9749
 6189TIP3    H140058   4.893   6.702  14.122  1.6360  0.6716 -1.6184
 6189TIP3    H240059   4.995   6.637  14.214 -0.0384 -0.0583 -0.2185
 6190TIP3   OH240060   5.180   4.856  12.847 -0.2412 -0.3110 -0.1970
 6190TIP3    H140061   5.206   4.937  12.891  1.6466  0.6676 -2.8552
 6190TIP3    H240062   5.088   4.868  12.827 -0.0542  1.0732 -0.3031
 6191TIP3   OH240063   2.018   4.957  11.081  0.2141 -0.1585 -0.3000
 6191TIP3    H140064   2.063   5.013  11.018  1.6054 -1.1074 -0.2038
 6191TIP3    H240065   1.982   4.885  11.029 -0.9155  0.4207 -0.3317
 6192TIP3   OH240066   5.603   4.674  13.589  0.4373 -0.4370  0.1601
 6192TIP3    H140067   5.659   4.741  13.549 -1.2169  0.8960  0.0002
 6192TIP3    H240068   5.650   4.649  13.669  1.4941  0.2954 -0.2101
 6193TIP3   OH240069   1.977   4.046   4.039 -0.1415 -0.3202  0.6507
 6193TIP3    H140070   1.926   3.980   4.085 -2.5332  1.4335  0.6984
 6193TIP3    H240071   1.984   4.119   4.102 -1.4488  1.1985 -0.8893
 6194TIP3   OH240072   1.598   3.606   5.716 -0.0988 -0.2117 -0.0567
 6194TIP3    H140073   1.558   3.576   5.635 -0.6940 -1.6201  0.7222
 6194TIP3    H240074   1.664   3.539   5.736  1.1233  0.9245 -0.1635
 6195TIP3   OH240075   2.317   6.033   0.705  0.0330 -0.6480 -0.8084
 6195TIP3    H140076   2.235   6.080   0.717  1.5419  1.9456  0.1669
 6195TIP3    H240077   2.331   6.034   0.610 -0.8297 -0.7948 -0.9508
 6196TIP3   OH240078   2.137   5.416   4.003  0.2626 -0.2566 -0.4326
 6196TIP3    H140079   2.178   5.409   4.089  0.1658 -0.3553 -0.3947
 6196TIP3    H240080   2.152   5.506   3.976  0.8041 -0.3845 -0.5656
 6197TIP3   OH240081   1.768   4.170  13.557 -0.5455  0.4751 -0.3417
 6197TIP3    H140082   1.840   4.213  13.510  0.1720 -0.7517 -0.4022
 6197TIP3    H240083   1.760   4.219  13.638  0.0707  0.8996 -0.5290
 6198TIP3   OH240084   6.408   4.012  17.123  0.4687  0.4207  0.1480
 6198TIP3    H140085   6.411   4.104  17.149  0.9273  0.7119 -0.8649
 6198TIP3    H240086   6.484   4.001  17.066  0.7482 -0.7403  0.7138
 6199TIP3   OH240087   5.604   6.705  13.325 -0.2722  0.0427 -0.0174
 6199TIP3    H140088   5.596   6.757  13.245 -0.2292 -0.1434 -0.1431
 6199TIP3    H240089   5.517   6.709  13.366 -0.3241  0.0494 -0.1290
 6200TIP3   OH240090   6.153   2.467  14.001  0.5889 -0.1038 -0.4087
 6200TIP3    H140091   6.132   2.383  14.041 -0.1427  0.2830  0.0453
 6200TIP3    H240092   6.106   2.466  13.917  0.9043 -0.3099 -0.5824
 6201TIP3   OH240093   4.709   6.438   2.242 -0.1402  0.0565  0.6097
 6201TIP3    H140094   4.739   6.473   2.326 -0.4931  0.0413  0.7473
 6201TIP3    H240095   4.780   6.383   2.211  1.0535  1.9958 -0.2973
 6202TIP3   OH240096   5.680   2.105  11.447  0.0887 -0.1762 -0.4909
 6202TIP3    H140097   5.635   2.072  11.370 -1.6895 -3.0571  1.5534
 6202TIP3    H240098   5.773   2.088  11.430 -0.2768 -0.9237 -1.8996
 6203TIP3   OH240099   6.206   1.831  11.915 -0.1371  0.3223 -0.4397
 6203TIP3    H140100   6.267   1.759  11.900  0.2947  0.2539  1.4188
 6203TIP3    H240101   6.198   1.836  12.010 -0.6112  2.3503 -0.5432
 6204TIP3   OH240102   4.280   6.556   6.386 -0.0313 -0.0268  0.6561
 6204TIP3    H140103   4.225   6.622   6.428 -0.1135  1.5122 -1.7019
 6204TIP3    H240104   4.261   6.475   6.434 -0.6664  1.4319  2.9981
 6205TIP3   OH240105   0.370   4.542  12.308 -0.1200 -0.1549  0.3369
 6205TIP3    H140106   0.305   4.500  12.365  0.6842 -1.5118  0.3100
 6205TIP3    H240107   0.454   4.505  12.337  0.3904 -0.2316 -1.1713
 6206TIP3   OH240108   2.738   1.296   5.291 -0.1432 -0.0112 -0.4973
 6206TIP3    H140109   2.721   1.390   5.285 -2.0721 -0.2367  0.6287
 6206TIP3    H240110   2.714   1.262   5.204 -0.6281  0.3719 -0.5175
 6207TIP3   OH240111   2.969   4.945  11.552  0.2574  0.0550  0.1293
 6207TIP3    H140112   2.960   4.852  11.575 -0.1340 -0.8227 -2.9929
 6207TIP3    H240113   2.884   4.983  11.574 -0.6341 -1.0657 -1.1695
 6208TIP3   OH240114   0.934   2.182  14.752  0.0188 -0.8107  0.3017
 6208TIP3    H140115   0.886   2.141  14.680  1.4062 -1.3378 -0.3654
 6208TIP3    H240116   1.005   2.231  14.709  0.1503 -0.1434  1.2511
 6209TIP3   OH240117   5.359   1.969   4.009  0.4723  0.0371 -0.5058
 6209TIP3    H140118   5.275   1.926   3.990 -0.1089  0.6902  0.4956
 6209TIP3    H240119   5.335   2.050   4.054  1.3839  2.8191 -4.5244
 6210TIP3   OH240120   4.338   4.518   2.621  0.5913  0.1286 -0.2435
 6210TIP3    H140121   4.424   4.476   2.618  0.8139  0.2654  2.2102
 6210TIP3    H240122   4.291   4.470   2.690 -1.5142 -0.2511 -1.8287
 6211TIP3   OH240123   1.762   2.396  17.266 -0.1509  0.1641  0.3821
 6211TIP3    H140124   1.743   2.457  17.194 -2.1115  0.5406  1.1526
 6211TIP3    H240125   1.696   2.416  17.332  1.9507  0.2526  2.5952
 6212TIP3   OH240126   6.260   5.820   0.875  0.5747 -0.0234  0.4268
 6212TIP3    H140127   6.208   5.743   0.854  0.4771  0.1423  0.0391
 6212TIP3    H240128   6.248   5.878   0.800 -0.0109  0.7179  1.0766
 6213TIP3   OH240129   4.163   6.647  16.748  0.7522 -0.5980 -0.1166
 6213TIP3    H140130   4.170   6.742  16.745 -0.0105 -0.5389 -0.0344
 6213TIP3    H240131   4.174   6.625  16.841 -1.4358 -0.3885  0.2363
 6214TIP3   OH240132   3.364   0.651   1.631 -0.3365  0.0575 -0.0733
 6214TIP3    H140133   3.284   0.634   1.680  0.9478 -3.1248  1.1899
 6214TIP3    H240134   3.339   0.643   1.539 -1.3515 -1.6584  0.3167
 6215TIP3   OH240135   2.859   4.131   4.089  0.4054 -0.7042  0.5847
 6215TIP3    H140136   2.884   4.211   4.136 -0.7077 -0.0780  0.1591
 6215TIP3    H240137   2.826   4.072   4.157 -1.7781  0.4211  0.5989
 6216TIP3   OH240138   3.566   5.822  11.479 -0.5126  0.5045 -0.3370
 6216TIP3    H140139   3.520   5.740  11.496  0.6260 -0.1905 -0.5066
 6216TIP3    H240140   3.503   5.890  11.501 -1.8081 -0.4142 -1.1011
 6217TIP3   OH240141   0.600   2.308   5.878  0.7777 -0.0259 -0.4073
 6217TIP3    H140142   0.673   2.294   5.938  0.4438 -0.9996 -0.2143
 6217TIP3    H240143   0.523   2.313   5.935  0.4594 -0.9613 -0.7383
 6218TIP3   OH240144   3.815   3.997  13.472 -0.1875  0.5701  0.1744
 6218TIP3    H140145   3.856   4.080  13.447  1.1211  0.4257  1.6596
 6218TIP3    H240146   3.810   3.947  13.390 -1.5125  2.2822 -0.8551
 6219TIP3   OH240147   1.591   4.303   2.283 -0.6975  0.2895 -0.5963
 6219TIP3    H140148   1.674   4.272   2.246 -1.1083 -0.1546 -1.1768
 6219TIP3    H240149   1.610   4.390   2.316 -0.0506  0.2775 -0.9226
 6220TIP3   OH240150   5.779   3.224   4.469  0.7251 -0.5288  0.0497
 6220TIP3    H140151   5.838   3.221   4.394  3.1169  1.0441  1.6955
 6220TIP3    H240152   5.766   3.318   4.485 -0.8296 -0.8487  0.7829
 6221TIP3   OH240153   6.349   6.756  15.463  0.1343 -0.1954 -0.1478
 6221TIP3    H140154   6.274   6.737  15.519  0.3022 -1.2880 -0.2591
 6221TIP3    H240155   6.417   6.785  15.524 -0.4090  0.9688 -0.0638
 6222TIP3   OH240156   6.276   5.442  13.082 -0.4004 -0.1694 -0.2595
 6222TIP3    H140157   6.335   5.514  13.103 -1.1237  0.2292  0.4695
 6222TIP3    H240158   6.330   5.364  13.085  0.2643  0.2767 -0.4651
 6223TIP3   OH240159   5.437   2.817   5.208 -0.8242 -0.0315 -0.5633
 6223TIP3    H140160   5.382   2.788   5.281 -0.2230 -1.0596 -0.5138
 6223TIP3    H240161   5.511   2.860   5.250 -1.8762  1.9887 -0.6383
 6224TIP3   OH240162   2.620   5.132  13.833 -0.7071 -0.1799 -0.2189
 6224TIP3    H140163   2.601   5.039  13.848 -3.3660 -0.2875 -3.0571
 6224TIP3    H240164   2.674   5.133  13.754  0.0519  0.6974  0.2918
 6225TIP3   OH240165   3.322   5.343   4.128 -0.1742 -0.4998 -0.0848
 6225TIP3    H140166   3.256   5.305   4.071  1.1978 -0.7902 -1.5486
 6225TIP3    H240167   3.332   5.433   4.096 -0.2753 -0.2739  0.5091
 6226TIP3   OH240168   4.175   4.065  16.354 -0.6877  0.0102  0.2481
 6226TIP3    H140169   4.158   4.058  16.448  0.7035 -0.2259  0.5132
 6226TIP3    H240170   4.198   4.157  16.340 -1.1368  0.1016  0.0828
 6227TIP3   OH240171   0.737   4.730   1.489  0.2401  0.1103  0.0946
 6227TIP3    H140172   0.663   4.788   1.509  0.3674  0.2034  0.3063
 6227TIP3    H240173   0.757   4.687   1.573 -0.4538 -0.9499 -0.2677
 6228TIP3   OH240174   6.412   4.439   5.277  0.8092  0.0548  0.2103
 6228TIP3    H140175   6.414   4.394   5.362  0.0776 -0.5583 -0.0818
 6228TIP3    H240176   6.376   4.373   5.217 -0.4011  1.0637 -0.2093
 6229TIP3   OH240177   3.223   4.034   2.053 -0.3111  0.2627  0.2421
 6229TIP3    H140178   3.310   4.023   2.092  0.1123  0.4663 -0.5988
 6229TIP3    H240179   3.238   4.094   1.979 -0.8797 -0.8883 -0.8483
 6230TIP3   OH240180   2.668   5.549   2.951  0.2818  0.0604  0.6327
 6230TIP3    H140181   2.617   5.543   3.032 -0.1392 -3.3538  0.2297
 6230TIP3    H240182   2.602   5.559   2.882  0.4882  0.4165  0.4821
 6231TIP3   OH240183   5.507   1.251   4.849 -0.5289 -0.3586 -0.1156
 6231TIP3    H140184   5.563   1.174   4.854 -0.8936 -0.5694  1.1621
 6231TIP3    H240185   5.565   1.325   4.868 -0.1834 -0.2961 -1.3236
 6232TIP3   OH240186   1.636   0.527   4.539  0.4324 -0.0639  0.2102
 6232TIP3    H140187   1.545   0.512   4.511  0.5821  1.7024 -1.4271
 6232TIP3    H240188   1.689   0.485   4.471  1.0042 -3.0659  2.2610
 6233TIP3   OH240189   1.675   5.916  17.256  0.5164  0.1252 -0.7502
 6233TIP3    H140190   1.606   5.982  17.248 -0.8282 -1.2173 -0.6207
 6233TIP3    H240191   1.711   5.909  17.168 -1.1422 -0.8324 -1.3931
 6234TIP3   OH240192   6.419   0.753  15.488 -0.0553  0.5129  0.5371
 6234TIP3    H140193   6.463   0.760  15.403  0.1787 -2.1515  0.3675
 6234TIP3    H240194   6.330   0.782  15.471 -0.4045 -1.2979 -1.0059
 6235TIP3   OH240195   2.209   3.700  15.014 -0.1528  0.7258 -0.1426
 6235TIP3    H140196   2.119   3.669  15.024 -0.5084  1.8088  0.2009
 6235TIP3    H240197   2.259   3.622  14.994 -0.9769 -0.0947  0.8571
 6236TIP3   OH240198   1.365   3.353  12.242  0.6478 -0.0115  0.7843
 6236TIP3    H140199   1.283   3.367  12.195  0.7795 -1.3604  0.1113
 6236TIP3    H240200   1.419   3.429  12.219  0.0635  0.2336  0.1962
 6237TIP3   OH240201   4.641   5.917   4.143 -0.0860  0.4391 -0.1669
 6237TIP3    H140202   4.702   5.935   4.215 -0.1977  0.6904 -0.1346
 6237TIP3    H240203   4.554   5.931   4.181 -0.1163  2.3005 -0.7924
 6238TIP3   OH240204   0.286   2.568   2.209  0.2600 -0.4092 -0.1413
 6238TIP3    H140205   0.239   2.628   2.267  0.8464  0.2771 -0.3632
 6238TIP3    H240206   0.348   2.624   2.162  0.7141 -1.1683 -0.4602
 6239TIP3   OH240207   3.911   5.654  10.928 -0.3604  0.3491 -0.2347
 6239TIP3    H140208   3.849   5.599  10.976 -0.6209  0.5556 -0.3323
 6239TIP3    H240209   3.990   5.655  10.982 -1.3532  2.3287  1.3008
 6240TIP3   OH240210   0.941   5.879   4.036 -0.0168 -0.1707 -0.1351
 6240TIP3    H140211   0.939   5.896   4.130 -1.5582 -1.5484  0.1155
 6240TIP3    H240212   1.017   5.822   4.023  1.4473  1.6683 -0.0826
 6241TIP3   OH240213   5.208   4.977   6.118 -0.4012  0.2355 -0.5716
 6241TIP3    H140214   5.208   5.070   6.139 -1.0992  0.4713 -1.5483
 6241TIP3    H240215   5.234   4.973   6.026 -0.7504 -0.4963 -0.6450
 6242TIP3   OH240216   4.372   4.940  12.564 -0.9553 -0.1929 -0.0031
 6242TIP3    H140217   4.352   4.991  12.642  3.4280  0.2322  1.0928
 6242TIP3    H240218   4.387   4.851  12.597  2.1337  0.2372  0.0050
 6243TIP3   OH240219   0.281   2.413  17.166 -0.0829  0.0035  0.0848
 6243TIP3    H140220   0.258   2.324  17.139 -0.3305 -0.1070  0.6482
 6243TIP3    H240221   0.373   2.422  17.139  0.1846 -0.7036  0.6915
 6244TIP3   OH240222   6.124   3.867  11.603  0.0510  0.6113  0.1325
 6244TIP3    H140223   6.064   3.797  11.578 -1.1440  2.0728 -1.3528
 6244TIP3    H240224   6.183   3.827  11.667 -1.7270 -1.2314  0.7170
 6245TIP3   OH240225   1.321   5.737  12.329 -0.2475 -0.4359  0.2345
 6245TIP3    H140226   1.314   5.828  12.358 -0.5017 -0.6273  0.7868
 6245TIP3    H240227   1.396   5.702  12.376 -0.6012 -0.7217  0.5850
 6246TIP3   OH240228   1.340   4.928  17.145 -0.4485 -0.3410  0.1562
 6246TIP3    H140229   1.394   4.864  17.099  0.2849  0.0509  0.4477
 6246TIP3    H240230   1.250   4.909  17.117 -0.1289 -0.7928 -0.6000
 6247TIP3   OH240231   6.055   4.134   3.023  0.3001 -0.3365  0.0488
 6247TIP3    H140232   6.113   4.095   3.088  1.8078  1.4841 -0.1377
 6247TIP3    H240233   6.108   4.201   2.980 -1.4800  0.3364 -1.2232
 6248TIP3   OH240234   3.601   5.230  13.787  0.0222 -0.9476  0.4094
 6248TIP3    H140235   3.667   5.282  13.741 -0.7420  0.4700  0.8596
 6248TIP3    H240236   3.633   5.140  13.781  0.7882 -0.5879 -1.4125
 6249TIP3   OH240237   3.448   3.197   4.590  0.2330  0.1108 -0.3333
 6249TIP3    H140238   3.536   3.162   4.574 -0.3422 -1.1166 -0.9606
 6249TIP3    H240239   3.452   3.233   4.679  1.3556  0.0238 -0.3380
 6250TIP3   OH240240   4.221   1.823   3.633 -0.9226 -0.7368 -0.6797
 6250TIP3    H140241   4.136   1.866   3.641 -0.5847 -0.3300  1.7189
 6250TIP3    H240242   4.275   1.864   3.701  0.7851 -1.8748 -1.2778
 6251TIP3   OH240243   5.135   5.804   3.615  0.1665  0.1081  0.1869
 6251TIP3    H140244   5.141   5.862   3.540  1.1935  1.3483  1.1979
 6251TIP3    H240245   5.220   5.810   3.658 -0.2116 -0.9998  1.1500
 6252TIP3   OH240246   2.565   3.942  11.731 -0.1853  0.0274  0.0196
 6252TIP3    H140247   2.516   3.876  11.781 -1.0630  1.3025  0.8945
 6252TIP3    H240248   2.513   4.021  11.737  1.7861  1.3669  0.6798
 6253TIP3   OH240249   0.576   4.471   1.541 -0.1017 -0.2993  0.2873
 6253TIP3    H140250   0.619   4.395   1.502 -1.3360 -0.7252 -0.3287
 6253TIP3    H240251   0.599   4.544   1.484 -0.3701 -0.5630 -0.1628
 6254TIP3   OH240252   2.302   2.747  14.170 -0.5966 -0.0684 -0.3501
 6254TIP3    H140253   2.251   2.667  14.160  0.0043 -0.5061 -0.0305
 6254TIP3    H240254   2.363   2.727  14.241 -2.2244  1.5946  1.6254
 6255TIP3   OH240255   4.188   1.928   0.881  0.0627  0.6051 -0.1610
 6255TIP3    H140256   4.198   1.833   0.892  1.6375  0.8259  0.5737
 6255TIP3    H240257   4.181   1.962   0.970  1.1005  1.3211 -0.3323
 6256TIP3   OH240258   5.693   2.180  14.116 -0.0059 -0.3281 -0.7866
 6256TIP3    H140259   5.754   2.192  14.043  0.7627 -2.1596 -0.4978
 6256TIP3    H240260   5.732   2.231  14.188 -0.3090  0.7654 -1.3653
 6257TIP3   OH240261   1.482   4.997  15.844  0.6353  0.1360 -0.1494
 6257TIP3    H140262   1.518   4.914  15.875  0.6292  0.2636  0.2095
 6257TIP3    H240263   1.526   5.063  15.898 -0.3671  0.2759  0.5185
 6258TIP3   OH240264   3.079   4.549  11.464 -0.6363  0.2541 -0.6222
 6258TIP3    H140265   3.042   4.604  11.532  2.8832  1.1045  0.7943
 6258TIP3    H240266   3.101   4.609  11.393  0.3691  0.2072 -0.3627
 6259TIP3   OH240267   0.985   3.919   2.862 -0.0531  0.3206  0.1707
 6259TIP3    H140268   1.057   3.973   2.828 -1.2787  1.8162 -0.1367
 6259TIP3    H240269   0.985   3.937   2.956 -0.0795  0.3898  0.1577
 6260TIP3   OH240270   0.764   4.248  16.367  0.2007  0.1813 -0.2773
 6260TIP3    H140271   0.842   4.236  16.422 -0.7197  1.8426  1.5227
 6260TIP3    H240272   0.782   4.198  16.288  1.3167 -2.9520  1.7921
 6261TIP3   OH240273   1.627   4.116   2.951 -0.1104  0.0301 -0.1539
 6261TIP3    H140274   1.721   4.099   2.947 -0.6988 -4.2942 -0.1768
 6261TIP3    H240275   1.597   4.070   3.030 -2.3978 -0.0050 -0.9632
 6262TIP3   OH240276   2.564   3.683  11.050 -0.5951 -0.0537  0.3645
 6262TIP3    H140277   2.546   3.633  11.130  0.0667  0.8362  1.0986
 6262TIP3    H240278   2.655   3.712  11.060 -0.4089 -0.1665 -0.8527
 6263TIP3   OH240279   2.642   5.983   2.366  0.5965 -0.0220 -0.3723
 6263TIP3    H140280   2.558   6.002   2.407  0.8134 -0.7275  0.4228
 6263TIP3    H240281   2.619   5.962   2.275 -0.0468  0.1013 -0.2473
 6264TIP3   OH240282   3.155   4.142  13.729 -0.2846 -0.0354 -0.5804
 6264TIP3    H140283   3.191   4.093  13.656 -1.9293 -0.9076 -0.8491
 6264TIP3    H240284   3.211   4.220  13.735  1.1808 -0.9779 -1.3748
 6265TIP3   OH240285   0.310   2.604   0.284  0.5775  0.6901 -0.6050
 6265TIP3    H140286   0.307   2.610   0.189  0.9376 -0.2398 -0.6789
 6265TIP3    H240287   0.384   2.660   0.310  1.6461 -0.4762 -1.0214
 6266TIP3   OH240288   3.563   1.948  12.987  0.1163 -0.2979  0.0631
 6266TIP3    H140289   3.605   2.027  13.020  0.7299  0.4380 -2.2576
 6266TIP3    H240290   3.504   1.920  13.057  1.5946  0.8782  1.8478
 6267TIP3   OH240291   1.688   5.166   6.148  0.1906 -0.2864  0.2776
 6267TIP3    H140292   1.761   5.210   6.105  0.3017  0.1701  0.9101
 6267TIP3    H240293   1.708   5.073   6.141 -1.0341 -0.4137 -2.8396
 6268TIP3   OH240294   6.088   4.172  13.209 -0.3506  0.4161 -0.3855
 6268TIP3    H140295   6.048   4.234  13.148  0.1757  1.0392 -0.1125
 6268TIP3    H240296   6.150   4.122  13.155 -1.0795 -0.1719 -0.6921
 6269TIP3   OH240297   2.399   5.175  11.658  0.2173  1.1127  0.2702
 6269TIP3    H140298   2.437   5.175  11.570  2.1111 -0.6093  0.9848
 6269TIP3    H240299   2.455   5.234  11.709 -1.0834  2.3828  0.2863
 6270TIP3   OH240300   3.563   4.181   5.597 -0.0958  0.2112 -0.0953
 6270TIP3    H140301   3.547   4.106   5.540  1.5109 -0.1229 -0.1361
 6270TIP3    H240302   3.557   4.146   5.686  2.9833 -0.5795 -0.0899
 6271TIP3   OH240303   6.059   5.618   4.192  0.3028  0.4821  0.7880
 6271TIP3    H140304   6.047   5.531   4.230 -1.6895  0.3448 -0.0095
 6271TIP3    H240305   6.025   5.678   4.258 -0.6658  0.4379  0.3514
 6272TIP3   OH240306   1.250   3.531  15.863 -0.1104  0.3214 -0.5956
 6272TIP3    H140307   1.308   3.541  15.788 -0.1386 -0.7932 -0.7740
 6272TIP3    H240308   1.229   3.621  15.889  2.4950  0.8095  0.1070
 6273TIP3   OH240309   0.900   2.223  14.217  0.3610 -0.6867 -0.1516
 6273TIP3    H140310   0.994   2.241  14.215  0.4861 -1.2391  0.3714
 6273TIP3    H240311   0.873   2.228  14.126  1.2511 -2.2878 -0.5494
 6274TIP3   OH240312   6.265   1.161  16.010  0.3212  0.0677  0.0828
 6274TIP3    H140313   6.208   1.238  16.005 -0.9406 -0.8706 -0.5605
 6274TIP3    H240314   6.298   1.149  15.921  0.9399  0.1609  0.2915
 6275TIP3   OH240315   5.246   5.282   2.563  0.9164 -0.2805  0.0114
 6275TIP3    H140316   5.223   5.329   2.484 -1.6947 -0.2459  0.7093
 6275TIP3    H240317   5.320   5.331   2.600  0.4975  1.2181 -1.0605
 6276TIP3   OH240318   5.258   5.210   3.226  0.4143 -0.3281 -0.0821
 6276TIP3    H140319   5.231   5.302   3.221 -0.4343 -0.5661 -0.0566
 6276TIP3    H240320   5.234   5.173   3.141  2.1685 -0.1833 -0.6934
 6277TIP3   OH240321   4.381   1.102   2.302 -0.4597 -0.1762  0.5227
 6277TIP3    H140322   4.467   1.144   2.300 -0.3356 -0.3802  1.1500
 6277TIP3    H240323   4.397   1.013   2.269 -0.1075 -0.7246  2.0619
 6278TIP3   OH240324   1.467   2.426  12.760 -0.3627 -0.2254  0.2427
 6278TIP3    H140325   1.402   2.357  12.769  0.6297 -1.1925  0.1135
 6278TIP3    H240326   1.535   2.404  12.824  0.4602  0.0492 -0.5208
 6279TIP3   OH240327   5.606   3.040  12.813 -0.0661 -0.0450  0.3022
 6279TIP3    H140328   5.521   3.008  12.782  0.4629 -0.4484 -0.7533
 6279TIP3    H240329   5.611   3.008  12.903 -0.5529 -0.9925  0.0122
 6280TIP3   OH240330   0.918   5.147  12.618 -0.0436  0.5394 -0.4107
 6280TIP3    H140331   0.987   5.210  12.596 -1.0409  1.4384 -1.0192
 6280TIP3    H240332   0.957   5.062  12.595  0.9358  1.0057 -0.5536
 6281TIP3   OH240333   2.497   2.244   2.004 -0.3566  0.1355 -0.0688
 6281TIP3    H140334   2.556   2.308   1.965 -1.7458  1.0370 -0.7867
 6281TIP3    H240335   2.419   2.294   2.027 -1.4427 -1.2824 -0.5232
 6282TIP3   OH240336   3.726   6.461  13.463  0.1105  0.1675  0.0606
 6282TIP3    H140337   3.678   6.381  13.483  0.1851 -0.0888 -0.7359
 6282TIP3    H240338   3.667   6.511  13.407  0.3032  0.3906  0.0556
 6283TIP3   OH240339   4.826   3.286   1.856 -0.3023  0.1874 -0.6695
 6283TIP3    H140340   4.759   3.223   1.830 -0.5880  1.0725 -2.1632
 6283TIP3    H240341   4.846   3.335   1.776 -0.4520  2.3302  0.5349
 6284TIP3   OH240342   3.704   5.358  11.809  0.0568 -0.1327 -0.2371
 6284TIP3    H140343   3.687   5.307  11.729  1.3470  0.9724 -1.2585
 6284TIP3    H240344   3.785   5.321  11.844  0.1152  0.1418 -0.0808
 6285TIP3   OH240345   0.157   4.447  11.598 -0.5896 -0.9317  0.9820
 6285TIP3    H140346   0.131   4.483  11.514  1.9778 -0.7643  0.1622
 6285TIP3    H240347   0.081   4.397  11.628 -1.5890 -0.9452 -1.3946
 6286TIP3   OH240348   2.703   2.326   6.419  0.0179  0.4958  1.0346
 6286TIP3    H140349   2.720   2.397   6.357  2.0462  0.6098  1.6273
 6286TIP3    H240350   2.728   2.247   6.372  0.2402  0.4424  1.2417
 6287TIP3   OH240351   0.536   3.373  13.473  0.1435  0.0095  0.1194
 6287TIP3    H140352   0.552   3.347  13.564 -0.3230  0.4428  0.3288
 6287TIP3    H240353   0.455   3.423  13.476  0.4918  0.6220 -0.4310
 6288TIP3   OH240354   2.120   5.511   5.905 -0.2364 -0.2227  0.2362
 6288TIP3    H140355   2.213   5.507   5.882 -0.0131  0.2271  1.0204
 6288TIP3    H240356   2.090   5.593   5.865  0.0183  0.2804  1.0659
 6289TIP3   OH240357   0.537   4.428  16.344  0.0851 -0.5103  0.0364
 6289TIP3    H140358   0.581   4.344  16.329 -0.9965 -0.8643 -1.3279
 6289TIP3    H240359   0.573   4.459  16.427  0.2539 -2.4936  0.7613
 6290TIP3   OH240360   3.050   4.058   6.754 -0.0993 -0.0918  0.2118
 6290TIP3    H140361   3.031   4.121   6.684  0.6443  1.1319  1.0666
 6290TIP3    H240362   2.977   3.996   6.751 -1.4619  1.4493  0.0420
 6291TIP3   OH240363   3.051   0.735  12.916  0.6277 -0.1082 -0.1412
 6291TIP3    H140364   3.011   0.822  12.904  1.6652  0.3396 -0.4565
 6291TIP3    H240365   3.133   0.753  12.961  2.3213 -0.5653 -2.8525
 6292TIP3   OH240366   6.646   3.042  16.997  0.1042 -0.1667  0.3518
 6292TIP3    H140367   6.644   2.963  16.942 -0.7778 -0.3492  0.6226
 6292TIP3    H240368   6.711   3.099  16.956  0.2219 -0.7388 -0.2680
 6293TIP3   OH240369   5.457   0.360   0.454 -0.7523 -0.2581 -0.4682
 6293TIP3    H140370   5.538   0.311   0.468 -0.7185 -0.6122 -1.7874
 6293TIP3    H240371   5.448   0.415   0.532 -0.0088 -1.2691  0.3573
 6294TIP3   OH240372   0.872   2.658  13.140 -0.4049 -0.1208  0.6978
 6294TIP3    H140373   0.906   2.576  13.105  1.6358  0.2592  1.6690
 6294TIP3    H240374   0.807   2.631  13.205  0.7587 -0.9937  1.5250
 6295TIP3   OH240375   1.309   6.353  11.676 -0.4090  0.7047  0.2957
 6295TIP3    H140376   1.298   6.306  11.593  1.8980  2.0781 -0.8758
 6295TIP3    H240377   1.262   6.300  11.740 -1.8033 -0.6951 -1.7678
 6296TIP3   OH240378   5.849   3.256  15.829  0.5789 -0.2958  0.3821
 6296TIP3    H140379   5.907   3.229  15.900  0.0165 -0.6645  0.7052
 6296TIP3    H240380   5.877   3.344  15.807  1.4445 -0.5744  0.3480
 6297TIP3   OH240381   0.431   2.427  14.674 -0.0882 -0.3976  0.2337
 6297TIP3    H140382   0.370   2.356  14.690  0.2829 -0.9107 -0.5280
 6297TIP3    H240383   0.406   2.495  14.736 -0.8411 -0.9506  0.5554
 6298TIP3   OH240384   5.105   1.152   4.617 -0.0493  0.8892  0.4590
 6298TIP3    H140385   5.188   1.200   4.609  0.0289  0.8616  1.0420
 6298TIP3    H240386   5.040   1.220   4.637  0.0154  0.7940  1.0182
 6299TIP3   OH240387   1.250   5.135   3.280 -0.6911 -0.0495  0.4960
 6299TIP3    H140388   1.256   5.230   3.266 -2.5038  0.1821  1.0795
 6299TIP3    H240389   1.340   5.108   3.296  0.6941  0.7627 -4.2360
 6300TIP3   OH240390   3.293   5.652   4.015 -0.1213 -0.0660 -0.0708
 6300TIP3    H140391   3.256   5.738   3.995  0.5127  0.6762  1.6982
 6300TIP3    H240392   3.380   5.653   3.975 -0.1688  0.0678 -0.1695
 6301TIP3   OH240393   5.522   4.277  14.101 -0.3868  0.0881  0.2790
 6301TIP3    H140394   5.494   4.249  14.014  0.9314 -0.2783 -0.0501
 6301TIP3    H240395   5.547   4.369  14.090  1.6693 -0.4806 -0.2376
 6302TIP3   OH240396   2.159   3.675  11.392 -0.5883 -0.0828 -0.9020
 6302TIP3    H140397   2.232   3.619  11.367 -0.0506  0.5479 -0.7716
 6302TIP3    H240398   2.191   3.725  11.467 -0.9930  0.5236 -1.1235
 6303TIP3   OH240399   4.453   1.602   6.038  0.7493 -0.9271  0.7744
 6303TIP3    H140400   4.446   1.543   6.112  2.9693  0.0460  1.8783
 6303TIP3    H240401   4.393   1.674   6.058  0.0687 -1.4852  0.7626
 6304TIP3   OH240402   0.243   1.188  13.008 -0.0539  0.3145  0.4152
 6304TIP3    H140403   0.228   1.133  12.931  0.1353 -1.2210  1.4294
 6304TIP3    H240404   0.156   1.208  13.041 -0.1706  1.5875 -0.5572
 6305TIP3   OH240405   5.894   4.253  14.437  0.4097  0.3732  0.6451
 6305TIP3    H140406   5.935   4.244  14.351 -2.3505 -2.0951 -0.5775
 6305TIP3    H240407   5.932   4.181  14.489 -1.7640 -1.6086 -0.3380
 6306TIP3   OH240408   6.127   0.677  12.093  0.1671 -0.1071  0.3905
 6306TIP3    H140409   6.105   0.594  12.049  0.8369  0.4647 -1.0825
 6306TIP3    H240410   6.217   0.666  12.123  0.8315  0.6169 -1.2209
 6307TIP3   OH240411   2.134   4.673   2.625 -0.0759  0.1322  0.1147
 6307TIP3    H140412   2.222   4.636   2.619 -0.1328 -0.7180  3.1004
 6307TIP3    H240413   2.147   4.766   2.646  0.0568  0.3983 -1.0591
 6308TIP3   OH240414   4.469   4.799  16.506  0.1651 -0.5213 -0.5065
 6308TIP3    H140415   4.559   4.795  16.472  0.3187  0.1269 -0.1956
 6308TIP3    H240416   4.430   4.715  16.481  1.3706 -1.5224  0.8110
 6309TIP3   OH240417   1.190   3.983  11.089 -0.0582 -0.5146 -0.4017
 6309TIP3    H140418   1.124   3.975  11.020  0.6747  0.3862 -1.2242
 6309TIP3    H240419   1.160   4.056  11.142  1.0301  0.8942 -1.6619
 6310TIP3   OH240420   4.441   6.774   1.089 -0.1218  0.5571  0.1212
 6310TIP3    H140421   4.430   6.868   1.103  1.5716  0.8281 -0.1800
 6310TIP3    H240422   4.458   6.738   1.177 -0.4914  0.5643  0.1978
 6311TIP3   OH240423   5.646   5.989   6.202  0.1505  0.7209 -0.1888
 6311TIP3    H140424   5.696   5.909   6.187 -0.6747  0.5616 -2.4771
 6311TIP3    H240425   5.688   6.054   6.145 -0.1672  1.4940  0.4381
 6312TIP3   OH240426   6.056   0.305  12.707  0.6255  0.4572  0.1736
 6312TIP3    H140427   6.050   0.217  12.669 -0.3670 -0.1038  1.5467
 6312TIP3    H240428   6.138   0.340  12.673  0.6937 -0.7280 -0.9580
 6313TIP3   OH240429   3.181   2.986   5.789  0.0364  0.0112  0.6552
 6313TIP3    H140430   3.202   3.072   5.752  1.0257 -0.2775  0.5322
 6313TIP3    H240431   3.169   2.930   5.713 -0.9263  0.0993  0.7287
 6314TIP3   OH240432   2.141   5.237   3.040  0.4477 -0.0409 -0.4269
 6314TIP3    H140433   2.049   5.260   3.048  0.6339  0.5020  0.3284
 6314TIP3    H240434   2.184   5.319   3.016  1.0434  0.3307  1.6722
 6315TIP3   OH240435   6.307   6.756   0.433  0.4761 -0.1170  0.7688
 6315TIP3    H140436   6.368   6.710   0.375 -0.5122  0.0896 -0.4591
 6315TIP3    H240437   6.222   6.717   0.415 -0.3995  2.2011 -0.3462
 6316TIP3   OH240438   4.070   4.195  13.212 -0.2742  0.3903  0.4930
 6316TIP3    H140439   4.126   4.155  13.278  1.9716  1.0717 -0.8899
 6316TIP3    H240440   4.123   4.266  13.175 -2.1710  1.2543 -0.7051
 6317TIP3   OH240441   2.749   0.204   0.913 -0.2903 -0.0099  0.1803
 6317TIP3    H140442   2.754   0.197   1.008 -0.2900 -0.0915  0.1742
 6317TIP3    H240443   2.839   0.201   0.883 -0.1768  1.4750  0.2775
 6318TIP3   OH240444   4.347   2.329   4.613 -0.4232  1.0633  0.3761
 6318TIP3    H140445   4.259   2.299   4.638 -0.8160  0.1027 -1.9138
 6318TIP3    H240446   4.331   2.401   4.552  0.4824  2.9352  2.2227
 6319TIP3   OH240447   1.360   5.186   2.614  0.0992  0.4272  0.3055
 6319TIP3    H140448   1.399   5.266   2.649  1.3072 -0.0599  0.1312
 6319TIP3    H240449   1.350   5.129   2.690  2.4100 -0.5029  0.0035
 6320TIP3   OH240450   0.540   3.475   3.699 -0.4263 -0.6240  0.4762
 6320TIP3    H140451   0.511   3.392   3.660 -1.3263 -0.7266  1.3156
 6320TIP3    H240452   0.468   3.536   3.683 -0.0840 -0.2059  0.5140
 6321TIP3   OH240453   0.800   6.250   6.317  0.3357 -0.4152 -0.3690
 6321TIP3    H140454   0.858   6.181   6.285  2.4595  0.1579  1.9522
 6321TIP3    H240455   0.768   6.217   6.401 -2.1126 -0.3459 -1.2059
 6322TIP3   OH240456   1.957   6.720  12.230  0.2980  0.5736 -0.2678
 6322TIP3    H140457   1.863   6.728  12.244  0.3617 -0.2534  0.7146
 6322TIP3    H240458   1.992   6.696  12.315  1.1298 -1.3279 -1.0964
 6323TIP3   OH240459   1.864   6.274  13.162  0.4413  0.2055 -0.0692
 6323TIP3    H140460   1.957   6.285  13.184  0.7891  1.3209 -1.8420
 6323TIP3    H240461   1.864   6.254  13.068 -1.1120  0.0271 -0.0601
 6324TIP3   OH240462   4.281   4.456  14.766 -0.1229 -0.2373  0.2595
 6324TIP3    H140463   4.333   4.500  14.834  1.9454 -0.0469 -1.3550
 6324TIP3    H240464   4.271   4.366  14.797  1.7131 -0.4322  0.3540
 6325TIP3   OH240465   5.601   1.256   5.512  0.5534 -0.2578 -0.4970
 6325TIP3    H140466   5.587   1.161   5.520 -1.7000 -0.1468 -1.9251
 6325TIP3    H240467   5.687   1.272   5.550  0.9195 -2.8574 -0.0732
 6326TIP3   OH240468   3.945   3.820  13.985  1.0382 -0.6942 -0.2386
 6326TIP3    H140469   4.031   3.835  13.946  1.5222 -3.0413 -0.1998
 6326TIP3    H240470   3.891   3.787  13.913  0.0955  0.8392 -0.2832
 6327TIP3   OH240471   1.794   1.430   5.704  0.0924  0.3013 -0.6535
 6327TIP3    H140472   1.771   1.405   5.615 -1.3238  0.0728 -0.2371
 6327TIP3    H240473   1.791   1.348   5.754  3.3382 -0.0599 -0.8211
 6328TIP3   OH240474   1.240   5.650   2.220 -0.0238 -0.2170  1.4118
 6328TIP3    H140475   1.302   5.623   2.288  0.2385 -0.4956  1.0645
 6328TIP3    H240476   1.219   5.569   2.173  2.3207  0.4070 -0.9504
 6329TIP3   OH240477   1.880   4.903  16.937  1.2767  0.1259 -0.1491
 6329TIP3    H140478   1.845   4.993  16.936  0.4051 -0.1893 -1.5590
 6329TIP3    H240479   1.814   4.852  16.889  2.3954 -1.0179 -0.5136
 6330TIP3   OH240480   1.889   4.225  14.602 -0.6571  0.2989  0.0908
 6330TIP3    H140481   1.845   4.308  14.582 -1.6113 -0.2913 -0.2941
 6330TIP3    H240482   1.830   4.158  14.569  1.0120 -0.5081 -1.4312
 6331TIP3   OH240483   6.564   2.080   0.386 -0.1587  0.0624 -0.1472
 6331TIP3    H140484   6.472   2.065   0.411  0.1362 -0.8645  0.4220
 6331TIP3    H240485   6.612   2.072   0.468  0.3452  1.4886 -0.2786
 6332TIP3   OH240486   5.898   4.767  11.785 -0.0935  0.0192 -0.0875
 6332TIP3    H140487   5.983   4.783  11.743 -0.2408  1.1240  0.0142
 6332TIP3    H240488   5.842   4.737  11.713  0.3253 -0.5465 -0.1891
 6333TIP3   OH240489   3.701   6.505   3.427  1.0376  0.4699  0.1055
 6333TIP3    H140490   3.718   6.501   3.333  0.1304 -0.3963 -0.0419
 6333TIP3    H240491   3.744   6.427   3.462 -0.7550 -0.6137  0.0174
 6334TIP3   OH240492   2.374   3.865  17.002 -0.1885 -0.5274  0.1087
 6334TIP3    H140493   2.350   3.930  17.068  0.1565 -0.8565  0.5612
 6334TIP3    H240494   2.425   3.914  16.938  0.8104 -0.5241  0.8953
 6335TIP3   OH240495   1.947   3.384  12.919  0.1994  1.0066  0.1820
 6335TIP3    H140496   2.042   3.369  12.915  0.3040  0.0079  3.7614
 6335TIP3    H240497   1.935   3.439  12.996 -2.2970 -0.7788  1.1699
 6336TIP3   OH240498   4.766   6.795  16.759 -0.3002  0.2418  0.0184
 6336TIP3    H140499   4.840   6.853  16.777 -1.3319  1.9419 -0.9895
 6336TIP3    H240500   4.785   6.759  16.672 -0.2235 -0.0183  0.1441
 6337TIP3   OH240501   5.348   6.073  13.543  0.1731 -0.2842  0.0863
 6337TIP3    H140502   5.411   6.041  13.608  1.7604  2.9898  0.3173
 6337TIP3    H240503   5.341   6.001  13.480  3.2347 -1.2856  0.7125
 6338TIP3   OH240504   3.902   0.754  12.888 -0.2773 -0.5424  0.5540
 6338TIP3    H140505   3.875   0.836  12.847  3.0554  0.1256 -0.6815
 6338TIP3    H240506   3.829   0.695  12.876 -1.9719  1.6226 -0.4269
 6339TIP3   OH240507   5.394   1.413   4.233 -0.3167 -0.4712  0.3846
 6339TIP3    H140508   5.352   1.498   4.218 -0.9720 -1.1859 -2.5784
 6339TIP3    H240509   5.321   1.350   4.232  0.3827 -1.3206 -0.6142
 6340TIP3   OH240510   4.913   0.968  15.663 -0.1683  0.6676 -0.1010
 6340TIP3    H140511   4.934   0.933  15.576  1.0968  0.8390  0.1152
 6340TIP3    H240512   4.874   0.894  15.710  1.4470 -0.1848 -0.0151
 6341TIP3   OH240513   5.344   2.614   3.211 -0.1483  0.2558 -0.5517
 6341TIP3    H140514   5.426   2.566   3.221  0.0267  0.6789  0.0964
 6341TIP3    H240515   5.346   2.680   3.280  0.1646  1.9835 -2.1248
 6342TIP3   OH240516   4.964   0.255  10.875  0.8612 -0.2245  0.5819
 6342TIP3    H140517   4.912   0.288  10.802  1.0945 -0.3669  0.3520
 6342TIP3    H240518   5.055   0.264  10.846  0.9303 -1.0660  0.5198
 6343TIP3   OH240519   6.012   2.944  11.110 -0.6216  0.5107 -0.9061
 6343TIP3    H140520   5.942   2.992  11.065 -1.1172 -0.4613 -1.1958
 6343TIP3    H240521   6.036   2.874  11.049 -0.4168 -0.0571 -0.1809
 6344TIP3   OH240522   0.364   0.957  12.947  0.1194  0.4696 -0.5051
 6344TIP3    H140523   0.406   1.036  12.981  0.4455  0.3787 -0.6974
 6344TIP3    H240524   0.377   0.961  12.853  1.1975 -0.4080 -0.4247
 6345TIP3   OH240525   1.719   2.234  16.473  0.3075 -0.3927  0.6470
 6345TIP3    H140526   1.673   2.150  16.467 -0.6539  0.0863  1.1772
 6345TIP3    H240527   1.722   2.266  16.383  0.8065 -1.0479  0.4164
 6346TIP3   OH240528   2.502   5.773  13.443 -0.5758  0.2257 -0.3724
 6346TIP3    H140529   2.495   5.860  13.482 -1.4813 -0.4089  0.9277
 6346TIP3    H240530   2.595   5.751  13.450 -0.8107 -0.2334  2.3465
 6347TIP3   OH240531   4.169   2.568   3.303  0.1215 -0.3905  0.3591
 6347TIP3    H140532   4.165   2.660   3.275 -0.1624 -0.3796  0.4377
 6347TIP3    H240533   4.113   2.522   3.240  0.1386 -0.4867  0.4149
 6348TIP3   OH240534   0.260   3.027  11.784  0.1467  0.0549 -0.0175
 6348TIP3    H140535   0.169   3.056  11.795 -0.1601 -0.3256 -1.4567
 6348TIP3    H240536   0.287   3.062  11.699  1.5894  0.7180  0.6693
 6349TIP3   OH240537   6.731   0.584   0.599  0.1973  0.3661 -0.3817
 6349TIP3    H140538   6.647   0.538   0.603 -0.8947  2.2956  1.2352
 6349TIP3    H240539   6.776   0.558   0.679  0.4837  0.5028 -0.4976
 6350TIP3   OH240540   1.804   5.588   6.394 -0.0595 -0.1206  0.3069
 6350TIP3    H140541   1.760   5.636   6.323  0.3137 -1.8065 -1.1385
 6350TIP3    H240542   1.736   5.574   6.459 -1.2874 -1.2395 -1.1459
 6351TIP3   OH240543   0.990   5.651   5.491 -0.0302 -0.2468  0.1751
 6351TIP3    H140544   0.926   5.635   5.561 -0.0686 -0.3603  0.1162
 6351TIP3    H240545   0.936   5.654   5.411 -0.0882  0.7378  0.2450
 6352TIP3   OH240546   6.335   6.198   0.839  0.3838  0.3186 -0.3431
 6352TIP3    H140547   6.330   6.130   0.771 -0.7936 -0.1277  0.1501
 6352TIP3    H240548   6.248   6.237   0.839 -0.2461 -0.8858  2.0652
 6353TIP3   OH240549   3.156   1.844   1.895  0.4530  0.2369  0.3535
 6353TIP3    H140550   3.108   1.871   1.817  3.6227 -0.9341 -2.2126
 6353TIP3    H240551   3.116   1.760   1.920 -0.2637  0.3744 -0.2862
 6354TIP3   OH240552   0.622   2.449  16.167 -0.3243  0.0989 -0.2629
 6354TIP3    H140553   0.616   2.438  16.072 -0.5400  1.6224 -0.4501
 6354TIP3    H240554   0.541   2.493  16.191 -0.3166 -0.3771  0.6512
 6355TIP3   OH240555   2.905   1.450   4.918  0.1425 -0.4121  0.6360
 6355TIP3    H140556   2.969   1.425   4.985  0.7114  1.0472  0.6758
 6355TIP3    H240557   2.957   1.487   4.847 -0.5641 -0.5496  0.0321
 6356TIP3   OH240558   3.001   1.192   1.885 -0.0741 -0.0360  0.1168
 6356TIP3    H140559   3.015   1.256   1.955  1.1551  0.0996 -0.2315
 6356TIP3    H240560   2.913   1.159   1.901  0.4022 -0.4824  2.1122
 6357TIP3   OH240561   3.479   3.069  14.586  0.1563  0.0497 -0.2179
 6357TIP3    H140562   3.449   3.156  14.558  0.7624  0.7979  1.3369
 6357TIP3    H240563   3.411   3.039  14.646 -0.2671 -0.7692 -1.0833
 6358TIP3   OH240564   1.897   0.076  11.676  0.4496 -0.7236 -0.5004
 6358TIP3    H140565   1.874   0.102  11.586 -3.6454  2.5854  1.1250
 6358TIP3    H240566   1.871  -0.015  11.682  0.1101 -0.8068 -2.4674
 6359TIP3   OH240567   0.241   3.833   1.570 -0.8018  0.2229 -0.1156
 6359TIP3    H140568   0.279   3.809   1.486 -0.9907  1.2258 -0.4913
 6359TIP3    H240569   0.167   3.890   1.548 -2.0508 -1.0381  0.6312
 6360TIP3   OH240570   3.374   6.801  12.039 -0.1515 -0.5895 -0.2103
 6360TIP3    H140571   3.294   6.759  12.008 -1.2488  1.9365 -1.0694
 6360TIP3    H240572   3.353   6.834  12.126  0.2166 -0.6355 -0.1006
 6361TIP3   OH240573   1.778   4.032  16.778 -0.1549  0.0204 -0.1952
 6361TIP3    H140574   1.818   3.947  16.794 -0.5542 -0.0597  0.4363
 6361TIP3    H240575   1.846   4.083  16.734  0.8275  0.0582  1.2938
 6362TIP3   OH240576   1.247   3.351   3.513  0.4330  0.2036  0.2890
 6362TIP3    H140577   1.265   3.279   3.452  0.7881  0.1403  0.4683
 6362TIP3    H240578   1.331   3.368   3.555  0.6025  1.3951 -0.4770
 6363TIP3   OH240579   1.257   6.180  11.472  0.5084 -0.5564 -0.2378
 6363TIP3    H140580   1.330   6.121  11.491  0.0962 -1.6817 -1.8596
 6363TIP3    H240581   1.187   6.122  11.443 -0.4383  0.6285 -0.3979
 6364TIP3   OH240582   5.265   3.718  10.677 -0.6848  0.2788  0.4655
 6364TIP3    H140583   5.330   3.649  10.668 -0.5090  0.5678 -0.5323
 6364TIP3    H240584   5.247   3.722  10.771 -2.0708 -2.3840  0.3999
 6365TIP3   OH240585   1.972   6.712   6.509  0.2121 -0.1846  0.1214
 6365TIP3    H140586   2.008   6.797   6.535  1.4658 -0.6888  0.1018
 6365TIP3    H240587   1.935   6.677   6.589 -1.6809  0.9973 -0.1724
 6366TIP3   OH240588   3.562   0.850   0.603  0.0831 -0.1038 -0.7498
 6366TIP3    H140589   3.628   0.875   0.668 -0.1265  0.5314 -0.7691
 6366TIP3    H240590   3.501   0.924   0.602 -1.2727 -1.1663  0.0994
 6367TIP3   OH240591   1.886   1.191  16.063  0.4977  0.3474 -0.3027
 6367TIP3    H140592   1.908   1.104  16.095 -0.1696  0.0870 -0.5367
 6367TIP3    H240593   1.950   1.209  15.994  0.6643  0.0655 -0.2207
 6368TIP3   OH240594   5.679   5.222   4.242 -0.2797 -0.2749 -0.5359
 6368TIP3    H140595   5.592   5.183   4.253 -1.4429  1.9182 -1.3693
 6368TIP3    H240596   5.719   5.214   4.329 -1.8896 -0.0569  0.2798
 6369TIP3   OH240597   2.366   3.264   1.907 -0.2713  0.2687  0.0996
 6369TIP3    H140598   2.310   3.187   1.890  1.5800 -0.7890 -1.7218
 6369TIP3    H240599   2.422   3.237   1.980  1.8269 -1.1018 -1.8513
 6370TIP3   OH240600   3.635   2.802   2.175  0.0695  0.2392 -0.2216
 6370TIP3    H140601   3.692   2.848   2.113 -1.3836 -0.0541 -1.8524
 6370TIP3    H240602   3.627   2.714   2.139 -0.1700 -0.1974  0.8539
 6371TIP3   OH240603   5.676   0.952  15.375 -0.3321 -0.3035 -0.5703
 6371TIP3    H140604   5.611   0.887  15.347 -0.7104 -0.5492  0.7705
 6371TIP3    H240605   5.642   0.986  15.458  0.0625  1.3415 -1.0469
 6372TIP3   OH240606   3.342   4.835   4.664 -0.2101 -0.2167  0.4488
 6372TIP3    H140607   3.427   4.816   4.704 -0.8899 -0.7248  1.6872
 6372TIP3    H240608   3.308   4.908   4.715 -0.6555 -0.2172  0.1550
 6373TIP3   OH240609   0.519   2.033  14.406  0.2757  0.2020  0.1323
 6373TIP3    H140610   0.607   2.038  14.369  0.8423  0.9153  1.4933
 6373TIP3    H240611   0.466   2.090  14.350  0.7588  0.0750 -0.4593
 6374TIP3   OH240612   5.136   1.748   1.568  0.3466 -0.2850  0.4343
 6374TIP3    H140613   5.114   1.746   1.661  0.6895  1.5886  0.5861
 6374TIP3    H240614   5.124   1.657   1.539 -3.2678 -0.2925  1.4792
 6375TIP3   OH240615   1.190   1.446  13.535  0.5473  0.0266  0.6699
 6375TIP3    H140616   1.184   1.532  13.576  0.8850  0.9060 -1.0478
 6375TIP3    H240617   1.119   1.395  13.574 -0.0603  1.2851  1.2281
 6376TIP3   OH240618   5.246   0.547  10.449 -0.3411  0.1406  0.0766
 6376TIP3    H140619   5.309   0.498  10.501 -2.6150 -1.7085  1.2793
 6376TIP3    H240620   5.259   0.515  10.360  0.4352 -0.1564  0.2907
 6377TIP3   OH240621   5.178   1.237  15.402  0.1534 -0.2034  0.7607
 6377TIP3    H140622   5.273   1.232  15.386  0.1909  0.7135  0.6468
 6377TIP3    H240623   5.145   1.297  15.335 -0.6955 -1.3777  0.1002
 6378TIP3   OH240624   1.253   5.571  17.344  0.9859  0.6136  0.4078
 6378TIP3    H140625   1.159   5.579  17.329  1.0068 -1.0160 -0.9390
 6378TIP3    H240626   1.276   5.646  17.398 -1.1496  0.8496  1.0522
 6379TIP3   OH240627   3.390   3.541  12.250 -0.4003  0.0415 -0.3536
 6379TIP3    H140628   3.420   3.517  12.337  0.0087 -1.2395 -0.8247
 6379TIP3    H240629   3.306   3.494  12.240 -0.6258  0.4743 -0.5092
 6380TIP3   OH240630   5.530   4.193   3.070 -0.0933 -0.0646  0.4389
 6380TIP3    H140631   5.451   4.155   3.030 -0.5255  1.5193 -0.2739
 6380TIP3    H240632   5.497   4.243   3.145  0.2862  0.2722  0.3802
 6381TIP3   OH240633   4.471   1.902  16.095 -0.0273 -0.2262 -0.0625
 6381TIP3    H140634   4.486   1.968  16.163 -0.5841  0.3552 -0.4944
 6381TIP3    H240635   4.413   1.837  16.137  0.1832 -0.2248  0.2306
 6382TIP3   OH240636   5.085   2.958  15.698  0.1846  0.3693  0.0191
 6382TIP3    H140637   5.084   3.035  15.640  2.9228 -1.0927 -2.1880
 6382TIP3    H240638   5.074   2.884  15.640  0.5118 -1.0953  1.7438
 6383TIP3   OH240639   4.635   3.617  16.121 -0.3798 -0.2253  0.4231
 6383TIP3    H140640   4.636   3.534  16.168 -0.7296 -0.2397  0.4118
 6383TIP3    H240641   4.684   3.677  16.177 -1.3674 -0.0626  1.1589
 6384TIP3   OH240642   2.064   6.249   5.076 -0.3828  0.4046  0.0715
 6384TIP3    H140643   2.108   6.329   5.050  0.6476  0.7411  2.5496
 6384TIP3    H240644   2.133   6.194   5.114 -1.1354 -1.5181 -1.1893
 6385TIP3   OH240645   5.325   3.346  17.154  0.1675 -0.3226 -0.1286
 6385TIP3    H140646   5.402   3.318  17.203 -0.1849  0.6882  1.0734
 6385TIP3    H240647   5.342   3.438  17.133 -0.5802 -0.1640 -0.0800
 6386TIP3   OH240648   5.669   3.629  16.113 -0.0645 -0.4786  0.3102
 6386TIP3    H140649   5.695   3.673  16.032 -1.5667 -0.5363 -0.2422
 6386TIP3    H240650   5.714   3.544  16.110 -0.8956 -0.9055 -1.0022
 6387TIP3   OH240651   6.775   1.298  14.747  0.7323  0.1139 -0.1229
 6387TIP3    H140652   6.682   1.306  14.724  0.7106  0.1225 -0.0306
 6387TIP3    H240653   6.821   1.312  14.664  0.6931  1.1047  0.0050
 6388TIP3   OH240654   0.239   4.749  16.038 -0.3804  0.0350  0.5601
 6388TIP3    H140655   0.186   4.727  15.961  0.0357 -1.4678  0.6859
 6388TIP3    H240656   0.285   4.668  16.060  0.5977  0.8317  1.5440
 6389TIP3   OH240657   5.392   6.349   3.924 -0.4329  0.2402 -0.0545
 6389TIP3    H140658   5.475   6.338   3.877 -1.9439 -1.1805 -2.6074
 6389TIP3    H240659   5.345   6.416   3.874 -3.1265 -3.0732 -2.4113
 6390TIP3   OH240660   5.244   1.392  12.007  0.6166  0.0429  0.2489
 6390TIP3    H140661   5.185   1.366  11.936 -0.1882  1.2921  0.4316
 6390TIP3    H240662   5.332   1.374  11.973  0.1574 -2.3120  0.1594
 6391TIP3   OH240663   0.458   2.188   4.311 -0.6952 -0.0963  0.1708
 6391TIP3    H140664   0.525   2.127   4.343  0.3873  1.0654  0.2130
 6391TIP3    H240665   0.386   2.180   4.373 -0.5443 -1.2393  0.2310
 6392TIP3   OH240666   4.631   5.427  16.291  0.1282 -0.2208 -0.4174
 6392TIP3    H140667   4.701   5.381  16.245 -0.0998 -0.7605 -0.2332
 6392TIP3    H240668   4.574   5.460  16.222 -0.8637 -2.0459 -0.5301
 6393TIP3   OH240669   4.318   6.340  14.837 -0.4681  0.5460 -0.1485
 6393TIP3    H140670   4.274   6.268  14.881  1.9606 -1.2867 -0.4882
 6393TIP3    H240671   4.276   6.419  14.871 -1.3420 -0.9166  2.4173
 6394TIP3   OH240672   4.393   6.098   4.879 -0.5200  0.6543 -0.4442
 6394TIP3    H140673   4.485   6.083   4.899 -1.0368 -0.8204  1.1079
 6394TIP3    H240674   4.383   6.074   4.787  1.1205  3.4777 -1.5049
 6395TIP3   OH240675   0.920   2.879  14.912 -0.4713  0.3511 -0.2637
 6395TIP3    H140676   0.941   2.887  14.819  1.1249  0.8681  0.1066
 6395TIP3    H240677   0.984   2.934  14.956  0.9313 -2.3751  1.3790
 6396TIP3   OH240678   3.590   5.984   4.240 -0.0879  0.3697 -0.0101
 6396TIP3    H140679   3.579   6.027   4.325  1.0464  1.0239 -0.1764
 6396TIP3    H240680   3.569   6.052   4.176 -0.3085  0.0670 -0.2588
 6397TIP3   OH240681   4.984   3.012   0.748 -0.4270  0.0269  0.3022
 6397TIP3    H140682   4.993   2.922   0.716 -1.8682 -0.0295 -0.0086
 6397TIP3    H240683   4.890   3.023   0.762 -0.1741  1.1667  1.2987
 6398TIP3   OH240684   3.528   0.620   0.472  0.2552  0.1892  0.6318
 6398TIP3    H140685   3.562   0.666   0.396  0.2819 -0.1627  0.4280
 6398TIP3    H240686   3.529   0.685   0.542  0.0326  0.5742  0.2829
 6399TIP3   OH240687   2.488   3.973  13.695 -0.5241 -0.0492  0.3846
 6399TIP3    H140688   2.551   3.903  13.713 -1.1306 -0.6000  0.3699
 6399TIP3    H240689   2.407   3.928  13.673 -0.5372  0.6489 -1.0703
 6400TIP3   OH240690   3.110   0.027  16.179 -0.2369  0.4309  0.1388
 6400TIP3    H140691   3.080  -0.023  16.256 -0.5711  0.3939 -0.0152
 6400TIP3    H240692   3.107  -0.036  16.107  0.9274  0.2132  0.2522
 6401TIP3   OH240693   6.317   0.852  14.436  0.0859  0.6020  0.0401
 6401TIP3    H140694   6.224   0.855  14.459 -0.0615 -0.1911 -0.4026
 6401TIP3    H240695   6.329   0.764  14.399  0.7109  1.1694 -1.1484
 6402TIP3   OH240696   6.179   2.616   5.249  0.4504  0.3881  0.0040
 6402TIP3    H140697   6.137   2.692   5.209  1.9897  0.4447 -1.6368
 6402TIP3    H240698   6.160   2.544   5.189  1.8305  0.2222 -0.2646
 6403TIP3   OH240699   1.833   1.673   3.915  0.3232  0.6248 -0.7092
 6403TIP3    H140700   1.783   1.633   3.844  0.8480  1.1326 -1.3900
 6403TIP3    H240701   1.802   1.630   3.994  0.5103 -0.7612 -1.3540
 6404TIP3   OH240702   0.508   0.514   1.147 -0.1328 -0.1815  0.3856
 6404TIP3    H140703   0.563   0.515   1.225 -0.3014 -1.7489  0.5506
 6404TIP3    H240704   0.436   0.573   1.169  0.0221 -0.3031  1.2765
 6405TIP3   OH240705   3.113   4.283   1.036 -0.2187 -0.3258 -0.6499
 6405TIP3    H140706   3.180   4.289   0.967 -0.6999 -0.4415 -1.1329
 6405TIP3    H240707   3.154   4.322   1.113  0.9067 -1.5823 -0.5674
 6406TIP3   OH240708   1.763   3.613   2.082  0.3374  0.2600 -0.0574
 6406TIP3    H140709   1.827   3.593   2.013  1.4480  0.0371  0.9987
 6406TIP3    H240710   1.784   3.552   2.153  0.2998  1.5554  1.1205
 6407TIP3   OH240711   0.494   4.068   4.536  0.4655 -0.4556 -0.3936
 6407TIP3    H140712   0.471   4.080   4.629  0.6151 -1.8301 -0.1570
 6407TIP3    H240713   0.464   4.148   4.494  0.4234  0.2140  0.8478
 6408TIP3   OH240714   0.465   2.018   2.264 -0.0009  0.0826 -0.1494
 6408TIP3    H140715   0.531   2.029   2.196 -0.0450 -1.1954 -0.4285
 6408TIP3    H240716   0.429   1.930   2.249 -2.3241  1.0256 -0.4859
 6409TIP3   OH240717   5.478   3.861  16.116  0.1821 -0.9085  0.0711
 6409TIP3    H140718   5.568   3.836  16.094  0.3059  0.5099 -1.2413
 6409TIP3    H240719   5.456   3.929  16.052 -1.5350 -0.6282  0.9001
 6410TIP3   OH240720   1.551   0.391  15.087  0.1798  0.1477  0.0890
 6410TIP3    H140721   1.469   0.439  15.092  0.0065 -0.1074 -0.2698
 6410TIP3    H240722   1.553   0.338  15.167 -0.2165 -0.1814 -0.1179
 6411TIP3   OH240723   3.269   4.212   1.835  0.0848 -0.4150  0.1383
 6411TIP3    H140724   3.357   4.192   1.803  0.4901  0.4065  0.7071
 6411TIP3    H240725   3.234   4.274   1.771  0.9705  1.3843  1.3042
 6412TIP3   OH240726   3.223   6.377  14.884  0.1886 -0.2076 -0.4159
 6412TIP3    H140727   3.161   6.373  14.957 -0.7124  2.6170 -0.9220
 6412TIP3    H240728   3.169   6.374  14.806  0.9391 -0.4904 -0.9388
 6413TIP3   OH240729   0.641   2.070   4.019 -0.4247 -0.0572  0.4486
 6413TIP3    H140730   0.700   2.017   4.073  1.2364  0.2009 -1.0270
 6413TIP3    H240731   0.674   2.159   4.029 -1.4374  0.3078  0.6560
 6414TIP3   OH240732   1.036   3.195   5.456 -0.4258  0.2236  0.0715
 6414TIP3    H140733   0.976   3.166   5.387  0.4233 -0.0722 -0.5636
 6414TIP3    H240734   1.076   3.114   5.487 -0.0489  0.4565  0.1913
 6415TIP3   OH240735   1.516   2.159  14.013 -0.0836 -0.3441 -0.1409
 6415TIP3    H140736   1.589   2.200  14.060 -1.2579 -0.7605  2.2332
 6415TIP3    H240737   1.520   2.197  13.925  2.0417  0.7940  0.3554
 6416TIP3   OH240738   2.166   6.788   3.720  0.0539  0.1370 -0.3827
 6416TIP3    H140739   2.241   6.842   3.696  0.4863 -1.6705 -3.6728
 6416TIP3    H240740   2.204   6.708   3.756 -0.0466 -1.3857 -3.3607
 6417TIP3   OH240741   5.246   4.530  16.639  0.0769 -0.1054 -0.0914
 6417TIP3    H140742   5.248   4.475  16.717  1.9085  0.1712  0.0951
 6417TIP3    H240743   5.220   4.472  16.568 -1.1722 -0.4591  0.6348
 6418TIP3   OH240744   3.265   1.870   1.523 -0.1298 -0.0214 -1.2687
 6418TIP3    H140745   3.202   1.927   1.567  1.3360  0.3982  0.4340
 6418TIP3    H240746   3.321   1.929   1.473  1.3678  0.1159  0.4677
 6419TIP3   OH240747   2.650   4.547  13.817 -0.0254 -0.1191  0.6784
 6419TIP3    H140748   2.564   4.578  13.844 -0.8513 -1.5598 -0.1752
 6419TIP3    H240749   2.681   4.495  13.891 -0.5962 -0.8895  0.3901
 6420TIP3   OH240750   4.083   2.717   5.384 -0.2220  0.2493  0.2598
 6420TIP3    H140751   4.129   2.762   5.313 -0.2471  0.0462  0.1139
 6420TIP3    H240752   4.150   2.665   5.428 -0.2752  0.1007  0.1652
 6421TIP3   OH240753   4.857   0.163  13.851 -0.2385 -0.6450  0.2547
 6421TIP3    H140754   4.831   0.203  13.935  0.9654  1.9570 -0.5296
 6421TIP3    H240755   4.787   0.188  13.791 -0.0864 -0.7756  0.0249
 6422TIP3   OH240756   1.898   4.328  13.853 -0.1475 -0.2690 -0.0308
 6422TIP3    H140757   1.865   4.390  13.788 -0.3113  0.1809  0.4767
 6422TIP3    H240758   1.959   4.378  13.906  0.1581 -0.6931  0.0291
 6423TIP3   OH240759   3.032   4.491  16.439  0.0070  0.2181  1.1739
 6423TIP3    H140760   3.079   4.573  16.430 -0.5426  0.3399 -1.3660
 6423TIP3    H240761   3.099   4.423  16.424  0.4867  0.1418  3.3965
 6424TIP3   OH240762   4.754   1.988  11.990 -0.3251 -0.1022  0.1980
 6424TIP3    H140763   4.745   1.893  11.996 -0.5780 -0.0844  0.1208
 6424TIP3    H240764   4.685   2.015  11.930  1.2351 -0.1223 -1.6968
 6425TIP3   OH240765   5.353   6.526  12.193 -0.2483 -0.1565 -0.3743
 6425TIP3    H140766   5.422   6.527  12.260 -1.0681  0.3738  0.4830
 6425TIP3    H240767   5.318   6.615  12.194 -0.6703 -0.3119 -1.1047
 6426TIP3   OH240768   1.514   2.410   1.080 -0.6366  0.4813 -0.4858
 6426TIP3    H140769   1.512   2.389   1.173 -0.6497  3.2485  0.2366
 6426TIP3    H240770   1.422   2.407   1.053 -0.7084  0.3501 -0.2336
 6427TIP3   OH240771   5.729   2.295  13.616 -0.5890 -0.4582 -0.2194
 6427TIP3    H140772   5.751   2.388  13.611  1.3130 -0.8807 -0.6618
 6427TIP3    H240773   5.704   2.271  13.527  1.5468 -0.9059 -0.7573
 6428TIP3   OH240774   6.729   5.001   6.148  0.5390  0.3762 -0.1771
 6428TIP3    H140775   6.796   5.060   6.113  1.9350 -1.2520 -0.3751
 6428TIP3    H240776   6.769   4.963   6.226  0.2167 -1.3070 -0.8067
 6429TIP3   OH240777   5.840   5.480  15.510 -0.3497  0.2271  0.0519
 6429TIP3    H140778   5.796   5.418  15.568  1.1369  0.1640  1.1746
 6429TIP3    H240779   5.771   5.539  15.481 -1.4446 -0.7926  0.4986
 6430TIP3   OH240780   5.297   0.434  17.002  0.0120 -0.2686 -0.1324
 6430TIP3    H140781   5.265   0.390  16.923 -0.2485  0.1315 -0.2585
 6430TIP3    H240782   5.227   0.422  17.066  0.8005 -1.7687  0.4924
 6431TIP3   OH240783   5.435   5.769  16.499  0.5054  0.2454  0.9293
 6431TIP3    H140784   5.360   5.722  16.463  2.0241 -1.0244 -0.7625
 6431TIP3    H240785   5.451   5.728  16.584  0.7147 -1.1697  0.2432
 6432TIP3   OH240786   4.853   0.766   4.716 -0.5176 -0.0778  0.2014
 6432TIP3    H140787   4.836   0.674   4.736  1.1526 -0.2370  1.0923
 6432TIP3    H240788   4.911   0.764   4.640  0.3695  0.1686  0.8506
 6433TIP3   OH240789   5.686   4.376   5.535 -0.0733  0.3417 -0.0216
 6433TIP3    H140790   5.665   4.293   5.491  1.4375 -0.5512  0.8546
 6433TIP3    H240791   5.631   4.441   5.491 -0.7958 -1.0049 -1.1976
 6434TIP3   OH240792   2.832   3.821  11.689  0.3445  0.3165 -0.7955
 6434TIP3    H140793   2.740   3.822  11.716  0.7187 -2.4957  0.9497
 6434TIP3    H240794   2.861   3.911  11.699 -1.6101  0.8322  0.9512
 6435TIP3   OH240795   1.090   3.885  11.462  0.3962 -0.1428  0.8104
 6435TIP3    H140796   1.137   3.908  11.542  0.6489 -1.4670  1.0718
 6435TIP3    H240797   1.151   3.828  11.414 -0.0633 -0.0238  0.0592
 6436TIP3   OH240798   2.017   2.514  12.736  0.2648  0.5582 -0.1313
 6436TIP3    H140799   2.003   2.608  12.721  0.2971  0.4078 -1.1381
 6436TIP3    H240800   1.935   2.473  12.708  0.0014  0.3373  0.9335
 6437TIP3   OH240801   3.540   6.459   1.130 -0.2082  0.5266  0.4059
 6437TIP3    H140802   3.636   6.463   1.133 -0.0626 -1.1420 -0.7241
 6437TIP3    H240803   3.518   6.477   1.039 -1.1928  3.3297  1.0991
 6438TIP3   OH240804   4.245   1.655   0.941 -0.0832  0.1907 -0.1961
 6438TIP3    H140805   4.315   1.648   0.877  0.6611 -1.1134  0.7356
 6438TIP3    H240806   4.288   1.646   1.026 -1.3713 -0.6562  0.3936
 6439TIP3   OH240807   6.621   0.378   2.482  0.6454  0.2407  0.2725
 6439TIP3    H140808   6.672   0.423   2.549 -0.8129  0.1021  1.5271
 6439TIP3    H240809   6.539   0.427   2.477 -0.8006 -1.9263  1.3396
 6440TIP3   OH240810   2.048   0.442   2.344  0.5045  0.1305 -0.7015
 6440TIP3    H140811   2.001   0.481   2.271 -1.5922  0.3289  0.6714
 6440TIP3    H240812   1.980   0.403   2.399  1.5472  2.5595  2.7014
 6441TIP3   OH240813   2.474   5.739   7.095 -0.4924 -0.2456 -0.0038
 6441TIP3    H140814   2.511   5.825   7.071  0.6406 -0.7206 -0.0128
 6441TIP3    H240815   2.411   5.721   7.025  1.8126 -1.0029 -2.0284
 6442TIP3   OH240816   4.846   4.237   0.184 -0.0166 -0.0443 -0.2004
 6442TIP3    H140817   4.751   4.224   0.192 -0.1883  1.2815  0.0469
 6442TIP3    H240818   4.870   4.284   0.264  0.8145 -0.1596 -0.3810
 6443TIP3   OH240819   4.070   0.902   5.713 -0.2448 -0.1394 -0.4595
 6443TIP3    H140820   4.041   0.928   5.800  2.9635  2.0703  0.1678
 6443TIP3    H240821   4.158   0.867   5.727 -0.4047 -1.6043 -2.6492
 6444TIP3   OH240822   3.053   2.731  14.316 -0.9802 -0.1087 -0.4883
 6444TIP3    H140823   3.095   2.673  14.253  1.1829 -0.2261  0.9341
 6444TIP3    H240824   2.992   2.675  14.364 -0.6703 -0.6443 -0.7147
 6445TIP3   OH240825   2.931   0.564  14.282  0.4954 -0.4395  0.2329
 6445TIP3    H140826   2.853   0.594  14.237  0.9708 -1.0572 -1.0474
 6445TIP3    H240827   2.993   0.637  14.274  0.7944 -0.7832 -0.6910
 6446TIP3   OH240828   5.970   5.512   3.477  0.2658  0.3059 -0.4064
 6446TIP3    H140829   5.948   5.431   3.433 -0.3099  0.5763 -0.6173
 6446TIP3    H240830   5.889   5.542   3.517  0.1410  1.4470 -1.4227
 6447TIP3   OH240831   3.040   1.019  16.080 -0.5211 -0.8735 -0.4581
 6447TIP3    H140832   3.036   1.025  16.176  1.2064  0.8974 -0.4370
 6447TIP3    H240833   3.013   1.106  16.050  0.9037 -0.7429 -1.4683
 6448TIP3   OH240834   3.090   1.406   1.026 -0.3019 -0.1856 -0.1401
 6448TIP3    H140835   3.165   1.375   0.976 -0.3117 -3.3436  1.5643
 6448TIP3    H240836   3.098   1.502   1.025  4.2005 -0.3471  0.6422
 6449TIP3   OH240837   3.881   6.275   3.432 -0.0599 -0.2869  0.1039
 6449TIP3    H140838   3.971   6.308   3.429  0.3416 -1.3569 -0.0768
 6449TIP3    H240839   3.871   6.227   3.350  0.2551 -2.8112  1.4726
 6450TIP3   OH240840   4.049   4.869   4.316 -0.1798 -0.9172  0.2571
 6450TIP3    H140841   4.069   4.939   4.378  0.7314 -0.5128 -0.4729
 6450TIP3    H240842   4.081   4.789   4.358 -0.4211 -0.7845  0.7030
 6451TIP3   OH240843   3.385   6.596  15.756  0.0407  0.0579 -0.1096
 6451TIP3    H140844   3.414   6.507  15.779  0.9349  0.3504 -0.0401
 6451TIP3    H240845   3.301   6.584  15.713  0.3153 -0.8585 -0.4216
 6452TIP3   OH240846   1.692   0.324  14.196 -0.2191 -0.3370  0.4297
 6452TIP3    H140847   1.717   0.273  14.273 -0.7947  0.5715  1.2366
 6452TIP3    H240848   1.688   0.415  14.227 -1.1130 -0.0322 -0.5091
 6453TIP3   OH240849   1.923   3.679  14.993  0.0807  0.0048 -0.2508
 6453TIP3    H140850   1.909   3.774  15.002  1.9508  0.2205  0.8769
 6453TIP3    H240851   1.932   3.666  14.899  0.7558  1.1416 -0.3767
 6454TIP3   OH240852   6.725   5.059  16.675  0.0189 -0.1944 -0.3346
 6454TIP3    H140853   6.722   5.138  16.622 -2.2302  0.9986  1.3846
 6454TIP3    H240854   6.789   5.079  16.744  0.3689 -0.3791 -0.6016
 6455TIP3   OH240855   0.328   0.252   3.629  0.1893  0.1255  0.5075
 6455TIP3    H140856   0.254   0.306   3.657  1.0863 -0.0906  3.6647
 6455TIP3    H240857   0.293   0.198   3.559 -1.5114  2.7379 -0.8377
 6456TIP3   OH240858   0.608   6.549  13.674  0.8314 -0.2348  0.1869
 6456TIP3    H140859   0.657   6.579  13.751  0.5234  0.4271  0.1286
 6456TIP3    H240860   0.649   6.595  13.601 -1.5353  2.4296  0.4040
 6457TIP3   OH240861   0.724   1.240   3.238  0.7988 -0.1165  0.4728
 6457TIP3    H140862   0.704   1.158   3.283  0.1828  0.7269  1.7599
 6457TIP3    H240863   0.738   1.304   3.307  1.9955  0.7267 -0.4986
 6458TIP3   OH240864   4.707   3.359  14.413  0.2690 -0.6652 -0.4816
 6458TIP3    H140865   4.795   3.393  14.427  0.8772 -2.3987  0.2115
 6458TIP3    H240866   4.677   3.331  14.499 -0.4495 -1.2562 -0.9064
 6459TIP3   OH240867   5.768   1.815  17.366 -0.2961  0.5375 -0.5717
 6459TIP3    H140868   5.786   1.881  17.433  0.0821  0.7513 -0.8819
 6459TIP3    H240869   5.761   1.733  17.415 -1.7209  0.9332 -0.0637
 6460TIP3   OH240870   5.277   1.970  17.305 -0.4032 -0.2783 -0.3999
 6460TIP3    H140871   5.243   2.053  17.274  0.9312  0.0151 -1.1215
 6460TIP3    H240872   5.216   1.944  17.375  0.8624  2.8755  2.1424
 6461TIP3   OH240873   3.485   5.828  15.341  0.1154  0.6919 -0.1450
 6461TIP3    H140874   3.445   5.915  15.331 -2.1074 -0.2594 -0.0329
 6461TIP3    H240875   3.423   5.768  15.301  0.9549 -1.0007  0.9692
 6462TIP3   OH240876   3.228   4.444   4.026  0.2174 -0.2954 -0.6779
 6462TIP3    H140877   3.302   4.393   4.059  1.1764 -0.1581 -2.4619
 6462TIP3    H240878   3.268   4.522   3.987 -1.0802  0.9485  0.3595
 6463TIP3   OH240879   3.384   3.703   6.474 -0.2450  0.6136 -0.0250
 6463TIP3    H140880   3.422   3.791   6.465 -0.8779  1.3390  3.0552
 6463TIP3    H240881   3.460   3.645   6.479  0.1921  0.9849 -1.6762
 6464TIP3   OH240882   5.047   6.259   3.424 -0.5568 -0.0605 -0.0273
 6464TIP3    H140883   4.982   6.320   3.390 -0.6423 -0.6745 -1.0021
 6464TIP3    H240884   5.119   6.315   3.453 -1.5419  0.6267  1.1691
 6465TIP3   OH240885   6.641   1.315  13.649 -0.6615  0.3283 -0.0140
 6465TIP3    H140886   6.668   1.405  13.637  2.5383 -0.6398 -0.9423
 6465TIP3    H240887   6.649   1.299  13.743 -0.9468  0.9191  0.1100
 6466TIP3   OH240888   2.437   2.151   1.671 -0.4184 -0.2579 -0.7422
 6466TIP3    H140889   2.488   2.076   1.700 -1.3824 -1.0314 -1.0225
 6466TIP3    H240890   2.356   2.147   1.720  0.6112  2.2822  1.4436
 6467TIP3   OH240891   4.957   2.716   1.544  0.2788  0.6603 -0.0104
 6467TIP3    H140892   5.053   2.720   1.547  0.3686 -0.9081 -0.1647
 6467TIP3    H240893   4.932   2.673   1.626 -0.1510 -0.5759 -0.7581
 6468TIP3   OH240894   6.641   5.554   2.886 -0.0525  0.3604 -0.5503
 6468TIP3    H140895   6.682   5.639   2.871  1.7548  0.2824  3.0206
 6468TIP3    H240896   6.563   5.574   2.938  0.7734 -0.1429  0.9330
 6469TIP3   OH240897   6.741   2.510   4.247  0.4775 -0.0808  0.0380
 6469TIP3    H140898   6.671   2.525   4.311 -0.5526  0.6029 -1.2051
 6469TIP3    H240899   6.732   2.581   4.184  2.7238  0.3961  0.1741
 6470TIP3   OH240900   3.037   3.850  11.487  0.1225  0.2271  0.0353
 6470TIP3    H140901   3.044   3.813  11.399  0.0725 -1.2698  0.6201
 6470TIP3    H240902   2.974   3.793  11.532 -0.7612  1.6873  0.6999
 6471TIP3   OH240903   1.264   3.138   0.931  0.3216  0.6733 -0.5515
 6471TIP3    H140904   1.228   3.061   0.886 -0.5008  0.6830  0.0664
 6471TIP3    H240905   1.222   3.138   1.017  2.8269 -0.0805  0.7808
 6472TIP3   OH240906   1.303   5.170  11.630  0.3206 -0.0650 -0.8823
 6472TIP3    H140907   1.221   5.162  11.678  1.2368 -0.7019  0.6726
 6472TIP3    H240908   1.283   5.229  11.557 -2.2268 -2.4000 -2.2455
 6473TIP3   OH240909   3.864   1.175  13.060 -0.6467 -0.2760 -0.1063
 6473TIP3    H140910   3.797   1.221  13.010 -0.1778 -0.3103 -0.7954
 6473TIP3    H240911   3.850   1.201  13.150 -0.0694  1.6434 -0.5201
 6474TIP3   OH240912   1.181   1.922   5.005 -0.0023 -0.1836 -0.2966
 6474TIP3    H140913   1.239   1.996   5.018  1.3117 -1.3532  0.8535
 6474TIP3    H240914   1.212   1.881   4.924  0.0313 -0.1739 -0.2884
 6475TIP3   OH240915   4.500   2.258   0.442  0.0747 -0.6624  0.2831
 6475TIP3    H140916   4.468   2.261   0.352  1.1803  0.2102 -0.1088
 6475TIP3    H240917   4.431   2.213   0.491 -0.6932 -0.8458 -0.9309
 6476TIP3   OH240918   5.822   5.620  13.039  0.1521 -0.3666 -0.4795
 6476TIP3    H140919   5.890   5.591  13.100 -2.0265 -1.4512  1.6046
 6476TIP3    H240920   5.799   5.542  12.989 -0.7971 -0.5051  0.1420
 6477TIP3   OH240921   2.380   0.932   6.082  0.3876 -0.7160  1.1259
 6477TIP3    H140922   2.425   0.847   6.081  2.7782  0.4577  0.8163
 6477TIP3    H240923   2.420   0.978   6.156 -0.4282  0.3774  0.8992
 6478TIP3   OH240924   1.320   0.866   2.722 -0.2182  0.4671  0.0134
 6478TIP3    H140925   1.386   0.806   2.757 -1.2127  0.9237  3.0031
 6478TIP3    H240926   1.240   0.814   2.720 -0.3526  0.6980 -0.8936
 6479TIP3   OH240927   6.715   0.284  12.178 -0.3959 -0.3271  0.4613
 6479TIP3    H140928   6.774   0.351  12.144 -1.4690  0.2947 -0.2384
 6479TIP3    H240929   6.735   0.206  12.127  0.6043 -0.4562  1.0248
 6480TIP3   OH240930   3.678   5.371  16.092 -0.0520  0.4684 -0.0306
 6480TIP3    H140931   3.698   5.445  16.149  0.8761  1.2802 -1.3574
 6480TIP3    H240932   3.725   5.390  16.011  2.3293 -2.7934  0.3756
 6481TIP3   OH240933   0.187   1.952  13.875  0.6033 -0.4581  0.3726
 6481TIP3    H140934   0.218   1.886  13.936  1.1980 -1.2814 -0.7669
 6481TIP3    H240935   0.120   1.907  13.822  1.8990 -0.6069 -1.2461
 6482TIP3   OH240936   3.659   2.022   3.142  0.2891  0.1297 -0.2348
 6482TIP3    H140937   3.581   2.005   3.194  1.0261 -0.1496  0.8260
 6482TIP3    H240938   3.731   1.988   3.195  1.1052  0.0606 -1.3357
 6483TIP3   OH240939   2.078   6.789  11.437 -0.3525  0.0758 -0.0547
 6483TIP3    H140940   2.113   6.878  11.443  0.2757 -0.0291 -1.6946
 6483TIP3    H240941   2.124   6.741  11.505 -0.3706  0.9086  0.5603
 6484TIP3   OH240942   3.874   4.404   7.004  0.5032 -0.0254  0.0900
 6484TIP3    H140943   3.821   4.334   6.966  0.4431 -0.1910  0.4717
 6484TIP3    H240944   3.914   4.448   6.929  0.1978 -0.1977 -0.1734
 6485TIP3   OH240945   2.969   1.519   2.870  0.1222 -0.3224 -0.1781
 6485TIP3    H140946   3.050   1.490   2.912  0.5140  1.6634  0.5237
 6485TIP3    H240947   2.995   1.545   2.782  0.2779  0.4282  0.0868
 6486TIP3   OH240948   1.521   0.559   2.404  0.2529 -0.0848  0.3875
 6486TIP3    H140949   1.589   0.517   2.351  0.6418 -0.6087  1.2719
 6486TIP3    H240950   1.531   0.520   2.491 -0.8370  0.2227  0.6717
 6487TIP3   OH240951   4.116   5.887   5.202 -0.4027  0.1339  0.0601
 6487TIP3    H140952   4.026   5.878   5.172 -0.5960 -0.0138  0.6572
 6487TIP3    H240953   4.123   5.977   5.232  0.1124  0.6163 -1.4192
 6488TIP3   OH240954   0.817   6.017  14.307 -0.1165  0.4233  0.1939
 6488TIP3    H140955   0.810   5.981  14.395 -0.5301 -1.9836 -0.7272
 6488TIP3    H240956   0.802   5.941  14.250  4.0943  0.9701 -1.9991
 6489TIP3   OH240957   5.692   0.353   1.744 -0.0040  0.5154 -0.0451
 6489TIP3    H140958   5.762   0.417   1.730  0.1444 -0.0355 -2.2341
 6489TIP3    H240959   5.627   0.374   1.677 -0.0809 -1.4209 -0.6373
 6490TIP3   OH240960   4.907   5.213  13.359 -0.2024 -0.2230  0.6801
 6490TIP3    H140961   4.909   5.294  13.309  0.1978 -0.9486 -0.5226
 6490TIP3    H240962   4.878   5.147  13.296  3.0442 -1.7181  0.5732
 6491TIP3   OH240963   6.694   0.780  16.240 -0.2836  0.0074  0.2425
 6491TIP3    H140964   6.723   0.756  16.328 -1.9638 -2.5084  0.2105
 6491TIP3    H240965   6.681   0.875  16.244  1.6789  0.2681  2.0456
 6492TIP3   OH240966   5.702   5.387  12.861 -1.0745 -0.2989  0.1996
 6492TIP3    H140967   5.656   5.471  12.857  0.2017  0.4425  0.1871
 6492TIP3    H240968   5.734   5.373  12.772 -0.9295 -0.5764  0.2943
 6493TIP3   OH240969   4.827   3.258   4.635  0.1701 -0.5480 -0.6586
 6493TIP3    H140970   4.884   3.326   4.671  1.4643 -2.5598  1.3968
 6493TIP3    H240971   4.740   3.279   4.670  0.2647  0.7217 -1.1232
 6494TIP3   OH240972   0.948   5.618   0.002 -0.6044  0.3832  0.1580
 6494TIP3    H140973   0.904   5.677   0.064 -1.0076 -1.3600  1.5817
 6494TIP3    H240974   0.940   5.531   0.041  0.7544 -0.5229 -1.4661
 6495TIP3   OH240975   5.572   2.406   1.795 -0.1203  0.4473  0.0615
 6495TIP3    H140976   5.600   2.421   1.885  1.4154  0.9236 -0.4606
 6495TIP3    H240977   5.572   2.493   1.755 -0.2500  0.1761 -0.5402
 6496TIP3   OH240978   6.192   5.601   4.928  0.3098 -0.4380 -0.2133
 6496TIP3    H140979   6.237   5.517   4.939 -0.9590 -1.1782 -0.4858
 6496TIP3    H240980   6.192   5.616   4.834  1.4864  0.4341 -0.0992
 6497TIP3   OH240981   3.148   4.182  16.790 -0.5152  0.0217 -0.2511
 6497TIP3    H140982   3.183   4.206  16.875 -0.1220 -3.1917  0.6440
 6497TIP3    H240983   3.137   4.265  16.743  0.6376  1.7634  2.3643
 6498TIP3   OH240984   2.255   5.333   1.630  0.2024 -0.1250 -0.0787
 6498TIP3    H140985   2.237   5.270   1.700 -1.9586 -0.0381 -0.4972
 6498TIP3    H240986   2.325   5.388   1.665  0.3820 -1.1770  1.3070
 6499TIP3   OH240987   1.491   3.400  15.723  0.2130  0.1957 -0.0435
 6499TIP3    H140988   1.530   3.445  15.798  0.4441  1.7102 -1.0246
 6499TIP3    H240989   1.565   3.361  15.677 -0.0845 -2.4734  1.5010
 6500TIP3   OH240990   0.701   1.707  15.547 -0.1783 -0.4771  0.2690
 6500TIP3    H140991   0.765   1.699  15.476 -0.6849 -2.6616 -0.0205
 6500TIP3    H240992   0.754   1.723  15.625  0.4406  1.1447 -0.4538
 6501TIP3   OH240993   3.199   6.310  17.347  0.1736 -0.8450 -0.6281
 6501TIP3    H140994   3.168   6.360  17.423 -0.9554 -1.5717 -0.5863
 6501TIP3    H240995   3.285   6.347  17.327  0.3272 -0.3885  0.7736
 6502TIP3   OH240996   2.745   2.941  12.299 -0.0106  0.5845 -0.8946
 6502TIP3    H140997   2.678   2.989  12.348  1.7383  1.4793  0.7488
 6502TIP3    H240998   2.715   2.850  12.301 -1.2396  0.9760 -0.3166
 6503TIP3   OH240999   1.009   3.967  13.619  0.0908 -0.1223 -0.6187
 6503TIP3    H141000   1.044   4.054  13.601 -0.1519  0.0139 -0.4333
 6503TIP3    H241001   1.077   3.907  13.587 -0.1172  0.1196 -1.5477
 6504TIP3   OH241002   0.735   6.112  14.597 -0.1865 -0.5314 -0.4184
 6504TIP3    H141003   0.675   6.110  14.672  1.1182  1.5118  0.7669
 6504TIP3    H241004   0.796   6.039  14.614 -1.2336 -1.5108 -0.7278
 6505TIP3   OH241005   4.690   0.171  10.964 -0.4204  0.6296 -0.1874
 6505TIP3    H141006   4.728   0.259  10.963 -0.4497  0.6825  1.2997
 6505TIP3    H241007   4.597   0.185  10.981 -0.6584  0.3693 -1.2541
 6506TIP3   OH241008   1.427   1.868   3.248 -0.0910  0.3415  0.0788
 6506TIP3    H141009   1.333   1.852   3.246 -0.1056  0.4935 -1.2102
 6506TIP3    H241010   1.444   1.907   3.334 -1.5413  2.4084 -0.5137
 6507TIP3   OH241011   1.209   5.372   3.851 -0.3328  0.0808 -0.3407
 6507TIP3    H141012   1.125   5.418   3.840  1.7284  4.7448  0.8514
 6507TIP3    H241013   1.235   5.350   3.762 -0.5493  3.5264 -1.4303
 6508TIP3   OH241014   2.691   3.596  11.950  0.2716  0.0037  0.0455
 6508TIP3    H141015   2.665   3.530  12.014 -1.2545  0.4588 -0.0625
 6508TIP3    H241016   2.709   3.547  11.870 -0.7492 -0.3200 -0.0042
 6509TIP3   OH241017   1.129   1.467   2.572 -0.1457  0.1549  0.3144
 6509TIP3    H141018   1.105   1.392   2.626  0.7253 -0.9258 -0.7409
 6509TIP3    H241019   1.077   1.457   2.492  1.3482 -0.4298 -0.6348
 6510TIP3   OH241020   0.608   0.858   4.025  0.4088 -0.0455  0.2142
 6510TIP3    H141021   0.577   0.900   3.945  0.2586  0.9313  0.7682
 6510TIP3    H241022   0.695   0.895   4.040 -0.2806  1.1697  1.4585
 6511TIP3   OH241023   0.758   2.639  15.666  0.2493 -0.4078 -0.3911
 6511TIP3    H141024   0.721   2.727  15.662 -2.7394 -1.4312  1.3403
 6511TIP3    H241025   0.802   2.635  15.751 -2.1217 -1.3248  0.8939
 6512TIP3   OH241026   6.454   1.621   5.017  0.1891  0.1263  0.0847
 6512TIP3    H141027   6.380   1.676   4.993  0.5593  0.2810 -0.7452
 6512TIP3    H241028   6.456   1.552   4.952 -0.8851 -1.5100  1.7020
 6513TIP3   OH241029   5.421   5.770   4.950 -0.2533 -0.1444  0.3193
 6513TIP3    H141030   5.427   5.675   4.939 -0.1246 -0.2012  0.8249
 6513TIP3    H241031   5.335   5.783   4.991  0.5457 -0.2471  2.1440
 6514TIP3   OH241032   3.435   2.733   0.399 -0.2603 -0.0315 -0.4840
 6514TIP3    H141033   3.413   2.754   0.490 -2.1004 -1.9674 -0.4004
 6514TIP3    H241034   3.420   2.815   0.351  0.5149  0.9471  0.8891
 6515TIP3   OH241035   6.597   2.744  14.786 -0.0421 -0.2940 -0.6250
 6515TIP3    H141036   6.534   2.689  14.740 -2.1234  2.7927 -1.7476
 6515TIP3    H241037   6.655   2.777  14.716 -1.4151  2.1069 -0.7355
 6516TIP3   OH241038   4.037   6.417   5.058  0.0917 -0.2155  0.3793
 6516TIP3    H141039   3.950   6.441   5.026  0.2597  2.6992  1.8342
 6516TIP3    H241040   4.097   6.473   5.009  1.0470 -1.0814  0.5100
 6517TIP3   OH241041   6.404   1.483  16.334 -0.1748  0.8340 -0.2896
 6517TIP3    H141042   6.326   1.535  16.319 -0.6448  0.1751 -0.1538
 6517TIP3    H241043   6.443   1.471  16.247 -1.2036 -0.3487 -0.6184
 6518TIP3   OH241044   0.199   0.412  16.565  0.0106 -0.0392  0.2105
 6518TIP3    H141045   0.149   0.359  16.504  0.3808  0.4569 -0.5485
 6518TIP3    H241046   0.218   0.354  16.639 -2.7979  0.1238  1.1626
 6519TIP3   OH241047   4.965   1.174   6.179  0.2919 -0.1281 -0.0318
 6519TIP3    H141048   4.978   1.260   6.219  0.0859  0.3329 -0.9205
 6519TIP3    H241049   4.939   1.117   6.251  3.1864 -0.1372  1.1093
 6520TIP3   OH241050   5.594   0.896  16.954 -0.2869  0.0580  0.5590
 6520TIP3    H141051   5.518   0.839  16.943 -0.7794  0.9713 -1.1123
 6520TIP3    H241052   5.648   0.879  16.877 -0.8976  2.4555 -0.4934
 6521TIP3   OH241053   3.797   2.317  14.936 -0.0323  0.2147 -0.2758
 6521TIP3    H141054   3.872   2.349  14.884 -1.4122  2.7487 -0.8774
 6521TIP3    H241055   3.766   2.395  14.982 -1.1176 -1.2240  1.5383
 6522TIP3   OH241056   4.369   1.963   4.702  0.5990  0.6526  0.2095
 6522TIP3    H141057   4.276   1.984   4.709  0.0699 -0.8773 -1.6309
 6522TIP3    H241058   4.412   2.027   4.759 -1.4650  2.1829  0.1515
 6523TIP3   OH241059   4.091   4.976   3.215  0.0271 -0.7563  0.3749
 6523TIP3    H141060   4.142   5.046   3.174  0.7291 -1.6405 -0.3019
 6523TIP3    H241061   4.135   4.959   3.298 -0.4963 -0.0060  0.8191
 6524TIP3   OH241062   0.537   3.656  11.216  0.3646  0.3284 -0.1392
 6524TIP3    H141063   0.508   3.569  11.188 -2.2320  0.7001  1.1094
 6524TIP3    H241064   0.548   3.648  11.311  0.3828  1.2945 -0.0576
 6525TIP3   OH241065   0.116   4.041  13.848  0.1948 -0.6376  0.3603
 6525TIP3    H141066   0.148   4.034  13.758  0.5940 -0.8893  0.5184
 6525TIP3    H241067   0.195   4.052  13.901  0.0108 -1.0861  0.7369
 6526TIP3   OH241068   0.691   1.190   1.464 -0.3543 -0.3890 -0.2159
 6526TIP3    H141069   0.694   1.139   1.544  2.7920  0.6479  0.4500
 6526TIP3    H241070   0.659   1.129   1.397 -1.6904 -1.6512  1.4907
 6527TIP3   OH241071   3.214   0.682   1.383  0.8122  1.1714  0.4369
 6527TIP3    H141072   3.123   0.711   1.389 -0.1234 -1.0325 -1.6849
 6527TIP3    H241073   3.248   0.724   1.304  1.3357  1.1431  0.6413
 6528TIP3   OH241074   1.211   4.511   5.436 -0.1184  0.2018 -0.0978
 6528TIP3    H141075   1.146   4.558   5.488  1.2711 -0.1047  2.0912
 6528TIP3    H241076   1.286   4.572   5.432  1.0296 -1.0511  1.2282
 6529TIP3   OH241077   0.979   0.138  14.092 -0.4251  0.5936 -0.4983
 6529TIP3    H141078   0.933   0.080  14.031  0.2954 -1.4329  0.7919
 6529TIP3    H241079   1.069   0.105  14.093  0.2057  2.2414 -0.2725
 6530TIP3   OH241080   6.110   3.262   0.716 -0.6277 -0.1955 -0.7269
 6530TIP3    H141081   6.061   3.303   0.787  2.5265  0.4805  1.2369
 6530TIP3    H241082   6.086   3.170   0.721 -0.3028 -0.2151  1.4280
 6531TIP3   OH241083   5.213   5.676  13.849 -0.2295 -0.1292  0.2531
 6531TIP3    H141084   5.225   5.727  13.929  1.3440 -1.2724  0.7760
 6531TIP3    H241085   5.134   5.713  13.810 -0.8248  0.7153  2.1248
 6532TIP3   OH241086   1.150   0.347   2.709 -0.1995  0.3858  0.4063
 6532TIP3    H141087   1.099   0.402   2.649 -1.0159  0.6484  1.3126
 6532TIP3    H241088   1.150   0.261   2.668 -3.3244 -0.2273  1.3947
 6533TIP3   OH241089   4.387   0.057  11.453  0.0432 -0.4438  0.4972
 6533TIP3    H141090   4.302   0.058  11.410 -0.3110 -1.4841  1.1385
 6533TIP3    H241091   4.405   0.149  11.473 -0.6769 -0.1604 -0.1206
 6534TIP3   OH241092   6.787   5.453  11.393 -0.0021  0.1425 -0.0804
 6534TIP3    H141093   6.778   5.444  11.299  0.2238  0.5859 -0.1483
 6534TIP3    H241094   6.865   5.507  11.405  0.5083 -0.6642  0.3855
 6535TIP3   OH241095   5.142   5.162  12.681 -0.0121 -0.6813  0.0827
 6535TIP3    H141096   5.125   5.070  12.704  0.7570 -1.1736 -1.1859
 6535TIP3    H241097   5.126   5.166  12.587  1.7813  0.0380 -0.2156
 6536TIP3   OH241098   6.251   6.117  11.185 -0.5834 -0.3285 -0.4818
 6536TIP3    H141099   6.214   6.203  11.204  1.5570  1.1061 -2.1995
 6536TIP3    H241100   6.228   6.101  11.093 -1.1837 -1.7480 -0.1086
 6537TIP3   OH241101   1.698   6.662  10.935  0.1879 -0.2913 -0.6909
 6537TIP3    H141102   1.751   6.704  11.002  0.0669 -0.9727 -0.1581
 6537TIP3    H241103   1.761   6.642  10.865  0.6184 -0.9711 -0.1226
 6538TIP3   OH241104   5.047   5.533   2.046 -0.5315 -0.0847  0.1780
 6538TIP3    H141105   4.953   5.521   2.030 -0.2459 -0.7724 -1.2343
 6538TIP3    H241106   5.085   5.533   1.958  0.7107  0.9775  0.7003
 6539TIP3   OH241107   6.636   6.796  13.093  0.2876 -0.4326 -0.8417
 6539TIP3    H141108   6.693   6.859  13.137  1.7156 -1.8141 -0.6587
 6539TIP3    H241109   6.565   6.781  13.156  0.6199  0.0031 -0.3513
 6540TIP3   OH241110   1.755   2.756  15.546  0.1712 -0.4170  0.3500
 6540TIP3    H141111   1.660   2.751  15.557  0.0428  0.0878 -0.4273
 6540TIP3    H241112   1.767   2.781  15.454  0.9939  1.5112  0.9135
 6541TIP3   OH241113   2.440   4.204   3.646  0.4739  0.1312 -0.5772
 6541TIP3    H141114   2.434   4.130   3.584  2.5427  1.1027 -2.0645
 6541TIP3    H241115   2.534   4.223   3.650  0.4405  0.1043  2.9860
 6542TIP3   OH241116   4.301   0.897  12.570  0.4768  0.1278  0.1347
 6542TIP3    H141117   4.334   0.872  12.484  1.5359  1.4238  0.1351
 6542TIP3    H241118   4.227   0.955  12.551  2.8521  3.3596 -0.0745
 6543TIP3   OH241119   0.246   4.383   1.863 -0.0605  0.3253 -0.6155
 6543TIP3    H141120   0.194   4.353   1.788  0.8283  0.6973 -1.3986
 6543TIP3    H241121   0.334   4.394   1.828  0.4361  0.2307  0.5650
 6544TIP3   OH241122   3.238   4.702  16.407  0.4355  0.5322 -0.2689
 6544TIP3    H141123   3.324   4.685  16.368  0.5147  1.3276 -0.4550
 6544TIP3    H241124   3.256   4.757  16.483  0.3396 -1.5095  1.3123
 6545TIP3   OH241125   2.327   2.859   1.293 -0.8369 -0.1669  0.4564
 6545TIP3    H141126   2.241   2.818   1.291 -0.9252  0.0362 -1.7393
 6545TIP3    H241127   2.323   2.928   1.227  0.7915  0.3446  0.8331
 6546TIP3   OH241128   4.569   4.687  11.435  0.2703 -0.4881  0.7810
 6546TIP3    H141129   4.517   4.735  11.370  1.2659 -1.4846 -0.8220
 6546TIP3    H241130   4.509   4.674  11.509 -1.1495  0.0513 -0.2270
 6547TIP3   OH241131   2.418   3.076   5.555 -0.1864  0.3598 -0.1005
 6547TIP3    H141132   2.449   3.165   5.541  0.0395  0.7217  2.2873
 6547TIP3    H241133   2.430   3.060   5.649 -0.1285 -2.2263 -0.4548
 6548TIP3   OH241134   1.107   6.488   1.751 -0.1396 -0.1089  0.5638
 6548TIP3    H141135   1.071   6.403   1.776 -0.0422  0.0954  1.4371
 6548TIP3    H241136   1.190   6.467   1.709 -0.5139 -0.4906  0.0044
 6549TIP3   OH241137   5.355   0.799   4.979 -0.2247 -0.1806 -0.0638
 6549TIP3    H141138   5.447   0.771   4.978 -0.2082 -0.3286  1.6253
 6549TIP3    H241139   5.360   0.895   4.984 -0.1252 -0.2134  0.6450
 6550TIP3   OH241140   2.323   1.208  12.236  0.5313  0.0860  0.8383
 6550TIP3    H141141   2.344   1.178  12.148  1.7621  0.2800  1.0467
 6550TIP3    H241142   2.227   1.212  12.238  0.1700 -4.0536  0.8676
 6551TIP3   OH241143   3.333   2.816   1.931 -0.4461  0.2232 -0.4638
 6551TIP3    H141144   3.361   2.748   1.870  0.2435 -1.5890  1.7341
 6551TIP3    H241145   3.247   2.788   1.962 -1.2117  1.6070 -1.2262
 6552TIP3   OH241146   2.991   6.049   2.312  0.9748 -0.3412 -0.3374
 6552TIP3    H141147   2.997   6.141   2.286 -1.4624 -0.4509 -1.5503
 6552TIP3    H241148   3.022   6.048   2.403  3.1907  1.2483 -0.9728
 6553TIP3   OH241149   5.793   0.545   0.764 -0.3007 -0.0648 -0.0214
 6553TIP3    H141150   5.784   0.582   0.852 -1.4487 -0.4642  0.0371
 6553TIP3    H241151   5.879   0.576   0.734 -0.4092  1.0518  0.7711
 6554TIP3   OH241152   2.110   1.126  17.185 -0.0481 -0.8650 -0.4324
 6554TIP3    H141153   2.122   1.031  17.184  3.3129 -0.5711 -0.1210
 6554TIP3    H241154   2.139   1.155  17.099  0.6047 -0.0160  0.0578
 6555TIP3   OH241155   3.775   2.473   2.944  0.7027  0.0017 -0.0652
 6555TIP3    H141156   3.721   2.402   2.908 -0.9254  1.5392 -0.7965
 6555TIP3    H241157   3.809   2.519   2.868  2.3573 -0.3758  0.3982
 6556TIP3   OH241158   0.877   5.106   3.034 -0.3686 -0.3363  0.0499
 6556TIP3    H141159   0.843   5.121   2.946 -1.8730 -3.4765 -0.0560
 6556TIP3    H241160   0.877   5.192   3.075  1.9069  1.5981 -3.4079
 6557TIP3   OH241161   1.275   3.210   2.366  0.2400  0.1776 -0.1919
 6557TIP3    H141162   1.326   3.211   2.285  0.0079 -0.2915 -0.3528
 6557TIP3    H241163   1.267   3.301   2.391  0.8732  0.2812 -0.3450
 6558TIP3   OH241164   1.213   3.710  12.742 -0.1378 -0.3845  0.0407
 6558TIP3    H141165   1.135   3.706  12.797 -0.5989 -0.2254 -0.5934
 6558TIP3    H241166   1.280   3.749  12.799 -0.6839  0.0500  0.4030
 6559TIP3   OH241167   6.170   1.598   5.336 -0.0432  0.0963  0.3662
 6559TIP3    H141168   6.206   1.681   5.304  1.1865 -0.8816 -0.9183
 6559TIP3    H241169   6.227   1.531   5.298 -2.3704 -1.4785 -0.5880
 6560TIP3   OH241170   1.795   5.905   4.099  0.9018 -0.2168 -0.2682
 6560TIP3    H141171   1.883   5.931   4.072  0.7626 -0.3102 -0.8187
 6560TIP3    H241172   1.798   5.809   4.102  1.2804 -0.1799  1.3041
 6561TIP3   OH241173   1.929   2.669   3.477  0.1191  0.2050 -0.2030
 6561TIP3    H141174   1.844   2.661   3.435 -0.1255 -3.3164  0.6756
 6561TIP3    H241175   1.909   2.685   3.569  0.4274  0.0943 -0.1150
 6562TIP3   OH241176   0.419   4.851  12.470  0.0851  0.0977 -0.6349
 6562TIP3    H141177   0.378   4.823  12.388 -0.7915  1.2214 -0.6021
 6562TIP3    H241178   0.377   4.796  12.537 -1.2007  1.0372 -0.6362
 6563TIP3   OH241179   6.309   6.169   4.032  0.1608  0.1459 -0.0238
 6563TIP3    H141180   6.277   6.191   3.944 -3.4123 -1.2752  0.7422
 6563TIP3    H241181   6.400   6.199   4.032 -0.3584  2.3622 -3.3919
 6564TIP3   OH241182   5.464   4.544   0.288 -0.2180  0.3913 -0.0129
 6564TIP3    H141183   5.553   4.541   0.321  0.1517  1.6593 -0.8609
 6564TIP3    H241184   5.410   4.564   0.365 -0.0315 -2.0355  0.8607
 6565TIP3   OH241185   5.431   5.195   4.032  0.1739 -0.3816  0.0724
 6565TIP3    H141186   5.350   5.246   4.020  0.1629 -0.5972 -0.8278
 6565TIP3    H241187   5.494   5.259   4.065  0.0763  0.1779 -0.7726
 6566TIP3   OH241188   3.519   5.386   5.874  0.5188 -0.2388 -0.5621
 6566TIP3    H141189   3.511   5.300   5.916 -0.7492  0.2977  0.3651
 6566TIP3    H241190   3.605   5.418   5.902  0.0895 -0.2942  0.9109
 6567TIP3   OH241191   4.113   2.332   5.554 -0.5489  0.1028  0.2299
 6567TIP3    H141192   4.197   2.333   5.508  0.8213  1.4531  2.5640
 6567TIP3    H241193   4.102   2.241   5.582 -0.6771 -0.4135 -1.3851
 6568TIP3   OH241194   6.516   4.710   3.266 -0.3289 -0.5641 -0.5678
 6568TIP3    H141195   6.483   4.799   3.275 -1.1027 -1.0274  1.9011
 6568TIP3    H241196   6.443   4.662   3.227 -0.3842 -0.3933 -0.6781
 6569TIP3   OH241197   0.483   4.216   0.518  0.0653 -0.3924 -0.1734
 6569TIP3    H141198   0.470   4.148   0.584 -0.7610 -1.3318 -1.2810
 6569TIP3    H241199   0.477   4.298   0.567 -1.2906 -1.0551  0.8078
 6570TIP3   OH241200   4.074   2.417   3.040  0.4619 -0.2112 -0.0374
 6570TIP3    H141201   3.990   2.392   3.002 -0.4847  2.4119  0.1371
 6570TIP3    H241202   4.137   2.406   2.968 -0.4713  0.0767 -0.9298
 6571TIP3   OH241203   3.101   1.384   4.718 -0.1088  0.7799  0.3179
 6571TIP3    H141204   3.173   1.445   4.734 -0.6213  1.4755  0.0468
 6571TIP3    H241205   3.125   1.341   4.636 -0.0501  1.0876  0.1693
 6572TIP3   OH241206   2.163   0.848   5.918  0.4928  0.0697 -0.4015
 6572TIP3    H141207   2.199   0.777   5.864  1.1016 -0.0911  0.2068
 6572TIP3    H241208   2.239   0.885   5.963  0.0625  0.5500 -0.0565
 6573TIP3   OH241209   5.288   2.887  13.554 -0.7073 -0.1379  0.1472
 6573TIP3    H141210   5.327   2.812  13.509 -0.5989  0.1102 -0.1771
 6573TIP3    H241211   5.362   2.944  13.574 -0.8786  0.2872 -0.3834
 6574TIP3   OH241212   1.314   4.364   5.657  0.1064  0.0026  0.5285
 6574TIP3    H141213   1.305   4.392   5.566  0.0608 -4.2983 -1.0238
 6574TIP3    H241214   1.238   4.401   5.701 -1.0435  0.4955 -1.6967
 6575TIP3   OH241215   4.030   2.166   3.394 -1.2374  0.1968 -0.0023
 6575TIP3    H141216   4.027   2.261   3.396 -0.3547  0.2687 -1.0174
 6575TIP3    H241217   4.008   2.139   3.484 -1.6641  1.3392  0.2483
 6576TIP3   OH241218   1.137   3.820   6.589 -0.0038 -0.5136  0.4384
 6576TIP3    H141219   1.060   3.826   6.532  0.7529 -0.3121 -0.5857
 6576TIP3    H241220   1.203   3.774   6.537  1.4704  1.6495  0.2630
 6577TIP3   OH241221   4.989   0.490  14.709 -0.3790  0.0527 -0.0487
 6577TIP3    H141222   4.901   0.455  14.700  0.2446 -1.5402 -0.2342
 6577TIP3    H241223   5.047   0.418  14.684  1.0287  0.5326  1.6065
 6578TIP3   OH241224   2.067   1.926  12.687  0.0514 -0.1303 -0.3750
 6578TIP3    H141225   2.126   1.956  12.618 -0.8604  1.3684 -0.5403
 6578TIP3    H241226   2.056   2.003  12.743  0.4117 -1.1869  1.2016
 6579TIP3   OH241227   5.803   1.096   1.422  0.4953 -0.1127  0.3794
 6579TIP3    H141228   5.856   1.098   1.501  0.1282  0.7870  0.6188
 6579TIP3    H241229   5.854   1.045   1.359  2.1353  1.5714  0.2551
 6580TIP3   OH241230   1.682   1.676   5.536  0.1306 -0.1946 -0.0369
 6580TIP3    H141231   1.709   1.595   5.581  0.2105  1.2051  2.6015
 6580TIP3    H241232   1.587   1.667   5.527  0.1154 -0.5212  0.3803
 6581TIP3   OH241233   3.623   3.272   1.628 -0.2425  0.5725 -0.5887
 6581TIP3    H141234   3.606   3.330   1.702 -0.1262  0.1741 -0.2475
 6581TIP3    H241235   3.716   3.285   1.609 -0.5713  1.7043 -1.5583
 6582TIP3   OH241236   6.529   5.168   4.651  0.8646  0.3460  0.0569
 6582TIP3    H141237   6.523   5.074   4.672  1.5128  0.1134 -0.7148
 6582TIP3    H241238   6.441   5.202   4.667  1.0386 -0.0350  1.9784
 6583TIP3   OH241239   0.937   6.353  11.591  0.2762 -0.0745 -0.0183
 6583TIP3    H141240   0.842   6.355  11.580  0.1764 -1.0146  0.5680
 6583TIP3    H241241   0.971   6.333  11.504 -0.0371  0.5407 -0.2896
 6584TIP3   OH241242   6.251   3.798   4.988  0.4620  0.1747 -0.5364
 6584TIP3    H141243   6.191   3.840   4.926  1.4545 -1.1705 -2.5422
 6584TIP3    H241244   6.217   3.708   4.997  3.4057 -1.5345 -3.8575
 6585TIP3   OH241245   5.109   1.901  14.362 -0.1328  0.2666 -0.6602
 6585TIP3    H141246   5.189   1.895  14.310 -0.4619  2.1928 -1.4732
 6585TIP3    H241247   5.073   1.813  14.362  2.8694 -1.1094  1.2324
 6586TIP3   OH241248   1.867   3.968   0.862  0.0627 -0.2246 -0.1841
 6586TIP3    H141249   1.785   3.964   0.813 -1.8400  1.3135  2.6064
 6586TIP3    H241250   1.861   3.896   0.926  1.1383 -0.4099 -0.2639
 6587TIP3   OH241251   0.584   4.106   6.145  0.9568 -0.3090 -0.0855
 6587TIP3    H141252   0.554   4.087   6.234 -2.2608  1.2280 -0.7027
 6587TIP3    H241253   0.544   4.038   6.091 -1.2367  1.4688 -0.8624
 6588TIP3   OH241254   0.664   3.602   5.632  0.4938  0.4632 -0.3242
 6588TIP3    H141255   0.608   3.598   5.555 -0.5687  2.7580  0.2346
 6588TIP3    H241256   0.637   3.528   5.686 -1.5526  1.0945 -0.4086
 6589TIP3   OH241257   4.906   5.895   1.828  0.0565 -0.2457  0.5712
 6589TIP3    H141258   4.898   5.821   1.769  1.8654  0.4507 -0.6516
 6589TIP3    H241259   4.869   5.969   1.780 -0.2740 -0.0349  1.1332
 6590TIP3   OH241260   2.225   2.158  14.217  0.0924  0.0660  0.0193
 6590TIP3    H141261   2.309   2.117  14.239  1.3487  1.8437 -1.1520
 6590TIP3    H241262   2.187   2.183  14.301 -0.7294 -3.2896  0.7919
 6591TIP3   OH241263   0.415   4.448   3.022  0.0740  0.1221  0.2186
 6591TIP3    H141264   0.433   4.473   2.931 -0.7988  0.8876  0.2436
 6591TIP3    H241265   0.498   4.459   3.067  0.6735 -0.8495 -0.6089
 6592TIP3   OH241266   6.172   1.187  16.741  0.4925 -0.3557  0.3050
 6592TIP3    H141267   6.228   1.134  16.797 -0.7380  0.3897  2.3551
 6592TIP3    H241268   6.232   1.231  16.682  2.0183 -0.0979  1.9716
 6593TIP3   OH241269   3.641   6.462  11.683 -0.2567 -0.1313 -0.6185
 6593TIP3    H141270   3.587   6.384  11.697 -0.5756 -0.1591 -1.8885
 6593TIP3    H241271   3.600   6.530  11.737  0.3184 -0.9353  0.9069
 6594TIP3   OH241272   2.864   2.539  14.391 -0.1530  0.2134  0.2862
 6594TIP3    H141273   2.787   2.484  14.374 -0.7857  0.6571  1.5840
 6594TIP3    H241274   2.913   2.491  14.458  0.7684 -0.1120 -0.6024
 6595TIP3   OH241275   2.135   0.442  17.348 -0.7023 -0.2927 -0.3177
 6595TIP3    H141276   2.118   0.495  17.426 -0.4377  0.8123 -0.9871
 6595TIP3    H241277   2.137   0.352  17.380  2.8201  0.3139  1.5823
 6596TIP3   OH241278   6.074   3.458   1.707  0.4700  0.3079  0.0973
 6596TIP3    H141279   6.022   3.531   1.739 -0.0177  0.1692 -0.3641
 6596TIP3    H241280   6.021   3.380   1.729  1.6238 -0.0415  1.8850
 6597TIP3   OH241281   3.449   4.853  16.779 -0.4170  0.2456 -0.0173
 6597TIP3    H141282   3.542   4.873  16.769 -0.0900 -0.4264  1.3408
 6597TIP3    H241283   3.405   4.904  16.711  0.9375  0.6066 -0.6444
 6598TIP3   OH241284   5.038   0.958  11.234  0.8138  0.2902 -0.0903
 6598TIP3    H141285   4.950   0.923  11.221  0.8780 -0.1916  0.6946
 6598TIP3    H241286   5.091   0.917  11.166  0.6024 -0.0704 -0.0383
 6599TIP3   OH241287   2.066   2.609  17.051  0.4059 -0.3616 -0.1406
 6599TIP3    H141288   1.980   2.647  17.032  1.0874  1.0212 -0.6244
 6599TIP3    H241289   2.065   2.596  17.146 -0.5077 -0.8062 -0.2043
 6600TIP3   OH241290   4.793   1.456   1.883  0.1592  0.0645  0.5077
 6600TIP3    H141291   4.764   1.404   1.807 -2.2699 -0.0252  1.3923
 6600TIP3    H241292   4.884   1.432   1.895 -0.1719 -2.0751 -0.6891
 6601TIP3   OH241293   2.287   5.710  13.652  0.2191  0.1544 -0.5344
 6601TIP3    H141294   2.285   5.719  13.748  0.2836  0.1231 -0.5309
 6601TIP3    H241295   2.379   5.717  13.629  0.4683 -1.9880 -0.3953
 6602TIP3   OH241296   6.589   6.359   1.664 -0.4481 -0.1014  0.6247
 6602TIP3    H141297   6.626   6.375   1.577  1.1953  1.4734  1.5430
 6602TIP3    H241298   6.573   6.447   1.699  2.6408 -0.4609  3.3824
 6603TIP3   OH241299   4.574   0.123   2.210 -0.5219  0.3161  0.1698
 6603TIP3    H141300   4.529   0.042   2.184 -1.3097  0.7171  0.2690
 6603TIP3    H241301   4.560   0.183   2.137  3.9096 -0.9695 -2.1574
 6604TIP3   OH241302   6.163   6.208   5.786 -0.1898 -0.3077  0.1254
 6604TIP3    H141303   6.075   6.189   5.754 -0.4693  2.1408 -0.7843
 6604TIP3    H241304   6.150   6.249   5.872  0.1459 -0.7141  0.3811
 6605TIP3   OH241305   4.917   5.511   3.096  0.3134 -0.1138  0.6614
 6605TIP3    H141306   4.839   5.491   3.044  0.1996  1.1228  0.3300
 6605TIP3    H241307   4.886   5.572   3.162  0.5273 -1.4333  2.0335
 6606TIP3   OH241308   0.824   3.834  11.564  0.2474 -0.6526  1.0843
 6606TIP3    H141309   0.846   3.927  11.573 -1.0848  0.3171 -3.3296
 6606TIP3    H241310   0.896   3.798  11.512 -0.9661 -1.1458 -0.3086
 6607TIP3   OH241311   2.478   5.006   3.930 -0.3205  0.3738 -0.6553
 6607TIP3    H141312   2.482   5.100   3.946  0.2135  0.1940  0.3823
 6607TIP3    H241313   2.444   4.998   3.841 -0.5688  1.5377 -0.6813
 6608TIP3   OH241314   4.869   0.093   0.740 -0.5400  0.4145  0.5106
 6608TIP3    H141315   4.838   0.183   0.747 -1.5498  0.0157  1.4464
 6608TIP3    H241316   4.822   0.046   0.809 -2.5121 -1.5082 -1.9470
 6609TIP3   OH241317   0.258   0.693  12.625  0.0293 -0.0603 -0.2853
 6609TIP3    H141318   0.317   0.683  12.550  2.2491  1.1730  1.1864
 6609TIP3    H241319   0.198   0.763  12.599  0.3144 -0.1258 -1.1755
 6610TIP3   OH241320   2.593   1.069  16.876  0.2242 -0.0345 -0.0679
 6610TIP3    H141321   2.677   1.030  16.899  1.0334  1.5605 -0.1743
 6610TIP3    H241322   2.565   1.023  16.797  1.8074  0.5013 -0.9804
 6611TIP3   OH241323   3.034   6.424   4.942 -0.2640 -0.1242  0.8017
 6611TIP3    H141324   2.984   6.432   5.023  1.4363  2.4501  1.7028
 6611TIP3    H241325   3.123   6.403   4.969  0.3540  0.8385 -0.3371
 6612TIP3   OH241326   3.987   6.223   2.826  0.4257  0.1815  0.0095
 6612TIP3    H141327   3.982   6.169   2.747  0.8044 -0.2289  0.2598
 6612TIP3    H241328   3.897   6.235   2.853  0.3533 -0.6357  0.1551
 6613TIP3   OH241329   3.866   0.253  14.778  0.5661 -0.0269  0.0115
 6613TIP3    H141330   3.860   0.220  14.868 -0.4336  0.9706  0.3332
 6613TIP3    H241331   3.904   0.340  14.787 -0.6811  0.5873 -0.3834
 6614TIP3   OH241332   2.258   1.636   0.879 -0.0239 -0.2950 -0.2157
 6614TIP3    H141333   2.348   1.649   0.909  0.6552 -1.8001 -1.4615
 6614TIP3    H241334   2.204   1.661   0.955  1.3793  1.1777  0.3719
 6615TIP3   OH241335   1.310   4.023  17.049  0.2803  0.8322  0.0977
 6615TIP3    H141336   1.253   4.092  17.015  0.7287  0.9193 -0.4806
 6615TIP3    H241337   1.349   3.983  16.971 -0.9638 -0.9550  0.3249
 6616TIP3   OH241338   0.486   6.326  15.958  0.0062 -0.4085  0.0672
 6616TIP3    H141339   0.520   6.372  15.881  1.3385 -1.0635  0.2310
 6616TIP3    H241340   0.560   6.322  16.019 -1.0675  0.2756  1.4953
 6617TIP3   OH241341   1.545   6.736  11.172 -0.3554  0.4178  0.0287
 6617TIP3    H141342   1.451   6.719  11.175  0.0874 -2.5606 -0.1703
 6617TIP3    H241343   1.566   6.740  11.078 -0.4108  2.3283  0.0565
 6618TIP3   OH241344   5.217   3.002  14.363  0.1631 -0.1469 -0.2495
 6618TIP3    H141345   5.247   2.961  14.282 -0.3176  0.1079 -0.5629
 6618TIP3    H241346   5.134   3.044  14.339 -0.2523 -0.5208  0.5083
 6619TIP3   OH241347   4.766   3.187   1.103 -0.0386 -0.6315  0.5134
 6619TIP3    H141348   4.675   3.199   1.074  0.3374  0.4059 -0.3324
 6619TIP3    H241349   4.772   3.095   1.125 -0.8420 -1.1335 -1.1716
 6620TIP3   OH241350   1.115   6.155   6.270 -0.4701 -0.2607  0.0441
 6620TIP3    H141351   1.203   6.122   6.285  0.1005  0.8820 -0.6771
 6620TIP3    H241352   1.125   6.223   6.204 -1.9942 -0.5623 -0.5472
 6621TIP3   OH241353   0.741   4.653   0.783 -0.0351 -0.3047  0.0981
 6621TIP3    H141354   0.730   4.686   0.694  0.6660 -1.8439 -0.6085
 6621TIP3    H241355   0.777   4.727   0.831  3.7065 -0.5107 -1.9597
 6622TIP3   OH241356   0.352   3.148   2.348 -0.4370 -0.9283  0.3438
 6622TIP3    H141357   0.260   3.154   2.373 -0.9145  1.5440 -1.6305
 6622TIP3    H241358   0.352   3.099   2.266 -0.2779  0.6858 -0.6603
 6623TIP3   OH241359   5.117   4.930  11.635 -0.0028  0.2277  0.1381
 6623TIP3    H141360   5.202   4.906  11.671  0.9213  1.3791 -1.1427
 6623TIP3    H241361   5.138   4.976  11.553 -1.9130 -0.9408 -1.0946
 6624TIP3   OH241362   1.868   5.509   3.156  0.6810 -0.4953  0.2305
 6624TIP3    H141363   1.819   5.589   3.174 -1.0950 -1.8136  1.6342
 6624TIP3    H241364   1.867   5.462   3.240  2.2983 -1.6758 -0.3764
 6625TIP3   OH241365   3.547   6.165   4.441 -0.2753 -0.6825 -0.0381
 6625TIP3    H141366   3.566   6.200   4.529 -0.0835  0.3121 -0.4630
 6625TIP3    H241367   3.511   6.239   4.393 -1.3021 -1.4815 -0.5184
 6626TIP3   OH241368   5.819   5.258  17.185 -0.1970 -0.4485 -0.5779
 6626TIP3    H141369   5.884   5.217  17.242  1.0549 -0.2455 -1.7796
 6626TIP3    H241370   5.792   5.189  17.125  0.6025 -0.0038 -1.4865
 6627TIP3   OH241371   5.152   5.353   2.266  0.3807 -0.3274  0.2302
 6627TIP3    H141372   5.120   5.404   2.192 -2.2511 -2.6949 -0.4197
 6627TIP3    H241373   5.104   5.387   2.341 -1.7426 -2.0521 -0.2830
 6628TIP3   OH241374   2.224   4.471   3.541  0.4958 -0.5094 -0.3852
 6628TIP3    H141375   2.219   4.427   3.457 -0.4130  1.1723 -1.2644
 6628TIP3    H241376   2.237   4.400   3.605 -0.2844 -1.9488 -1.7648
 6629TIP3   OH241377   2.143   5.316   5.028  0.0564  0.2843 -0.1159
 6629TIP3    H141378   2.196   5.392   5.005  1.0425  0.3149  2.0165
 6629TIP3    H241379   2.203   5.258   5.074 -1.4416 -0.2928  1.2101
 6630TIP3   OH241380   4.551   0.331   4.267  0.3928  0.4797 -0.0659
 6630TIP3    H141381   4.543   0.321   4.362  0.3539 -0.0147 -0.1168
 6630TIP3    H241382   4.645   0.329   4.250  0.4048  0.6924 -0.0253
 6631TIP3   OH241383   4.885   0.684  13.966  0.5286  0.0919 -0.2851
 6631TIP3    H141384   4.910   0.640  14.047 -0.7893  0.4199  0.3224
 6631TIP3    H241385   4.804   0.730  13.987  0.7131  1.0408 -1.5096
 6632TIP3   OH241386   4.347   6.246  13.317  0.0225  0.2247 -0.5418
 6632TIP3    H141387   4.332   6.338  13.297 -2.5497 -0.0956 -0.3897
 6632TIP3    H241388   4.317   6.199  13.239  1.9685 -0.4891 -0.9030
 6633TIP3   OH241389   3.417   4.223  14.076 -0.1768 -0.1048  0.0953
 6633TIP3    H141390   3.464   4.201  13.995 -0.6546 -0.0623 -0.1947
 6633TIP3    H241391   3.427   4.145  14.131 -0.2618 -0.3226 -0.1941
 6634TIP3   OH241392   2.397   4.988  12.644  0.1894 -0.2124  0.1654
 6634TIP3    H141393   2.305   4.971  12.661 -0.1181  0.0629 -1.1597
 6634TIP3    H241394   2.440   4.902  12.655 -0.2874 -0.4311  0.3262
 6635TIP3   OH241395   0.506   3.162   5.980 -0.5797  0.4702  0.1005
 6635TIP3    H141396   0.462   3.111   6.049 -0.8919 -0.4087 -0.7268
 6635TIP3    H241397   0.538   3.096   5.919  3.0996  0.9162  1.2886
 6636TIP3   OH241398   3.794   0.678  14.901  0.2023  0.3159 -0.2180
 6636TIP3    H141399   3.740   0.715  14.970 -0.1271 -0.3566 -0.1048
 6636TIP3    H241400   3.769   0.585  14.898 -0.7595  0.5822 -2.1213
 6637TIP3   OH241401   5.155   3.097   4.825  0.1604  0.4440 -0.4279
 6637TIP3    H141402   5.108   3.019   4.857  1.3663 -0.6128 -1.1204
 6637TIP3    H241403   5.173   3.148   4.903  0.4599 -0.6161  0.2114
 6638TIP3   OH241404   4.777   2.230   0.203 -0.2694  0.1229  0.0065
 6638TIP3    H141405   4.807   2.296   0.265  1.4912  0.0404 -0.6936
 6638TIP3    H241406   4.815   2.148   0.234  1.3129  0.2038 -1.5345
 6639TIP3   OH241407   5.009   3.751  15.995  0.2328 -0.5837  0.2966
 6639TIP3    H141408   4.967   3.749  15.909 -1.0690 -0.8851  0.9213
 6639TIP3    H241409   5.094   3.709  15.980  0.0617 -0.5619 -0.8514
 6640TIP3   OH241410   1.347   2.490  17.107  0.5840 -0.4633  0.4416
 6640TIP3    H141411   1.398   2.441  17.042  1.6211  0.5727  0.4458
 6640TIP3    H241412   1.382   2.461  17.191 -0.9413 -2.0058  0.5954
 6641TIP3   OH241413   3.632   4.250  13.055 -0.1692 -0.3617 -0.1892
 6641TIP3    H141414   3.628   4.314  13.126 -1.8915 -2.0503  1.3736
 6641TIP3    H241415   3.555   4.268  13.002 -0.0087 -0.3810 -0.4284
 6642TIP3   OH241416   4.934   1.472   5.386  0.3804  0.2884  0.1919
 6642TIP3    H141417   4.921   1.437   5.475  0.4689  1.2665  0.6113
 6642TIP3    H241418   4.860   1.532   5.374  1.2729  1.4294  0.2701
 6643TIP3   OH241419   4.757   1.839  10.543 -0.7434  0.5354  0.7920
 6643TIP3    H141420   4.805   1.845  10.625 -0.1716  0.4397  0.4642
 6643TIP3    H241421   4.796   1.766  10.497 -2.3055 -0.6358  1.2389
 6644TIP3   OH241422   3.315   5.829   2.908 -0.2216 -0.0768  0.2736
 6644TIP3    H141423   3.232   5.863   2.942 -1.5938  0.2635 -3.0301
 6644TIP3    H241424   3.299   5.817   2.814  3.9842  1.5177 -0.8598
 6645TIP3   OH241425   0.431   1.109  16.541  0.1762  0.0929 -0.0007
 6645TIP3    H141426   0.521   1.078  16.528 -0.0785 -0.2810 -0.9900
 6645TIP3    H241427   0.411   1.156  16.460 -0.6706 -0.2007  0.0339
 6646TIP3   OH241428   3.711   0.841  11.246  0.0224  0.3094 -0.3167
 6646TIP3    H141429   3.750   0.925  11.219  1.3459  0.4529  1.7510
 6646TIP3    H241430   3.683   0.856  11.336 -2.5612 -0.6119 -0.8999
 6647TIP3   OH241431   6.429   3.610   0.154 -0.1063 -0.4110 -0.0571
 6647TIP3    H141432   6.487   3.555   0.101  1.6200  1.7609 -0.5467
 6647TIP3    H241433   6.479   3.690   0.170 -2.0175  0.5235  1.7268
 6648TIP3   OH241434   5.085   0.102   0.605 -0.2552 -0.4208  0.0044
 6648TIP3    H141435   5.153   0.097   0.673 -0.1896 -0.4546 -0.0636
 6648TIP3    H241436   5.002   0.094   0.653 -0.1759 -1.7523 -0.0545
 6649TIP3   OH241437   3.009   2.568  12.400 -0.4495  0.0675  0.1584
 6649TIP3    H141438   2.958   2.534  12.327 -0.7768  0.4087  0.2303
 6649TIP3    H241439   2.974   2.655  12.417 -0.9130 -0.3098  1.2347
 6650TIP3   OH241440   6.237   1.404  17.278  0.7745  0.6854 -0.4647
 6650TIP3    H141441   6.208   1.472  17.218  0.1037  0.2807 -0.6081
 6650TIP3    H241442   6.173   1.333  17.267  1.4512  0.0424 -0.3067
 6651TIP3   OH241443   4.200   5.856  14.870  0.1006 -0.4673 -0.5620
 6651TIP3    H141444   4.261   5.847  14.944 -2.1189 -1.7317  1.2599
 6651TIP3    H241445   4.251   5.830  14.793  2.1911 -0.2534  0.6755
 6652TIP3   OH241446   6.261   2.803   6.086  0.6797  0.4924  0.2838
 6652TIP3    H141447   6.320   2.779   6.157  1.8224  2.0682 -0.0795
 6652TIP3    H241448   6.258   2.724   6.031  0.7882 -0.3077  1.3898
 6653TIP3   OH241449   6.218   1.068   5.651 -0.3488 -0.4043 -0.2076
 6653TIP3    H141450   6.218   1.153   5.607 -2.4145 -0.4598 -0.3920
 6653TIP3    H241451   6.258   1.085   5.736 -0.9442  0.8088 -0.1484
 6654TIP3   OH241452   1.278   0.890  14.689 -0.1307 -0.8071  0.7525
 6654TIP3    H141453   1.275   0.795  14.675 -2.3877 -0.6000 -0.5429
 6654TIP3    H241454   1.317   0.925  14.609 -0.5966 -0.5420  0.6410
 6655TIP3   OH241455   6.398   0.841   1.838 -0.4743  0.5753  0.6165
 6655TIP3    H141456   6.407   0.921   1.785  2.2098  0.4675  0.7725
 6655TIP3    H241457   6.392   0.873   1.928 -2.9186  0.6703  0.4824
 6656TIP3   OH241458   1.183   1.192  16.385  0.1685 -0.2424 -0.3307
 6656TIP3    H141459   1.238   1.240  16.324  2.9860 -2.2342  0.4308
 6656TIP3    H241460   1.135   1.130  16.330 -1.3314  1.4037 -0.9813
 6657TIP3   OH241461   4.753   6.059   1.653  0.0331  0.5825 -0.1678
 6657TIP3    H141462   4.685   6.123   1.677  1.1078  1.1832  1.3939
 6657TIP3    H241463   4.705   5.992   1.604 -1.7114  0.9489  0.9307
 6658TIP3   OH241464   5.825   2.283  15.810  0.1271  0.4203 -0.4425
 6658TIP3    H141465   5.850   2.374  15.793 -0.8756  1.0905  1.3959
 6658TIP3    H241466   5.906   2.241  15.840  0.4674  0.8612 -0.7429
 6659TIP3   OH241467   4.006   1.958  11.917  0.6462 -0.4853  0.4026
 6659TIP3    H141468   4.062   1.936  11.992  1.0294  0.3498  0.3804
 6659TIP3    H241469   3.967   2.043  11.941  0.9073 -0.1296 -0.4071
 6660TIP3   OH241470   6.467   4.974   5.572 -0.0991  0.7001 -0.1038
 6660TIP3    H141471   6.437   4.964   5.481 -2.4196 -0.3161  0.6968
 6660TIP3    H241472   6.545   4.918   5.577 -0.8741 -0.5365 -1.0800
 6661TIP3   OH241473   5.112   6.577   0.775 -0.6051 -0.5064  0.3615
 6661TIP3    H141474   5.023   6.598   0.803 -0.2858  0.4896  0.6556
 6661TIP3    H241475   5.135   6.499   0.825 -1.6109 -1.2981 -0.3478
 6662TIP3   OH241476   0.189   0.482   1.259 -0.9362 -0.6346 -0.3289
 6662TIP3    H141477   0.255   0.528   1.311 -0.2677 -1.2473 -0.6205
 6662TIP3    H241478   0.204   0.389   1.279 -1.1358 -0.8331 -1.0709
 6663TIP3   OH241479   0.850   4.028  13.365  0.0132  0.1100  0.0036
 6663TIP3    H141480   0.945   4.022  13.377  0.0997 -0.2161 -0.8110
 6663TIP3    H241481   0.814   3.969  13.431  0.2883  1.4399  1.4123
 6664TIP3   OH241482   5.752   3.612   0.482  0.1586 -0.0012 -0.1725
 6664TIP3    H141483   5.830   3.558   0.471 -0.6804 -1.0881 -1.1019
 6664TIP3    H241484   5.690   3.556   0.529 -0.4388  0.4505 -0.3979
 6665TIP3   OH241485   3.217   4.773   4.907 -0.1200  0.1452 -0.2452
 6665TIP3    H141486   3.245   4.725   4.829  1.9377 -0.0002  0.5093
 6665TIP3    H241487   3.185   4.706   4.966  0.0222  0.0461 -0.2803
 6666TIP3   OH241488   0.951   3.041   3.750  0.4293 -0.0532 -0.8564
 6666TIP3    H141489   0.857   3.032   3.739 -0.0679  1.0099  1.6468
 6666TIP3    H241490   0.989   2.974   3.694 -1.8541 -1.2551 -1.0879
 6667TIP3   OH241491   2.487   6.414  11.879  0.2402 -0.3367  0.2016
 6667TIP3    H141492   2.495   6.400  11.973  3.8144  1.0253  0.2356
 6667TIP3    H241493   2.549   6.353  11.840 -0.7244 -0.4331 -1.2742
 6668TIP3   OH241494   5.909   3.478   3.176  0.0507 -0.6381 -0.2878
 6668TIP3    H141495   5.913   3.393   3.219  0.1786 -1.8680 -2.5490
 6668TIP3    H241496   5.821   3.482   3.140 -0.4882  0.9290  1.0907
 6669TIP3   OH241497   1.720   5.022   0.261  0.5574 -0.2023  0.1100
 6669TIP3    H141498   1.729   4.938   0.215  1.8909 -0.6953  1.2163
 6669TIP3    H241499   1.712   5.087   0.191  0.7752 -1.1149 -0.7777
 6670TIP3   OH241500   4.521   6.587  16.183 -0.0516 -0.2804 -0.0258
 6670TIP3    H141501   4.431   6.614  16.199 -0.0341 -0.4279  0.3582
 6670TIP3    H241502   4.549   6.550  16.267 -0.1148 -1.5798 -0.5582
 6671TIP3   OH241503   3.421   4.573   4.268  0.1010  0.7576 -0.4533
 6671TIP3    H141504   3.431   4.643   4.203 -1.9253 -0.2239 -1.9164
 6671TIP3    H241505   3.332   4.583   4.301  0.1214 -0.5231  0.0475
 6672TIP3   OH241506   4.317   6.162  16.686 -0.3313 -0.6468  0.6459
 6672TIP3    H141507   4.292   6.243  16.642  0.9826 -1.2476 -1.3225
 6672TIP3    H241508   4.242   6.141  16.741 -1.7283  0.5934 -0.6869
 6673TIP3   OH241509   5.154   4.797   2.935  0.1783 -0.3428  0.0926
 6673TIP3    H141510   5.172   4.785   2.842 -0.1886  1.0041 -0.1755
 6673TIP3    H241511   5.118   4.885   2.941  1.7332  0.2511  1.7082
 6674TIP3   OH241512   6.408   6.301  16.104 -0.3278  0.5076 -0.0909
 6674TIP3    H141513   6.327   6.261  16.073 -0.9221  0.1855  1.7456
 6674TIP3    H241514   6.394   6.311  16.198  1.9528 -0.0065  0.3487
 6675TIP3   OH241515   6.733   3.528  15.414 -0.1826  0.5133  0.0890
 6675TIP3    H141516   6.650   3.503  15.373 -0.2413 -0.0438  0.5256
 6675TIP3    H241517   6.799   3.476  15.369 -0.3022 -0.4545  0.9848
 6676TIP3   OH241518   2.426   5.313  16.613  0.2866  0.1858  0.4420
 6676TIP3    H141519   2.518   5.300  16.637  0.6483  2.1781  0.2644
 6676TIP3    H241520   2.377   5.257  16.673  1.5693 -0.5045  0.8871
 6677TIP3   OH241521   2.440   0.212   4.589  0.1561  0.0760  0.0132
 6677TIP3    H141522   2.485   0.188   4.671 -0.8149 -2.3596 -0.0913
 6677TIP3    H241523   2.512   0.231   4.528  0.9652 -0.5985  0.7221
 6678TIP3   OH241524   6.769   4.756  12.191 -0.4344 -0.0133 -0.5820
 6678TIP3    H141525   6.781   4.665  12.219  2.1047  0.6549  0.7811
 6678TIP3    H241526   6.718   4.797  12.261 -1.7663 -0.3981 -1.3000
 6679TIP3   OH241527   5.800   3.838   4.689 -0.1012  0.2461 -0.0749
 6679TIP3    H141528   5.734   3.883   4.742 -0.4225 -1.1825  0.7810
 6679TIP3    H241529   5.754   3.815   4.608  0.0984  1.5082 -0.5760
 6680TIP3   OH241530   5.829   5.850  14.670  0.6904  0.5972  0.3602
 6680TIP3    H141531   5.864   5.937  14.691  0.9772  0.6407 -0.2460
 6680TIP3    H241532   5.794   5.860  14.581  2.6349 -0.4107 -0.6001
 6681TIP3   OH241533   3.759   4.202  15.410  0.0850 -0.4555  0.1276
 6681TIP3    H141534   3.773   4.162  15.496  0.2219 -0.6384  0.0225
 6681TIP3    H241535   3.742   4.128  15.351  1.1380 -0.4415 -0.2280
 6682TIP3   OH241536   2.907   5.968  10.930 -0.2651  0.2090 -0.4109
 6682TIP3    H141537   2.892   5.972  11.025  0.8859 -0.6974 -0.1675
 6682TIP3    H241538   2.841   6.026  10.893 -0.3684  1.0397  0.9942
 6683TIP3   OH241539   6.745   3.363  16.586 -0.6515 -0.1261  0.0855
 6683TIP3    H141540   6.763   3.429  16.519 -0.7099 -0.3911 -0.1982
 6683TIP3    H241541   6.703   3.411  16.657  2.6097  0.8441  1.5044
 6684TIP3   OH241542   5.546   6.070   5.631 -0.0931 -0.0761  0.2049
 6684TIP3    H141543   5.634   6.035   5.647 -1.3140 -2.4826  2.1950
 6684TIP3    H241544   5.540   6.146   5.688  0.0637 -1.0912  1.6436
 6685TIP3   OH241545   3.239   2.386  13.351 -0.1743 -0.1799 -0.2028
 6685TIP3    H141546   3.185   2.319  13.310 -1.0002 -0.5497  1.4039
 6685TIP3    H241547   3.177   2.440  13.400  0.9392 -1.2583  2.6046
 6686TIP3   OH241548   0.531   1.556   2.550 -0.0778  0.2307  0.0061
 6686TIP3    H141549   0.452   1.607   2.569 -1.2105 -1.2741 -0.5276
 6686TIP3    H241550   0.555   1.582   2.461 -1.0432 -0.6265 -0.5204
 6687TIP3   OH241551   1.705   2.615  14.617 -0.2497  0.2155 -0.4319
 6687TIP3    H141552   1.715   2.558  14.693 -0.3183  0.7826  0.0069
 6687TIP3    H241553   1.773   2.585  14.557  0.4283  0.3699  0.2400
 6688TIP3   OH241554   5.277   0.850   4.673  0.3281  0.1818  0.4466
 6688TIP3    H141555   5.268   0.819   4.763  1.1163  0.1749  0.5313
 6688TIP3    H241556   5.323   0.934   4.681 -0.2250  0.5245  0.0985
 6689TIP3   OH241557   2.900   1.180  15.753 -0.4848 -0.0357  0.1059
 6689TIP3    H141558   2.908   1.272  15.780  1.2100  0.4938 -1.9236
 6689TIP3    H241559   2.988   1.155  15.725 -1.1125 -1.9951 -0.2936
 6690TIP3   OH241560   2.982   0.274   1.373  0.1920  0.4604 -0.1550
 6690TIP3    H141561   3.055   0.261   1.432 -0.2368 -1.9767 -0.0641
 6690TIP3    H241562   3.019   0.319   1.297  2.7167 -3.7069 -1.7021
 6691TIP3   OH241563   0.986   4.845  13.060  0.3086 -0.0999 -0.5882
 6691TIP3    H141564   0.893   4.821  13.057  0.7920 -2.1650 -0.5633
 6691TIP3    H241565   1.009   4.862  12.969  0.2736 -1.2412 -0.8256
 6692TIP3   OH241566   6.093   2.716  16.841  0.7322 -0.8477  0.6227
 6692TIP3    H141567   5.998   2.722  16.826  0.6787 -1.4716  0.6762
 6692TIP3    H241568   6.102   2.710  16.936  0.8292 -0.6886  0.6233
 6693TIP3   OH241569   6.590   6.309  13.464 -0.6478  0.0176 -0.3084
 6693TIP3    H141570   6.516   6.369  13.451 -1.5286 -0.2269  2.7420
 6693TIP3    H241571   6.553   6.222  13.450 -1.3490 -0.1786  2.1751
 6694TIP3   OH241572   2.197   3.563  11.853  0.4927  0.5217 -0.5365
 6694TIP3    H141573   2.246   3.588  11.775 -0.0302  1.2890 -0.6285
 6694TIP3    H241574   2.264   3.555  11.921  0.7168  2.0961 -0.5230
 6695TIP3   OH241575   1.542   1.329   1.811 -0.2522 -0.3428  0.3538
 6695TIP3    H141576   1.504   1.306   1.895 -0.3887  1.3448  0.7860
 6695TIP3    H241577   1.468   1.357   1.757  0.1746  2.4627  1.0319
 6696TIP3   OH241578   2.548   4.396   5.904 -0.3487  0.1237 -0.4557
 6696TIP3    H141579   2.493   4.473   5.892 -0.9194 -0.1585  0.2851
 6696TIP3    H241580   2.533   4.370   5.995  0.5480 -0.3158 -0.4212
 6697TIP3   OH241581   0.845   2.708  11.948 -0.3233 -0.0448  0.0339
 6697TIP3    H141582   0.900   2.734  11.874 -1.4913  0.5739 -0.6480
 6697TIP3    H241583   0.851   2.613  11.951  1.5173  0.0478  0.5811
 6698TIP3   OH241584   1.486   2.392   5.964  0.0139  0.3804  0.1012
 6698TIP3    H141585   1.538   2.312   5.960 -1.0243 -0.2825 -0.5261
 6698TIP3    H241586   1.551   2.463   5.962  1.0310 -0.4210  2.0149
 6699TIP3   OH241587   1.040   6.020  10.526 -0.8629 -0.1389 -0.4809
 6699TIP3    H141588   0.976   5.965  10.481 -1.2659 -0.6279  0.6688
 6699TIP3    H241589   1.042   5.987  10.616 -0.7980  1.4384  0.1296
 6700TIP3   OH241590   3.432   5.576   5.699 -0.2262 -0.4976 -0.5146
 6700TIP3    H141591   3.453   5.517   5.771 -0.0153  0.1604 -0.0256
 6700TIP3    H241592   3.441   5.522   5.620 -1.5909 -1.5462 -0.0038
 6701TIP3   OH241593   3.232   1.031  17.091  0.5074  0.1446 -0.4386
 6701TIP3    H141594   3.186   1.050  17.010  1.2665 -0.0311 -0.9206
 6701TIP3    H241595   3.313   0.988  17.064  0.3329 -0.7855  0.4672
 6702TIP3   OH241596   5.611   5.820   4.390 -0.0970  0.2455 -0.1047
 6702TIP3    H141597   5.637   5.774   4.469 -0.3064 -2.3506 -1.4507
 6702TIP3    H241598   5.516   5.806   4.384  0.2023 -1.4715 -1.8503
 6703TIP3   OH241599   1.520   3.039  15.624 -0.6823  0.1849  0.2091
 6703TIP3    H141600   1.554   2.968  15.569 -0.0092  0.6440  0.0249
 6703TIP3    H241601   1.571   3.116  15.598 -1.3915  0.7305  0.4297
 6704TIP3   OH241602   3.180   0.312  15.650 -0.1636 -0.6669 -0.0871
 6704TIP3    H141603   3.235   0.357  15.713  1.0393 -1.2054 -0.7124
 6704TIP3    H241604   3.108   0.373  15.633 -1.3421 -1.0893  2.8528
 6705TIP3   OH241605   5.917   3.349  15.426  0.2068 -0.3538  0.1200
 6705TIP3    H141606   5.983   3.318  15.487 -0.9463  0.0397  1.6355
 6705TIP3    H241607   5.916   3.444  15.438 -0.1178 -0.2771 -0.4458
 6706TIP3   OH241608   3.122   3.014  11.187 -0.0199 -0.5210 -0.0448
 6706TIP3    H141609   3.029   3.039  11.180 -0.0260 -0.7442 -0.9322
 6706TIP3    H241610   3.161   3.045  11.105  0.7562 -0.1827  0.4465
 6707TIP3   OH241611   0.941   6.479  12.360  0.6320  0.0413 -0.9681
 6707TIP3    H141612   0.892   6.406  12.397 -0.7512  1.4892  0.1919
 6707TIP3    H241613   0.915   6.482  12.268 -0.6041  0.0730 -0.6325
 6708TIP3   OH241614   0.216   4.980  11.775  0.1240 -0.0604  0.0461
 6708TIP3    H141615   0.131   5.001  11.813 -0.3746 -0.1264 -0.9785
 6708TIP3    H241616   0.222   4.885  11.779  0.4140 -0.0196  0.6495
 6709TIP3   OH241617   2.004   4.565   3.700 -0.3576  0.0153  0.5134
 6709TIP3    H141618   1.976   4.646   3.656  0.1986  0.8218  1.5996
 6709TIP3    H241619   2.073   4.530   3.644  0.8764  1.4338  1.0504
 6710TIP3   OH241620   0.420   1.159   3.876 -0.2086  0.3902  0.3413
 6710TIP3    H141621   0.351   1.139   3.940  0.9541 -1.1206  1.1951
 6710TIP3    H241622   0.490   1.199   3.928 -0.1883  1.4101 -0.4255
 6711TIP3   OH241623   1.270   3.274   1.723 -0.2212  0.3554  0.1467
 6711TIP3    H141624   1.261   3.333   1.797  1.1012  0.8096 -0.0456
 6711TIP3    H241625   1.250   3.328   1.646 -2.3940 -0.3020  0.1675
 6712TIP3   OH241626   5.262   1.345   5.373 -0.4310  0.2658 -0.2105
 6712TIP3    H141627   5.337   1.332   5.315  0.1343  0.3624  0.4928
 6712TIP3    H241628   5.221   1.259   5.378 -0.6765  0.3206 -0.9958
 6713TIP3   OH241629   3.949   5.279  13.476  0.0987  0.5641  0.3369
 6713TIP3    H141630   3.972   5.365  13.510  0.2364  0.7774 -0.2893
 6713TIP3    H241631   3.861   5.262  13.510 -0.0955  1.1341  0.1222
 6714TIP3   OH241632   5.564   4.980  13.184  0.1421 -0.0560 -0.0751
 6714TIP3    H141633   5.597   5.053  13.235  1.2627 -0.9254  0.4805
 6714TIP3    H241634   5.475   4.966  13.216 -0.0504  0.9875 -0.1281
 6715TIP3   OH241635   6.328   3.205   2.048  0.8327 -0.2020 -0.2933
 6715TIP3    H141636   6.314   3.193   1.954 -0.6488  2.1659 -0.4559
 6715TIP3    H241637   6.258   3.155   2.090  1.1136 -0.7351 -0.4472
 6716TIP3   OH241638   1.394   5.216  16.686  0.4544 -0.2355 -0.0466
 6716TIP3    H141639   1.372   5.160  16.760  1.0524 -0.8328 -0.3061
 6716TIP3    H241640   1.482   5.187  16.660  1.2925  1.6087  0.5542
 6717TIP3   OH241641   1.988   3.384  15.259 -0.7155 -0.6353 -0.0881
 6717TIP3    H141642   2.023   3.357  15.174 -3.6979 -0.9041 -1.3881
 6717TIP3    H241643   1.953   3.303  15.297 -0.1819 -0.3650  1.0127
 6718TIP3   OH241644   1.484   3.179  15.999 -0.2489  0.5512 -0.0592
 6718TIP3    H141645   1.395   3.142  15.996 -0.6890  1.3553  1.9382
 6718TIP3    H241646   1.474   3.265  15.960 -0.4213  0.7662  0.4547
 6719TIP3   OH241647   2.699   1.177   3.838 -0.4452  0.7427  0.0776
 6719TIP3    H141648   2.716   1.096   3.887  0.6238  1.6947  1.3552
 6719TIP3    H241649   2.635   1.224   3.891  0.4246  1.6069  0.3878
 6720TIP3   OH241650   5.023   3.433   3.176 -0.1768  0.7891  0.2055
 6720TIP3    H141651   5.115   3.454   3.163  0.0794  0.7201  1.6761
 6720TIP3    H241652   5.022   3.374   3.252 -1.2886 -0.7129 -0.9066
 6721TIP3   OH241653   5.731   4.455   2.851  0.2193 -0.2477  0.2646
 6721TIP3    H141654   5.750   4.509   2.928  0.3170  1.3276 -0.8435
 6721TIP3    H241655   5.649   4.491   2.816 -0.0633 -1.2414 -0.1322
 6722TIP3   OH241656   1.138   0.800   0.655 -0.5406  0.0538  0.0963
 6722TIP3    H141657   1.143   0.726   0.595  0.3462  0.4781 -0.3698
 6722TIP3    H241658   1.148   0.761   0.742 -2.7367 -0.6770  0.0908
 6723TIP3   OH241659   2.756   2.755   2.557 -0.2044 -0.2952 -0.3162
 6723TIP3    H141660   2.702   2.715   2.625 -0.0433 -1.3322 -0.7882
 6723TIP3    H241661   2.835   2.701   2.553  1.2687  1.6369  0.8947
 6724TIP3   OH241662   6.356   0.681  14.988  0.3134 -0.1213  0.1265
 6724TIP3    H141663   6.384   0.667  14.898 -0.5188  1.1606 -0.3555
 6724TIP3    H241664   6.282   0.622  15.000 -1.4261  1.7025 -1.0065
 6725TIP3   OH241665   1.836   0.339  15.427 -0.5969  0.1629  0.4361
 6725TIP3    H141666   1.901   0.376  15.487 -0.4581  0.8070 -0.1038
 6725TIP3    H241667   1.767   0.405  15.422 -0.5585  0.1651 -0.1843
 6726TIP3   OH241668   3.911   5.144  15.773  0.4172  0.1089 -0.7498
 6726TIP3    H141669   3.980   5.134  15.839  0.0135 -0.5925 -0.4259
 6726TIP3    H241670   3.954   5.120  15.690  0.3395 -1.2341 -0.4286
 6727TIP3   OH241671   6.696   5.327   1.768  0.1331 -0.8068  0.4842
 6727TIP3    H141672   6.728   5.415   1.789 -1.8669 -0.0521  0.5700
 6727TIP3    H241673   6.773   5.280   1.736  0.7227  1.9633 -2.6740
 6728TIP3   OH241674   5.663   6.654  13.806  0.7036 -0.0875 -0.2531
 6728TIP3    H141675   5.733   6.638  13.870  0.8269 -2.7307 -0.9312
 6728TIP3    H241676   5.584   6.662  13.859  0.6402 -3.1812  0.3544
 6729TIP3   OH241677   0.623   1.151   4.402  0.8969  0.1822 -0.0019
 6729TIP3    H141678   0.584   1.077   4.356  3.7153 -0.3197 -1.9123
 6729TIP3    H241679   0.555   1.181   4.462 -1.7863 -1.4365 -1.9686
 6730TIP3   OH241680   3.742   0.798   0.289  0.3688 -0.1684  0.3549
 6730TIP3    H141681   3.799   0.729   0.323 -1.5436 -1.3189  1.4084
 6730TIP3    H241682   3.745   0.786   0.194  2.7328  0.5737  0.2581
 6731TIP3   OH241683   0.685   3.913  16.483 -0.2465  0.0620  0.5450
 6731TIP3    H141684   0.669   3.821  16.461 -1.5277  0.6089 -1.0531
 6731TIP3    H241685   0.777   3.916  16.507  0.6677 -1.1773 -2.3125
 6732TIP3   OH241686   0.202   4.781   1.434  0.5984 -0.5523  0.4336
 6732TIP3    H141687   0.118   4.739   1.452 -0.2485  0.9174  0.0755
 6732TIP3    H241688   0.243   4.725   1.368 -0.8050 -0.4648 -0.5485
 6733TIP3   OH241689   2.223   6.411   3.493 -0.0835 -0.1567 -0.4223
 6733TIP3    H141690   2.260   6.336   3.541 -2.2977 -1.4767 -0.6495
 6733TIP3    H241691   2.179   6.371   3.418  0.1567  1.5674 -1.5253
 6734TIP3   OH241692   1.705   2.215  14.693  0.0938 -0.3594 -0.2955
 6734TIP3    H141693   1.684   2.308  14.701 -0.2577 -0.4789  0.1561
 6734TIP3    H241694   1.634   2.170  14.739 -0.2963 -0.9020 -1.3760
 6735TIP3   OH241695   3.053   3.661  12.263 -0.5747  0.0295  0.1534
 6735TIP3    H141696   3.085   3.572  12.276  1.5205  0.3657 -1.9274
 6735TIP3    H241697   3.022   3.688  12.349  1.7103 -1.6181  1.6159
 6736TIP3   OH241698   1.770   5.916   1.686 -0.6206  0.4740  0.2283
 6736TIP3    H141699   1.731   5.989   1.638  1.3924  0.5914 -1.3816
 6736TIP3    H241700   1.796   5.854   1.618 -0.8138 -1.0257  1.4550
 6737TIP3   OH241701   1.969   6.396  14.112 -0.4740  0.5153 -0.2106
 6737TIP3    H141702   1.954   6.443  14.030 -0.5703 -0.3742 -0.7118
 6737TIP3    H241703   1.999   6.309  14.085 -1.3106 -0.0695  0.6788
 6738TIP3   OH241704   0.181   2.691   6.560 -0.8134  0.0447 -0.1948
 6738TIP3    H141705   0.215   2.771   6.519 -0.5874 -0.7947 -1.7255
 6738TIP3    H241706   0.254   2.629   6.554 -0.3069  0.2469  2.7339
 6739TIP3   OH241707   2.582   4.441  13.012 -0.3944 -0.4945  0.4207
 6739TIP3    H141708   2.648   4.497  13.053  0.2055  0.0810 -1.2377
 6739TIP3    H241709   2.630   4.393  12.944 -1.6567 -0.1410 -0.7632
 6740TIP3   OH241710   0.297   6.480   1.751 -0.0678  0.2583  0.1521
 6740TIP3    H141711   0.319   6.396   1.792 -1.3167 -0.2151 -0.0987
 6740TIP3    H241712   0.271   6.457   1.662  0.7567  1.0680 -0.3164
 6741TIP3   OH241713   1.608   2.274  11.811 -0.2888 -0.1189 -0.0110
 6741TIP3    H141714   1.610   2.292  11.905  1.8422 -1.4216  0.2751
 6741TIP3    H241715   1.534   2.325  11.778  0.8872  3.0726  1.8012
 6742TIP3   OH241716   3.704   5.728   4.180  0.8416 -0.1915  0.0374
 6742TIP3    H141717   3.685   5.684   4.263 -0.3875 -0.9002 -0.5835
 6742TIP3    H241718   3.646   5.804   4.179  1.5615  0.3747  0.2436
 6743TIP3   OH241719   2.373   6.677   3.005  0.3766 -0.5909  0.0176
 6743TIP3    H141720   2.459   6.669   3.047 -0.2240 -0.2922  1.3620
 6743TIP3    H241721   2.311   6.681   3.078 -0.6790  0.4169 -0.9025
 6744TIP3   OH241722   6.477   3.372  10.473  0.0156 -0.3607 -0.2674
 6744TIP3    H141723   6.552   3.416  10.435 -0.2928 -0.1136 -0.6054
 6744TIP3    H241724   6.422   3.443  10.507  0.6460 -0.6086  1.3609
 6745TIP3   OH241725   0.124   1.854   1.021 -1.1196  0.0717  0.0755
 6745TIP3    H141726   0.102   1.892   0.936  0.1990 -1.8322 -1.1975
 6745TIP3    H241727   0.204   1.899   1.047  1.5117 -2.7582 -2.3080
 6746TIP3   OH241728   5.551   6.751   5.971  0.4209 -0.3017 -0.2985
 6746TIP3    H141729   5.483   6.787   6.029  1.7167  1.6635  0.1043
 6746TIP3    H241730   5.618   6.717   6.031  0.2120 -1.4516 -0.6912
 6747TIP3   OH241731   0.415   0.573  14.011  0.0583  0.8122 -0.0307
 6747TIP3    H141732   0.396   0.641  13.946 -0.4213  1.5570  0.8720
 6747TIP3    H241733   0.458   0.619  14.083  0.8631 -0.0563  0.0644
 6748TIP3   OH241734   6.072   4.628   0.790  0.1061  0.8690  0.7373
 6748TIP3    H141735   6.050   4.599   0.879  0.7319  0.3159  0.7283
 6748TIP3    H241736   6.168   4.624   0.788  0.1131 -2.7729 -1.0839
 6749TIP3   OH241737   3.520   5.328  14.873  0.2598 -0.9575 -0.5864
 6749TIP3    H141738   3.603   5.371  14.895 -0.4552 -0.7411  2.0742
 6749TIP3    H241739   3.535   5.289  14.787  2.2450  1.2286 -1.3477
 6750TIP3   OH241740   3.947   6.614   2.281  0.4922  0.0118 -0.1030
 6750TIP3    H141741   3.904   6.532   2.258  1.3012  0.3228 -3.2382
 6750TIP3    H241742   4.029   6.588   2.323  0.1162 -0.7479  0.1678
 6751TIP3   OH241743   3.795   6.754   0.026  0.0220 -0.2278 -0.1810
 6751TIP3    H141744   3.715   6.701   0.022 -0.1749  0.1036 -0.9876
 6751TIP3    H241745   3.781   6.822  -0.040 -0.0426  1.2908  1.3210
 6752TIP3   OH241746   6.554   4.580   5.630 -0.2708  0.5741 -0.6149
 6752TIP3    H141747   6.513   4.638   5.565 -0.4960  1.1327  0.0063
 6752TIP3    H241748   6.645   4.572   5.602 -0.3336  0.9156 -0.9270
 6753TIP3   OH241749   5.418   4.223  16.684 -0.2083 -0.2783 -0.5322
 6753TIP3    H141750   5.461   4.155  16.735 -0.3967  1.2247  1.7760
 6753TIP3    H241751   5.489   4.265  16.636  0.2188 -0.7513 -0.3272
 6754TIP3   OH241752   3.081   5.573  14.797  0.1180 -0.5535 -0.0011
 6754TIP3    H141753   3.069   5.487  14.756  0.1347  0.5127 -2.4098
 6754TIP3    H241754   2.996   5.592  14.838 -0.9257 -0.5097 -2.0255
 6755TIP3   OH241755   1.641   2.316  15.114 -0.7086  0.4639  0.0466
 6755TIP3    H141756   1.558   2.358  15.135  0.8326  2.9209  1.6901
 6755TIP3    H241757   1.663   2.266  15.192  0.0733  1.1366  0.2739
 6756TIP3   OH241758   5.496   1.961   4.906 -0.2850 -0.6865  0.3748
 6756TIP3    H141759   5.590   1.970   4.887  0.2251 -2.2398  1.9585
 6756TIP3    H241760   5.475   2.038   4.959  0.1614 -0.5222  0.3162
 6757TIP3   OH241761   3.783   2.677  17.005 -0.1978  0.3778 -0.1863
 6757TIP3    H141762   3.837   2.616  16.955  2.2519  0.8990  1.6553
 6757TIP3    H241763   3.818   2.763  16.983 -1.1111  0.8350  0.1105
 6758TIP3   OH241764   1.563   0.767  13.611  0.2779  0.1106 -0.2333
 6758TIP3    H141765   1.492   0.807  13.661 -0.3658  0.0499 -1.0739
 6758TIP3    H241766   1.600   0.701  13.670 -2.2176 -1.8851 -0.7114
 6759TIP3   OH241767   4.377   1.942  16.945  0.2635  0.0179 -0.0151
 6759TIP3    H141768   4.338   1.865  16.986  2.5341 -0.3799  1.6604
 6759TIP3    H241769   4.319   1.964  16.873 -1.4293 -2.1521  0.5831
 6760TIP3   OH241770   1.002   2.591   5.788 -0.0566  0.0952 -0.2075
 6760TIP3    H141771   1.092   2.559   5.797  0.0443  0.6567  1.0843
 6760TIP3    H241772   0.951   2.515   5.762  0.7844 -0.2428 -0.8765
 6761TIP3   OH241773   4.887   0.930  15.370  0.2821  0.1358  0.5368
 6761TIP3    H141774   4.914   0.852  15.322  0.6347  0.0898  0.8153
 6761TIP3    H241775   4.792   0.934  15.356  0.0353 -1.1264  1.6864
 6762TIP3   OH241776   4.445   6.521   1.748  0.4267  0.0645  0.0876
 6762TIP3    H141777   4.440   6.535   1.842 -0.7664  2.2505 -0.2459
 6762TIP3    H241778   4.380   6.580   1.711 -0.1995 -1.8106 -2.0489
 6763TIP3   OH241779   3.950   0.084   6.048 -0.5200  0.1498 -0.0233
 6763TIP3    H141780   3.894   0.076   5.970 -0.0024 -1.9918 -0.2460
 6763TIP3    H241781   4.039   0.083   6.013 -0.2634 -1.5287  0.5912
 6764TIP3   OH241782   0.194   4.236  14.689  0.5109 -0.4271 -0.4846
 6764TIP3    H141783   0.238   4.303  14.637  2.2435 -0.7119  0.5551
 6764TIP3    H241784   0.113   4.278  14.718  1.2722  1.0178 -0.3676
 6765TIP3   OH241785   5.298   5.138   1.160  0.0683  1.0769 -0.5077
 6765TIP3    H141786   5.257   5.055   1.140  0.9465  0.7610 -1.0509
 6765TIP3    H241787   5.315   5.134   1.255 -0.9732  1.1486 -0.3089
 6766TIP3   OH241788   5.810   6.537  16.603  0.1205  0.4596  0.3165
 6766TIP3    H141789   5.807   6.626  16.637  0.6098 -0.0051  1.6335
 6766TIP3    H241790   5.864   6.543  16.524  0.3315  1.2924  0.5146
 6767TIP3   OH241791   1.320   1.523   3.255 -0.4506 -0.6805 -0.8260
 6767TIP3    H141792   1.256   1.455   3.277 -2.2152  1.5708  1.6959
 6767TIP3    H241793   1.283   1.569   3.180 -0.2953 -1.2175 -1.2304
 6768TIP3   OH241794   2.159   2.555   2.699 -0.2919  0.7391  0.6387
 6768TIP3    H141795   2.153   2.648   2.678  2.6605  0.6907 -0.9230
 6768TIP3    H241796   2.084   2.516   2.654  0.1580  2.0271 -1.3794
 6769TIP3   OH241797   5.299   4.838   5.655 -0.0519  0.1755 -0.2808
 6769TIP3    H141798   5.215   4.797   5.633 -0.1780  0.6559 -0.7072
 6769TIP3    H241799   5.351   4.830   5.575  0.3000 -0.0803 -0.0325
 6770TIP3   OH241800   0.228   6.654  16.484 -0.1493  0.1028 -0.1629
 6770TIP3    H141801   0.259   6.702  16.561 -1.4399  0.8626 -0.0808
 6770TIP3    H241802   0.277   6.692  16.411  0.4483 -0.0135  0.1712
 6771TIP3   OH241803   4.670   2.539  11.958 -0.1691 -0.5219 -0.1284
 6771TIP3    H141804   4.707   2.614  12.005 -2.3410  0.3077  0.3902
 6771TIP3    H241805   4.686   2.464  12.015  1.0156 -0.2774 -0.1131
 6772TIP3   OH241806   1.740   6.738   1.319 -0.1464  0.3536  0.2744
 6772TIP3    H141807   1.795   6.813   1.298  1.0524 -0.5167  0.2350
 6772TIP3    H241808   1.685   6.768   1.392 -0.7003  1.7115 -0.6580
 6773TIP3   OH241809   4.398   2.115   5.326 -0.1594  0.5158  0.0237
 6773TIP3    H141810   4.492   2.097   5.330 -0.6294 -2.1895  1.3317
 6773TIP3    H241811   4.370   2.078   5.243 -0.3461 -0.5024  0.5234
 6774TIP3   OH241812   1.034   4.300  13.705  0.2485 -0.2917  0.3623
 6774TIP3    H141813   1.099   4.245  13.662 -1.0801 -1.5734 -0.1252
 6774TIP3    H241814   1.084   4.373  13.742  2.2450 -2.2390  1.7737
 6775TIP3   OH241815   1.254   3.503   1.883  0.0011 -0.8673 -0.0965
 6775TIP3    H141816   1.331   3.512   1.939 -0.2268  0.4570  0.0174
 6775TIP3    H241817   1.203   3.582   1.898 -0.8298 -1.2041 -1.0229
 6776TIP3   OH241818   1.521   2.522   3.172 -0.2064  0.6583 -0.4111
 6776TIP3    H141819   1.531   2.598   3.229 -3.1634  0.7127  0.1633
 6776TIP3    H241820   1.604   2.474   3.181  0.1828  1.7107  2.3475
 6777TIP3   OH241821   6.293   4.599   2.198 -0.1707 -0.0177 -0.3626
 6777TIP3    H141822   6.376   4.579   2.242  0.4139 -0.0022 -1.4257
 6777TIP3    H241823   6.226   4.580   2.263  0.7415  2.2521  1.3637
 6778TIP3   OH241824   4.018   4.582   4.397 -0.2622  0.0998  0.0180
 6778TIP3    H141825   3.999   4.488   4.396  0.8552 -0.2723  2.9142
 6778TIP3    H241826   4.113   4.587   4.403 -0.3760  1.3502  1.3274
 6779TIP3   OH241827   4.187   3.134  14.998  0.1604 -0.1311 -0.6503
 6779TIP3    H141828   4.271   3.144  14.955 -0.8225 -0.6545 -2.8602
 6779TIP3    H241829   4.163   3.043  14.983 -0.3575 -0.2594  0.8201
 6780TIP3   OH241830   1.659   5.161  12.187 -0.1323  0.4341 -0.6916
 6780TIP3    H141831   1.637   5.169  12.094 -2.4888  1.1945 -0.1435
 6780TIP3    H241832   1.597   5.096  12.221  1.2128 -0.4298  0.2323
 6781TIP3   OH241833   1.285   1.259   2.410 -0.0842  0.3273  0.1738
 6781TIP3    H141834   1.324   1.212   2.484 -0.6799 -3.0695 -1.5176
 6781TIP3    H241835   1.298   1.202   2.335  0.1598  3.4703 -2.3669
 6782TIP3   OH241836   4.524   1.187  12.442  0.4053  0.5894 -0.3555
 6782TIP3    H141837   4.467   1.236  12.501  0.7283 -1.9772  2.3663
 6782TIP3    H241838   4.466   1.157  12.372 -1.1643 -0.0888  1.1528
 6783TIP3   OH241839   0.271   1.411  15.630  0.4352 -0.0104  0.1071
 6783TIP3    H141840   0.294   1.399  15.722  0.3288 -0.5995  0.0596
 6783TIP3    H241841   0.300   1.500  15.609 -1.9397  1.1431  1.4147
 6784TIP3   OH241842   1.461   0.333  10.626  0.5318  0.0963  0.5444
 6784TIP3    H141843   1.505   0.299  10.548  0.3644 -0.6364  0.7588
 6784TIP3    H241844   1.507   0.414  10.646  1.9768 -0.7824  0.9225
 6785TIP3   OH241845   0.202   1.170   0.173 -0.0404 -0.4938 -0.1670
 6785TIP3    H141846   0.151   1.179   0.254  1.1909 -1.2098  0.7379
 6785TIP3    H241847   0.166   1.092   0.131  1.5199 -2.2343  1.4857
 6786TIP3   OH241848   6.720   5.774   2.731 -0.6888  0.2683 -0.1609
 6786TIP3    H141849   6.662   5.835   2.686 -0.9584  0.1484  0.0217
 6786TIP3    H241850   6.794   5.764   2.672 -0.2371  1.4283  0.1842
 6787TIP3   OH241851   4.056   3.170   5.741  0.7222 -0.3173 -0.2789
 6787TIP3    H141852   4.008   3.246   5.709  1.7608  0.9927  1.1116
 6787TIP3    H241853   4.140   3.174   5.695  1.4366  0.4113  1.0253
 6788TIP3   OH241854   2.963   3.930   6.409  0.3703  0.5364  0.7883
 6788TIP3    H141855   3.013   3.850   6.390  0.0842  0.1118  1.7827
 6788TIP3    H241856   2.931   3.918   6.498 -2.5863  0.2371 -0.2088
 6789TIP3   OH241857   1.872   5.518   4.821 -0.2789  0.6009  0.4815
 6789TIP3    H141858   1.875   5.575   4.898 -1.9037  1.1326  0.1844
 6789TIP3    H241859   1.809   5.560   4.762  1.3287  0.4950 -1.3999
 6790TIP3   OH241860   3.036   6.061  15.648  0.2095  0.1072  0.6646
 6790TIP3    H141861   3.012   6.008  15.572  2.1718  2.3276 -1.6451
 6790TIP3    H241862   2.977   6.030  15.717  0.4820 -4.2891 -0.7349
 6791TIP3   OH241863   1.653   0.615  11.423 -0.2823  0.1526 -0.4094
 6791TIP3    H141864   1.600   0.662  11.488  0.0342  1.4630 -1.0702
 6791TIP3    H241865   1.590   0.565  11.372 -0.8590  1.2623 -0.8240
 6792TIP3   OH241866   4.117   4.135   4.024  0.0985  0.1427  0.3681
 6792TIP3    H141867   4.026   4.133   3.995 -0.8568 -0.1815  3.1082
 6792TIP3    H241868   4.161   4.067   3.973 -1.3653 -0.1998 -0.4660
 6793TIP3   OH241869   0.471   5.234  16.877 -0.6717  0.3875 -0.4689
 6793TIP3    H141870   0.522   5.315  16.886  1.7150 -1.2357  1.6783
 6793TIP3    H241871   0.400   5.244  16.940  0.2761  0.3860  0.6357
 6794TIP3   OH241872   0.047   1.168  14.239  0.1136  0.1147  0.2401
 6794TIP3    H141873  -0.008   1.101  14.199  0.7248  0.0807 -0.5803
 6794TIP3    H241874   0.080   1.219  14.165  1.4409 -0.0816  0.6656
 6795TIP3   OH241875   3.167   0.962  12.478  0.4630  0.0259  0.0031
 6795TIP3    H141876   3.219   0.886  12.450  0.7530 -0.6590  2.2487
 6795TIP3    H241877   3.228   1.015  12.529 -0.8193 -0.4372  2.0973
 6796TIP3   OH241878   3.829   2.236   4.668 -0.3453 -0.6887 -0.7732
 6796TIP3    H141879   3.865   2.294   4.734  1.2008 -1.1175 -1.2071
 6796TIP3    H241880   3.739   2.267   4.656  0.5254  1.8992 -1.2880
 6797TIP3   OH241881   1.987   6.031   1.862 -0.3457 -0.8563 -0.2597
 6797TIP3    H141882   1.921   5.998   1.801 -1.5462 -0.8872  1.0223
 6797TIP3    H241883   2.031   5.953   1.896 -0.3810 -0.8959 -0.3046
 6798TIP3   OH241884   3.045   5.755   1.722  0.0162  0.1291 -0.7103
 6798TIP3    H141885   2.992   5.676   1.707  0.0950  0.3766 -2.5187
 6798TIP3    H241886   3.098   5.734   1.799  0.9430 -2.1064 -1.8643
 6799TIP3   OH241887   1.735   6.331   1.024 -0.2569  0.4908  0.9753
 6799TIP3    H141888   1.671   6.357   0.957 -0.8851 -0.9344  0.9856
 6799TIP3    H241889   1.789   6.265   0.980  0.9750  1.3989  1.0954
 6800TIP3   OH241890   4.857   1.814  13.013 -0.3182  0.1693 -0.4646
 6800TIP3    H141891   4.852   1.875  13.087 -0.9589  0.9614 -1.1422
 6800TIP3    H241892   4.900   1.864  12.944  1.8909 -1.1212 -0.1099
 6801TIP3   OH241893   2.143   2.249   1.322  0.0192  0.0912  0.1803
 6801TIP3    H141894   2.186   2.236   1.237  0.5393  0.0226  0.4515
 6801TIP3    H241895   2.199   2.310   1.368  0.3493 -0.7365  0.9111
 6802TIP3   OH241896   3.163   3.572   5.212  0.2004  0.7037  0.1713
 6802TIP3    H141897   3.135   3.481   5.200  0.4131  0.7985 -1.1141
 6802TIP3    H241898   3.243   3.566   5.264 -0.5325  0.2556  1.2859
 6803TIP3   OH241899   5.276   2.938   2.011 -0.0062 -0.1940 -0.3352
 6803TIP3    H141900   5.367   2.961   2.028 -0.2140 -0.7831  1.8188
 6803TIP3    H241901   5.281   2.857   1.960  0.7318 -1.4860  1.6831
 6804TIP3   OH241902   5.804   0.019   4.009  0.0261 -0.1578 -0.0280
 6804TIP3    H141903   5.743   0.052   4.074 -0.8740 -0.8616 -0.5039
 6804TIP3    H241904   5.870   0.089   4.000 -0.1582  0.1842  1.1920
 6805TIP3   OH241905   3.225   3.178   0.966 -0.3429  0.7545  0.4674
 6805TIP3    H141906   3.296   3.188   1.029 -0.4068  0.8796  0.5194
 6805TIP3    H241907   3.231   3.257   0.912  0.8143 -0.1417 -0.7941
 6806TIP3   OH241908   4.488   2.669   5.698  0.4684 -1.1287  0.3567
 6806TIP3    H141909   4.510   2.751   5.652 -0.4763 -0.7940  0.4864
 6806TIP3    H241910   4.516   2.684   5.788  0.7518 -1.1388  0.2720
 6807TIP3   OH241911   0.089   5.163  15.451 -0.2652  0.2729 -0.1951
 6807TIP3    H141912   0.118   5.154  15.542 -0.7085  0.7996  0.0103
 6807TIP3    H241913   0.075   5.074  15.420 -1.0507  0.1155  0.5750
 6808TIP3   OH241914   2.113   1.992   3.450  0.3565  0.1778 -0.1716
 6808TIP3    H141915   2.207   1.980   3.436  0.4917  2.2319 -1.4495
 6808TIP3    H241916   2.072   1.925   3.394  1.0612  0.2330 -0.7653
 6809TIP3   OH241917   1.518   6.467   4.125 -0.2978 -0.3327 -0.0434
 6809TIP3    H141918   1.576   6.488   4.052 -0.0315 -0.3910  0.1494
 6809TIP3    H241919   1.507   6.372   4.121  0.2272 -0.4148  0.3688
 6810TIP3   OH241920   4.043   6.771  13.599 -0.0987 -0.0097 -0.1220
 6810TIP3    H141921   4.061   6.863  13.619  1.5170 -0.4122  0.3793
 6810TIP3    H241922   4.129   6.730  13.595 -0.7620 -1.3586 -1.1291
 6811TIP3   OH241923   1.080   1.519  16.359  0.1424  0.2513  0.3240
 6811TIP3    H141924   1.146   1.477  16.303  1.4611  2.1764  0.3496
 6811TIP3    H241925   1.128   1.545  16.437 -0.4225  2.4537 -0.0143
 6812TIP3   OH241926   2.127   4.567   6.287 -0.5968 -0.2470 -0.2215
 6812TIP3    H141927   2.076   4.598   6.213 -1.2390  1.0743  0.7346
 6812TIP3    H241928   2.068   4.509   6.335 -0.2805 -0.8648 -0.5672
 6813TIP3   OH241929   2.434   6.644  16.564  0.3295  0.3030 -0.4792
 6813TIP3    H141930   2.362   6.582  16.560 -0.8487  1.5895 -0.2083
 6813TIP3    H241931   2.512   6.593  16.542 -0.3443 -1.5943  1.2699
 6814TIP3   OH241932   3.296   0.774  11.066  0.0888 -0.3664  0.1866
 6814TIP3    H141933   3.214   0.755  11.020  0.5030 -1.5310 -0.1071
 6814TIP3    H241934   3.312   0.867  11.049 -0.8983 -0.2468 -0.1796
 6815TIP3   OH241935   2.286   1.775   4.832 -0.3065 -0.2273 -0.4399
 6815TIP3    H141936   2.215   1.835   4.806 -0.3525 -0.0049  0.1609
 6815TIP3    H241937   2.359   1.833   4.853 -0.1702 -0.4158 -0.3966
 6816TIP3   OH241938   2.660   4.603  13.266 -0.0399  0.5379  0.1506
 6816TIP3    H141939   2.755   4.597  13.261  0.0578  1.0992  1.1234
 6816TIP3    H241940   2.639   4.584  13.358 -1.0594 -1.7489 -0.4876
 6817TIP3   OH241941   5.593   1.251   3.089  0.0833 -0.2867 -0.1886
 6817TIP3    H141942   5.538   1.190   3.040 -0.7343  0.3550 -0.0801
 6817TIP3    H241943   5.635   1.196   3.155  0.4576 -0.9868 -0.9829
 6818TIP3   OH241944   5.869   3.492   5.472  0.2916  0.6436  0.0509
 6818TIP3    H141945   5.803   3.427   5.496  1.8460 -1.6404 -1.4263
 6818TIP3    H241946   5.945   3.469   5.525  1.3760  0.1768 -1.6466
 6819TIP3   OH241947   2.100   4.611   5.020  0.2429 -0.2891  0.2004
 6819TIP3    H141948   2.061   4.616   5.108  1.4147 -2.1664  0.8908
 6819TIP3    H241949   2.181   4.661   5.027  0.0208  0.0945  0.0059
 6820TIP3   OH241950   1.024   1.270   2.346 -0.1648  0.0298 -0.6131
 6820TIP3    H141951   1.027   1.228   2.260 -0.9288 -2.4651  0.4810
 6820TIP3    H241952   1.114   1.265   2.378 -0.3747 -1.6600 -0.1701
 6821TIP3   OH241953   1.015   3.810   2.189 -0.1519 -0.2585  0.2575
 6821TIP3    H141954   0.936   3.800   2.241 -0.4785  1.6030  0.1841
 6821TIP3    H241955   1.049   3.897   2.213  0.8966 -0.2936 -0.9898
 6822TIP3   OH241956   0.644   1.897   4.968  0.6620 -0.0204 -0.6005
 6822TIP3    H141957   0.733   1.916   4.938  0.6913 -1.1567 -1.2707
 6822TIP3    H241958   0.595   1.881   4.887  0.0704 -0.3217 -0.1864
 6823TIP3   OH241959   5.017   3.383   3.749  0.5016  0.4871  0.5925
 6823TIP3    H141960   5.047   3.315   3.810 -0.0023  2.0761  2.7167
 6823TIP3    H241961   4.926   3.358   3.728  0.8618 -0.3723  0.0011
 6824TIP3   OH241962   3.690   5.961   3.407 -0.4155 -0.1392  0.0810
 6824TIP3    H141963   3.760   5.912   3.364 -2.3948 -1.7011 -1.6243
 6824TIP3    H241964   3.681   5.920   3.493  0.4015 -0.2820  0.1051
 6825TIP3   OH241965   3.635   2.950  15.096 -0.1752 -0.7680 -0.1468
 6825TIP3    H141966   3.581   3.003  15.156  0.3157 -0.8505  0.3753
 6825TIP3    H241967   3.572   2.912  15.035 -0.6133 -0.1474 -0.0937
 6826TIP3   OH241968   2.314   2.217   3.968  0.7657 -0.0833  0.1861
 6826TIP3    H141969   2.354   2.301   3.991  1.2647 -0.3102  0.1506
 6826TIP3    H241970   2.301   2.222   3.873 -0.4439  0.4817  0.3526
 6827TIP3   OH241971   6.442   5.077   0.106  0.1727 -0.1649 -0.2299
 6827TIP3    H141972   6.369   5.028   0.068 -0.0947 -1.0660  1.3306
 6827TIP3    H241973   6.517   5.018   0.099  0.8233  0.8188 -1.9667
 6828TIP3   OH241974   3.155   2.412  15.511  1.2481 -0.6361 -0.0545
 6828TIP3    H141975   3.228   2.451  15.558  2.0580 -2.1438  0.0110
 6828TIP3    H241976   3.117   2.484  15.460  0.3738  1.0661  2.7691
 6829TIP3   OH241977   6.053   5.488   6.215 -0.7895 -1.2604  0.0765
 6829TIP3    H141978   6.088   5.472   6.302  0.6099 -2.4788 -0.6610
 6829TIP3    H241979   5.967   5.527   6.230 -0.2028 -0.5927  1.9765
 6830TIP3   OH241980   1.093   3.043   1.178 -0.5552 -0.4337 -0.0608
 6830TIP3    H141981   1.085   2.948   1.181 -1.0664 -0.4150 -0.6261
 6830TIP3    H241982   1.072   3.071   1.267 -1.2931 -0.7962 -0.1138
 6831TIP3   OH241983   3.489   4.867  13.921  0.0128 -0.0157 -0.0910
 6831TIP3    H141984   3.399   4.866  13.888 -0.2234 -1.0302  0.5438
 6831TIP3    H241985   3.479   4.851  14.015  0.7152  2.0407  0.3983
 6832TIP3   OH241986   5.510   4.393  16.176  0.0649 -0.2381  0.0888
 6832TIP3    H141987   5.485   4.458  16.242  0.1991  1.0988 -1.1070
 6832TIP3    H241988   5.427   4.361  16.141 -0.0098  0.1161 -0.0669
 6833TIP3   OH241989   1.874   0.246   3.471 -0.8375  0.0409 -0.2884
 6833TIP3    H141990   1.929   0.201   3.535  2.5487  2.7567 -0.9327
 6833TIP3    H241991   1.817   0.303   3.523 -2.2554 -1.8832  0.3616
 6834TIP3   OH241992   3.564   3.188  11.311 -0.0585 -0.2004 -0.5622
 6834TIP3    H141993   3.559   3.218  11.402 -3.1111 -2.4596  0.1443
 6834TIP3    H241994   3.521   3.258  11.261 -1.1131 -0.3099  0.1596
 6835TIP3   OH241995   0.683   1.857  16.936 -0.0735  0.1821  0.5793
 6835TIP3    H141996   0.676   1.766  16.909  1.9390  0.5024 -1.3227
 6835TIP3    H241997   0.765   1.861  16.985  0.4949  1.1525 -0.4013
 6836TIP3   OH241998   0.057   4.365   3.657  0.0054  0.8642 -0.5259
 6836TIP3    H141999   0.034   4.427   3.588  0.6656  1.1375 -0.5164
 6836TIP3    H242000   0.041   4.279   3.619 -0.7427  1.0339 -0.6066
 6837TIP3   OH242001   3.229   6.043   4.326  0.5126 -0.0905  0.0806
 6837TIP3    H142002   3.262   6.072   4.241  2.3091  0.7191  1.0012
 6837TIP3    H242003   3.168   6.112   4.353  0.2673 -0.1350 -0.3532
 6838TIP3   OH242004   4.411   5.229  11.953 -0.1375 -0.1672 -0.0837
 6838TIP3    H142005   4.475   5.222  12.024 -0.2507 -0.7423 -0.0326
 6838TIP3    H242006   4.361   5.147  11.958 -0.4607  0.0022 -0.5221
 6839TIP3   OH242007   3.669   2.504   0.996  0.5110  0.2358  0.1036
 6839TIP3    H142008   3.574   2.498   1.008  0.6366 -3.7206  0.3994
 6839TIP3    H242009   3.704   2.509   1.085  0.5904 -2.4450  0.3110
 6840TIP3   OH242010   1.762   3.696   1.385  0.7913  0.0906  0.3421
 6840TIP3    H142011   1.825   3.764   1.409  0.5583 -0.2071  1.9610
 6840TIP3    H242012   1.744   3.651   1.468 -0.1154 -1.0398 -0.4442
 6841TIP3   OH242013   6.172   0.081   5.437  0.6900  0.0594  0.1099
 6841TIP3    H142014   6.109   0.076   5.366  0.2710  1.6123  0.3309
 6841TIP3    H242015   6.250   0.037   5.404  0.1657 -0.1099 -0.9238
 6842TIP3   OH242016   5.695   2.462  17.208 -0.5437  0.3335 -0.4510
 6842TIP3    H142017   5.771   2.431  17.257 -0.8763 -1.3488 -0.9299
 6842TIP3    H242018   5.622   2.413  17.244 -1.1374  0.7359 -1.0912
 6843TIP3   OH242019   2.782   0.812   0.751  0.1788 -0.3476  0.0623
 6843TIP3    H142020   2.774   0.719   0.729 -0.4568 -0.7094  1.6675
 6843TIP3    H242021   2.872   0.835   0.727 -0.0923 -0.9849 -1.6691
 6844TIP3   OH242022   3.589   3.899  12.133  0.6652 -0.1369 -0.0432
 6844TIP3    H142023   3.678   3.896  12.166  0.4480  0.0733  0.5749
 6844TIP3    H242024   3.587   3.976  12.075  0.6643  0.3761  0.6232
 6845TIP3   OH242025   5.667   6.443   4.423 -0.0982  0.2929 -0.0011
 6845TIP3    H142026   5.723   6.512   4.388  0.1941  0.1707  0.2214
 6845TIP3    H242027   5.608   6.421   4.350  2.7197 -2.3802 -1.7137
 6846TIP3   OH242028   5.370   2.172   2.044  0.1658 -0.6608 -0.3664
 6846TIP3    H142029   5.304   2.127   1.991  0.1179 -1.8695  0.6720
 6846TIP3    H242030   5.357   2.137   2.132  1.3934 -0.0000  0.0890
 6847TIP3   OH242031   5.167   5.823  12.372 -0.2335  0.0564  0.5035
 6847TIP3    H142032   5.112   5.764  12.424  0.5049  0.2616  1.5505
 6847TIP3    H242033   5.229   5.859  12.435  1.7044 -0.8567 -0.7943
 6848TIP3   OH242034   1.829   5.426  12.664  0.2228 -0.7095 -0.3698
 6848TIP3    H142035   1.798   5.484  12.594  2.1395  0.6212 -0.1855
 6848TIP3    H242036   1.885   5.481  12.718  1.8060 -2.6134  0.0599
 6849TIP3   OH242037   0.781   2.077  11.842  0.0978 -0.2345 -0.4963
 6849TIP3    H142038   0.763   2.135  11.768  1.0542  2.2445  1.0822
 6849TIP3    H242039   0.695   2.050  11.874 -0.5531  2.6014  0.3681
 6850TIP3   OH242040   2.517   4.986   5.212 -0.0529  0.4627 -0.2847
 6850TIP3    H142041   2.559   4.901   5.201 -1.8698 -0.3707 -1.1761
 6850TIP3    H242042   2.584   5.049   5.185  0.8045 -0.7785 -1.1972
 6851TIP3   OH242043   4.757   3.421   0.215 -0.0237  0.8124 -0.0483
 6851TIP3    H142044   4.837   3.424   0.268  0.3015  1.4805 -0.5564
 6851TIP3    H242045   4.694   3.472   0.265  0.2358  1.3078 -0.2184
 6852TIP3   OH242046   2.934   1.630  14.653 -0.0344  0.2823 -0.6419
 6852TIP3    H142047   2.890   1.613  14.737 -0.5573  0.3573 -0.8955
 6852TIP3    H242048   2.865   1.667  14.597  0.7167  1.8525 -0.5768
 6853TIP3   OH242049   1.142   3.349   4.025 -0.0658  0.3330  0.0517
 6853TIP3    H142050   1.158   3.324   4.116 -0.1230  0.3889  0.0778
 6853TIP3    H242051   1.111   3.269   3.983  1.0343  0.0293 -0.1933
 6854TIP3   OH242052   4.996   0.549  10.742 -0.2721  0.2559  0.2697
 6854TIP3    H142053   5.031   0.600  10.669  0.5108  0.2731  0.6387
 6854TIP3    H242054   4.933   0.489  10.703  0.0835  0.3211 -0.4089
 6855TIP3   OH242055   2.135   1.046  11.099 -0.1964 -0.8422  0.2845
 6855TIP3    H142056   2.053   1.090  11.079  0.1845  0.2003  0.9389
 6855TIP3    H242057   2.135   0.969  11.042 -0.1287  0.8322 -2.1334
 6856TIP3   OH242058   3.955   0.467  12.456  0.1451  0.2775 -0.4201
 6856TIP3    H142059   3.998   0.476  12.541 -0.0261 -0.3212 -0.2635
 6856TIP3    H242060   3.995   0.389  12.417 -1.0553 -0.5356 -0.1006
 6857TIP3   OH242061   5.388   1.169  16.123 -0.2785 -0.9415 -0.3573
 6857TIP3    H142062   5.395   1.222  16.043 -0.5020  0.1079  0.3084
 6857TIP3    H242063   5.294   1.153  16.133 -0.1690 -1.9855 -0.8772
 6858TIP3   OH242064   5.146   5.102   2.976 -0.6614 -0.2156 -0.0744
 6858TIP3    H142065   5.241   5.111   2.970 -0.5257 -1.9908 -1.0018
 6858TIP3    H242066   5.112   5.165   2.912 -0.0606 -0.3804 -0.5676
 6859TIP3   OH242067   0.513   1.928   3.235  0.4877  0.2407 -0.0104
 6859TIP3    H142068   0.602   1.938   3.270  0.6242  1.9840 -0.7508
 6859TIP3    H242069   0.507   1.994   3.165 -2.1497  1.8167  1.5518
 6860TIP3   OH242070   6.665   3.029  14.918  0.3103 -0.1012 -0.0275
 6860TIP3    H142071   6.608   3.094  14.877  0.1889 -0.0336  0.2519
 6860TIP3    H242072   6.606   2.959  14.945  0.3513  0.0073  0.3369
 6861TIP3   OH242073   2.314   5.035   3.398 -0.5673  0.3325  0.1368
 6861TIP3    H142074   2.236   4.979   3.400 -0.8855  0.7902  1.1026
 6861TIP3    H242075   2.355   5.023   3.483  0.0335  0.6339 -0.1037
 6862TIP3   OH242076   5.930   0.382   3.555  0.1864  0.1424  0.1803
 6862TIP3    H142077   5.987   0.455   3.531 -0.8713  0.6768 -0.7884
 6862TIP3    H242078   5.849   0.423   3.584  0.1365 -0.6230  1.1808
 6863TIP3   OH242079   6.799   2.020   2.881 -0.4373  0.2464 -0.1802
 6863TIP3    H142080   6.875   2.057   2.835 -0.5385  1.4294  0.5448
 6863TIP3    H242081   6.833   1.942   2.925  0.1519  0.2811 -0.5589
 6864TIP3   OH242082   3.817   4.987  13.715  0.0018 -0.1754  0.2369
 6864TIP3    H142083   3.906   5.007  13.746 -0.4295  2.5727 -0.0381
 6864TIP3    H242084   3.820   5.010  13.622 -0.8617 -0.6066  0.1022
 6865TIP3   OH242085   5.120   1.302  15.675 -0.1605  0.3091  0.6648
 6865TIP3    H142086   5.140   1.276  15.585 -2.5140 -0.3589  0.2619
 6865TIP3    H242087   5.159   1.234  15.729  0.5527  0.2628  0.1060
 6866TIP3   OH242088   4.988   2.981   2.003  0.4648  0.0923 -0.5687
 6866TIP3    H142089   5.025   3.062   1.968  0.2833 -0.1489 -1.3343
 6866TIP3    H242090   5.056   2.915   1.991  0.7926  0.2256  0.4898
 6867TIP3   OH242091   3.368   1.322  12.451 -0.2892  0.0478 -0.6694
 6867TIP3    H142092   3.356   1.416  12.466 -1.7074 -0.1575 -0.3851
 6867TIP3    H242093   3.420   1.317  12.371  1.7709  1.0899  0.5217
 6868TIP3   OH242094   2.875   2.146   5.831  0.1623  0.1892 -0.7060
 6868TIP3    H142095   2.904   2.205   5.900 -0.4198  0.8460 -1.0200
 6868TIP3    H242096   2.794   2.184   5.798 -0.3224 -0.8745 -0.7996
 6869TIP3   OH242097   1.169   0.300  13.648 -0.7328 -0.0528  0.2418
 6869TIP3    H142098   1.178   0.306  13.743 -0.1994 -1.3520  0.2932
 6869TIP3    H242099   1.170   0.206  13.630 -3.8466 -0.0135 -0.7744
 6870TIP3   OH242100   4.307   6.078   1.705 -0.0352 -0.0962  0.4323
 6870TIP3    H142101   4.331   5.998   1.658 -0.6010  0.1442 -0.2775
 6870TIP3    H242102   4.320   6.055   1.798  0.7732 -0.6755  0.1878
 6871TIP3   OH242103   1.372   1.824  11.132  0.0346  0.5938 -0.0435
 6871TIP3    H142104   1.401   1.915  11.136  1.1508  0.2675 -0.2272
 6871TIP3    H242105   1.295   1.820  11.189  0.3756  1.5050  0.4954
 6872TIP3   OH242106   4.327   2.756  14.454  0.3091 -0.4995 -0.5084
 6872TIP3    H142107   4.348   2.666  14.479  1.2607  0.0642  0.8638
 6872TIP3    H242108   4.406   2.806  14.473 -0.6811  0.8806  0.2082
 6873TIP3   OH242109   6.517   4.218  12.831 -0.7380 -0.0612  0.6835
 6873TIP3    H142110   6.537   4.172  12.912 -1.3676  0.7213  1.3017
 6873TIP3    H242111   6.471   4.154  12.777  0.8354 -0.9893  0.3976
 6874TIP3   OH242112   1.117   5.968  11.762  0.0392  0.2383  0.0132
 6874TIP3    H142113   1.067   5.961  11.843 -0.1361  1.0910 -0.0180
 6874TIP3    H242114   1.061   5.925  11.696  0.0918 -0.2746  0.3030
 6875TIP3   OH242115   0.318   3.408   4.308 -0.4961 -0.1020  0.3324
 6875TIP3    H142116   0.266   3.327   4.310 -0.5863 -0.0594 -0.1261
 6875TIP3    H242117   0.253   3.478   4.303 -0.4215 -0.1144 -2.2803
 6876TIP3   OH242118   5.691   2.944  13.894 -0.1833  0.2276 -0.9941
 6876TIP3    H142119   5.740   3.026  13.891 -0.8488  0.6204 -1.2427
 6876TIP3    H242120   5.613   2.960  13.841 -1.1682 -0.0096  0.3369
 6877TIP3   OH242121   1.894   0.217  17.263 -0.0432  0.4535  0.5409
 6877TIP3    H142122   1.978   0.188  17.228  0.4288  1.2217  1.0184
 6877TIP3    H242123   1.830   0.187  17.198  0.4904 -0.9490  0.6310
 6878TIP3   OH242124   1.701   5.023   2.704 -0.3804  0.2715  0.9650
 6878TIP3    H142125   1.626   4.968   2.681 -0.6873  0.9877  0.1741
 6878TIP3    H242126   1.771   4.994   2.645  0.1584 -0.7773  2.0851
 6879TIP3   OH242127   4.431   4.256  16.403 -0.2182 -0.4446 -0.0377
 6879TIP3    H142128   4.411   4.165  16.380  1.9747 -0.7573 -0.9811
 6879TIP3    H242129   4.417   4.261  16.498 -0.8167 -1.6129 -0.0497
 6880TIP3   OH242130   2.793   1.291   3.254  0.3359 -0.0751 -0.3147
 6880TIP3    H142131   2.740   1.371   3.247 -0.3046 -0.0339  3.1734
 6880TIP3    H242132   2.848   1.305   3.330  0.7963 -2.6502 -0.0776
 6881TIP3   OH242133   2.928   4.452  13.398  0.9758 -0.2444 -0.0621
 6881TIP3    H142134   2.946   4.520  13.332  0.4631  0.2422  0.2905
 6881TIP3    H242135   2.959   4.490  13.480  0.0453 -0.1294  0.2535
 6882TIP3   OH242136   2.160   5.399  15.338 -0.3288  0.1664  0.2265
 6882TIP3    H142137   2.112   5.323  15.370 -0.8820  0.3183 -0.2248
 6882TIP3    H242138   2.232   5.410  15.401  1.7888 -2.6939 -1.4335
 6883TIP3   OH242139   3.127   5.107   0.701 -0.3765  0.5674 -0.9442
 6883TIP3    H142140   3.081   5.179   0.657  0.6867  1.2060 -1.0504
 6883TIP3    H242141   3.090   5.105   0.789  0.0806  1.7383 -0.7025
 6884TIP3   OH242142   1.026   2.270   4.957  0.1496  0.0975  1.0583
 6884TIP3    H142143   1.009   2.333   5.027  0.1595  0.0024  1.1464
 6884TIP3    H242144   1.116   2.240   4.973  0.4073  0.6161  0.5785
 6885TIP3   OH242145   4.382   4.545  15.940 -0.1442 -0.3602  0.1677
 6885TIP3    H142146   4.471   4.580  15.936 -0.6210  1.0168  1.0395
 6885TIP3    H242147   4.367   4.526  16.033 -0.5929 -1.0947 -0.0403
 6886TIP3   OH242148   0.941   5.417   5.924 -0.1089  0.2062  0.0515
 6886TIP3    H142149   0.873   5.390   5.986 -1.0972  1.6169 -0.3742
 6886TIP3    H242150   0.993   5.338   5.911 -1.0859 -0.6640  1.1251
 6887TIP3   OH242151   6.082   4.469  16.593 -0.0642 -0.0073  0.2804
 6887TIP3    H142152   6.047   4.396  16.542 -3.7120  0.2388  2.0672
 6887TIP3    H242153   6.106   4.430  16.677 -0.3969  0.5247  0.6303
 6888TIP3   OH242154   1.314   4.841  13.002  0.1879 -0.1870  0.1636
 6888TIP3    H142155   1.380   4.795  12.949 -1.4718 -1.6918 -0.7151
 6888TIP3    H242156   1.244   4.861  12.940  0.3613  2.6804  0.7572
 6889TIP3   OH242157   6.610   5.907  17.314 -0.2727  0.4937 -0.1976
 6889TIP3    H142158   6.592   5.818  17.284 -0.9045  0.6749 -0.3721
 6889TIP3    H242159   6.694   5.901  17.360 -0.6525 -0.3351  0.4069
 6890TIP3   OH242160   3.809   2.051  15.630 -1.0967  0.8909  0.2847
 6890TIP3    H142161   3.762   2.125  15.671 -2.8668  0.6229 -1.1318
 6890TIP3    H242162   3.752   1.976  15.645  0.7034 -0.2654  1.7445
 6891TIP3   OH242163   4.630   2.348   1.403  0.4742  0.0611  0.1211
 6891TIP3    H142164   4.690   2.303   1.463  1.5346 -0.4151 -1.2539
 6891TIP3    H242165   4.676   2.429   1.380  0.3945 -0.0862 -0.5801
 6892TIP3   OH242166   5.081   6.674  11.098 -0.3378 -0.1780 -0.0153
 6892TIP3    H142167   5.167   6.685  11.055 -0.2054  1.2104  0.5605
 6892TIP3    H242168   5.040   6.761  11.092 -1.4115 -0.6471  0.3537
 6893TIP3   OH242169   1.889   2.743  16.586 -0.6305  0.2117 -0.2976
 6893TIP3    H142170   1.886   2.674  16.519  1.8485 -1.0004  0.7503
 6893TIP3    H242171   1.951   2.711  16.651  1.0958  3.7122 -0.0490
 6894TIP3   OH242172   6.531   5.915  12.624 -0.2823 -0.2861  0.0485
 6894TIP3    H142173   6.466   5.902  12.693 -0.7088  0.1300 -0.2686
 6894TIP3    H242174   6.528   6.009  12.605 -1.7848 -0.6939 -2.0872
 6895TIP3   OH242175   5.932   2.978  17.168  0.5652  0.5384 -0.6360
 6895TIP3    H142176   5.875   2.987  17.092 -0.6967 -0.0075  0.2072
 6895TIP3    H242177   5.901   2.898  17.211  1.0694  0.9893  0.6010
 6896TIP3   OH242178   6.253   2.765   4.963  0.7992  0.3866 -0.4852
 6896TIP3    H142179   6.332   2.716   4.983  0.9321  0.8693  0.2195
 6896TIP3    H242180   6.237   2.817   5.042 -0.4426 -0.0055 -0.4573
 6897TIP3   OH242181   0.397   3.444  11.402  0.3680  0.5713 -0.0432
 6897TIP3    H142182   0.395   3.390  11.481  0.7178  3.3813  2.0417
 6897TIP3    H242183   0.482   3.488  11.404 -0.6074  2.6017 -0.5913
 6898TIP3   OH242184   5.302   5.319  17.004  0.2461 -0.2554 -0.1632
 6898TIP3    H142185   5.307   5.296  16.911 -0.5476  0.4215 -0.3861
 6898TIP3    H242186   5.252   5.401  17.006  1.1100  0.2780  0.7826
 6899TIP3   OH242187   0.362   6.558  15.244  0.1626  0.1681 -0.0978
 6899TIP3    H142188   0.366   6.558  15.339 -0.4689  0.0752 -0.0733
 6899TIP3    H242189   0.433   6.498  15.218  0.4774  0.3607  0.3003
 6900TIP3   OH242190   6.294   4.180   2.568 -0.4781 -0.1474 -0.7181
 6900TIP3    H142191   6.359   4.207   2.632 -0.1195 -1.4291 -0.5081
 6900TIP3    H242192   6.231   4.128   2.619 -2.2509  1.8783 -0.7180
 6901TIP3   OH242193   4.546   2.242   5.680  0.1970 -0.2245  0.1533
 6901TIP3    H142194   4.629   2.218   5.638  0.0566  0.2805 -0.4316
 6901TIP3    H242195   4.556   2.213   5.770  0.7904 -0.6877 -0.0484
 6902TIP3   OH242196   6.466   0.422   0.256  0.2989  0.1010  1.0411
 6902TIP3    H142197   6.521   0.501   0.255  0.8769 -0.1875  3.4784
 6902TIP3    H242198   6.497   0.371   0.181 -0.0919  2.1312 -0.6056
 6903TIP3   OH242199   5.479   1.907  11.586  0.0261 -0.1245  0.1022
 6903TIP3    H142200   5.401   1.963  11.592  0.2503  0.6152 -2.5317
 6903TIP3    H242201   5.551   1.968  11.576  0.6830 -0.8535  0.3154
 6904TIP3   OH242202   5.125   3.489  14.603  0.5436  0.1155  0.0300
 6904TIP3    H142203   5.133   3.510  14.696  0.1401 -0.7620  0.2748
 6904TIP3    H242204   5.157   3.567  14.558 -0.3240  1.0028  0.8912
 6905TIP3   OH242205   0.350   0.154  15.832  0.4148 -0.1821 -0.3950
 6905TIP3    H142206   0.317   0.243  15.824 -1.2045 -0.2233  3.4782
 6905TIP3    H242207   0.433   0.164  15.880 -0.2446 -0.7676  0.8991
 6906TIP3   OH242208   2.015   4.777   4.098  0.1562  0.2173 -0.4980
 6906TIP3    H142209   1.980   4.817   4.177 -2.0452 -1.5677 -0.4973
 6906TIP3    H242210   1.951   4.798   4.030 -0.0510 -1.5832 -0.9039
 6907TIP3   OH242211   4.942   3.580   3.456  0.5846  0.3827  0.2375
 6907TIP3    H142212   4.896   3.603   3.375  0.0275 -0.1744  0.3888
 6907TIP3    H242213   4.974   3.491   3.442  0.5885  0.3270  0.5790
 6908TIP3   OH242214   1.264   4.348  15.077  0.4487 -0.1813 -0.0271
 6908TIP3    H142215   1.351   4.311  15.088  0.5554  0.2996  0.8111
 6908TIP3    H242216   1.213   4.312  15.150  0.2298  0.3656  0.0918
 6909TIP3   OH242217   0.221   0.437   4.648 -0.3595  0.1632  0.9297
 6909TIP3    H142218   0.146   0.484   4.684 -1.9816 -2.1056  0.7726
 6909TIP3    H242219   0.220   0.458   4.555 -0.5721  0.4683  1.0015
 6910TIP3   OH242220   1.267   3.209   2.811 -0.1319  0.3554 -0.2760
 6910TIP3    H142221   1.301   3.156   2.882  1.6936  1.8630  0.0689
 6910TIP3    H242222   1.257   3.297   2.849 -0.0936  0.9659 -1.6062
 6911TIP3   OH242223   5.777   5.380   2.098 -0.1041 -0.0590  0.2335
 6911TIP3    H142224   5.820   5.380   2.184  0.5423  2.5495 -0.0029
 6911TIP3    H242225   5.835   5.432   2.042 -0.1221 -2.2925 -2.0632
 6912TIP3   OH242226   4.077   3.891  14.333 -0.0126  0.6085  0.0417
 6912TIP3    H142227   4.022   3.958  14.375 -0.2512  1.6918 -1.8675
 6912TIP3    H242228   4.117   3.936  14.259  1.0708 -0.9809 -0.3878
 6913TIP3   OH242229   2.314   4.729   6.427  0.8219  0.0782  0.5817
 6913TIP3    H142230   2.257   4.772   6.490  0.6157  1.0985 -0.2655
 6913TIP3    H242231   2.253   4.690   6.364  1.0348 -0.4585  0.7044
 6914TIP3   OH242232   6.531   2.632  13.531 -0.3985  0.5169 -0.0660
 6914TIP3    H142233   6.562   2.552  13.490  0.4172  1.4788 -1.4051
 6914TIP3    H242234   6.544   2.700  13.465 -0.7086  1.8268  1.1616
 6915TIP3   OH242235   0.348   2.295  16.680  0.3955 -0.5994  0.2851
 6915TIP3    H142236   0.324   2.276  16.771  0.9060 -1.6543  0.2163
 6915TIP3    H242237   0.330   2.388  16.670 -1.7535 -0.9076  0.8198
 6916TIP3   OH242238   5.585   2.859   3.243  0.2458 -0.9261 -0.2426
 6916TIP3    H142239   5.501   2.832   3.282  0.0219 -1.3932 -1.0095
 6916TIP3    H242240   5.651   2.814   3.296 -0.0295 -1.2319 -0.1532
 6917TIP3   OH242241   2.304   3.792   1.830 -0.2792 -0.3716  0.1441
 6917TIP3    H142242   2.258   3.875   1.817  1.5753  0.8595  0.9357
 6917TIP3    H242243   2.241   3.725   1.805 -1.3319  1.3142 -2.0384
 6918TIP3   OH242244   6.608   4.832  15.951 -0.1398  0.0072 -0.0960
 6918TIP3    H142245   6.642   4.919  15.930 -0.6540  0.2491  0.0429
 6918TIP3    H242246   6.513   4.845  15.959 -0.1043 -0.3301  1.0832
 6919TIP3   OH242247   3.130   3.902   0.662  0.4076  0.3841  0.3103
 6919TIP3    H142248   3.076   3.829   0.690  0.3828 -0.5077 -1.8939
 6919TIP3    H242249   3.068   3.974   0.650 -0.0658 -0.1680 -0.6350
 6920TIP3   OH242250   4.574   1.568   3.616 -0.0207 -0.0023  0.5552
 6920TIP3    H142251   4.531   1.484   3.600 -2.1218  0.8532  1.4426
 6920TIP3    H242252   4.503   1.632   3.617  1.5452  1.8416 -0.2597
 6921TIP3   OH242253   4.928   4.497  14.554  0.4893 -0.2185  0.1100
 6921TIP3    H142254   4.900   4.420  14.504 -0.6239  1.3398 -1.7953
 6921TIP3    H242255   5.009   4.524  14.511  1.9327 -1.3742  1.9879
 6922TIP3   OH242256   6.489   2.404   5.528 -0.3104  0.4239 -0.3492
 6922TIP3    H142257   6.421   2.349   5.489  0.0899 -0.6105  0.3595
 6922TIP3    H242258   6.442   2.462   5.588 -1.1252  3.0168 -3.2309
 6923TIP3   OH242259   1.808   6.061  11.438  0.0322 -0.5097 -0.0653
 6923TIP3    H142260   1.895   6.025  11.422  0.2805  0.1066 -0.1379
 6923TIP3    H242261   1.807   6.143  11.387 -1.0580 -1.1650 -1.1543
 6924TIP3   OH242262   2.198   5.743   1.838 -0.0364  0.1545  0.0432
 6924TIP3    H142263   2.231   5.695   1.762  1.4985  1.5581 -0.2278
 6924TIP3    H242264   2.103   5.727   1.836  0.2285 -1.6565 -0.8407
 6925TIP3   OH242265   2.269   6.014   0.197 -0.2152 -0.1336 -0.0255
 6925TIP3    H142266   2.268   5.976   0.109  1.0346 -1.1104  0.3465
 6925TIP3    H242267   2.181   5.998   0.230 -0.4393 -0.5442 -0.7820
 6926TIP3   OH242268   1.375   2.680  12.932  0.7261 -0.1939  0.1076
 6926TIP3    H142269   1.453   2.640  12.970  1.2116 -1.0756 -1.6981
 6926TIP3    H242270   1.380   2.658  12.839 -0.8256  1.1508 -0.3354
 6927TIP3   OH242271   0.013   6.257   3.337 -0.4264  0.0219  0.4554
 6927TIP3    H142272   0.046   6.343   3.366  0.3678  0.0176 -0.4151
 6927TIP3    H242273   0.086   6.218   3.290 -0.8918 -1.0142  0.5797
 6928TIP3   OH242274   4.881   3.459   4.346 -0.0484  0.0926  0.0637
 6928TIP3    H142275   4.803   3.407   4.326 -1.2197  1.5237  0.6544
 6928TIP3    H242276   4.898   3.510   4.267  0.7330 -0.7186 -0.3067
 6929TIP3   OH242277   6.766   3.025  14.195  0.4119 -0.1810  0.2665
 6929TIP3    H142278   6.721   2.972  14.129  0.6203 -1.5868  1.1934
 6929TIP3    H242279   6.822   2.962  14.241 -0.1363  0.6313  2.1246
 6930TIP3   OH242280   6.421   6.428  12.124 -0.2062  0.1962 -0.0216
 6930TIP3    H142281   6.473   6.494  12.078 -1.2178  1.9171  1.2262
 6930TIP3    H242282   6.419   6.354  12.064  1.0221  1.2505 -1.4386
 6931TIP3   OH242283   0.995   3.142  13.901  0.1474  0.7398 -0.0432
 6931TIP3    H142284   1.032   3.179  13.981 -0.8552  0.7553  0.4273
 6931TIP3    H242285   0.945   3.066  13.931  1.3846 -0.4510 -0.8810
 6932TIP3   OH242286   1.374   5.983  10.658 -0.3623  0.7837  0.5296
 6932TIP3    H142287   1.403   5.997  10.568 -0.0835 -0.9845  0.3035
 6932TIP3    H242288   1.296   5.929  10.650  0.6887 -0.9584  1.3528
 6933TIP3   OH242289   6.057   5.092   3.356 -0.0593  0.2166 -0.1354
 6933TIP3    H142290   6.044   5.017   3.414 -1.7712  1.2529  0.8973
 6933TIP3    H242291   6.140   5.074   3.312 -0.1219 -1.9799  0.5235
 6934TIP3   OH242292   4.064   2.118   4.362  0.4222  0.1560  0.3860
 6934TIP3    H142293   4.133   2.053   4.376  0.6286  0.5714  1.3375
 6934TIP3    H242294   4.069   2.176   4.438  1.2528  2.2299 -1.1527
 6935TIP3   OH242295   3.184   6.166   6.107 -0.7187 -0.6809 -0.3387
 6935TIP3    H142296   3.198   6.090   6.050  2.3802 -0.6004  0.1366
 6935TIP3    H242297   3.228   6.238   6.062  1.7553 -0.5973  1.9647
 6936TIP3   OH242298   6.016   1.524  13.412 -0.3126  0.1594  0.4860
 6936TIP3    H142299   5.994   1.617  13.409  0.3259  0.2905 -1.5821
 6936TIP3    H242300   5.981   1.489  13.331 -0.3160 -1.3692  1.1235
 6937TIP3   OH242301   3.521   2.396   0.754  0.5474 -0.0635  0.2234
 6937TIP3    H142302   3.550   2.483   0.726 -0.8455  0.1696 -0.5832
 6937TIP3    H242303   3.480   2.410   0.839  0.7587 -0.0197  0.3187
 6938TIP3   OH242304   0.250   3.362   1.733 -0.0604  0.0090  0.3963
 6938TIP3    H142305   0.341   3.352   1.705  0.0575  0.5294  0.5816
 6938TIP3    H242306   0.208   3.280   1.707  0.6083 -0.5117  0.8928
 6939TIP3   OH242307   4.199   3.988   3.506 -0.1834  0.0182 -0.1858
 6939TIP3    H142308   4.201   3.894   3.527  0.5051 -0.1599 -1.0356
 6939TIP3    H242309   4.232   4.030   3.585 -2.2906 -0.2923  0.9561
 6940TIP3   OH242310   4.182   3.271   1.077 -0.6763 -0.4213 -0.2493
 6940TIP3    H142311   4.214   3.188   1.041  0.6959  0.6492 -1.6665
 6940TIP3    H242312   4.261   3.317   1.104 -1.0631  1.5854 -2.1922
 6941TIP3   OH242313   6.521   4.612  15.228  0.3278 -0.5005  0.0161
 6941TIP3    H142314   6.482   4.655  15.304  0.2208  0.0040 -0.3151
 6941TIP3    H242315   6.448   4.568  15.185  0.3215 -0.4807  0.0062
 6942TIP3   OH242316   0.897   3.900   4.132  0.0104 -0.2370  0.1040
 6942TIP3    H142317   0.884   3.979   4.078 -0.9047  0.7089  1.6348
 6942TIP3    H242318   0.911   3.934   4.220 -1.4694 -1.8104  0.9967
 6943TIP3   OH242319   5.443   6.631  11.652  0.0530 -0.3773 -0.2569
 6943TIP3    H142320   5.355   6.598  11.672 -0.6096  1.8774  0.8821
 6943TIP3    H242321   5.495   6.612  11.729 -0.3934  1.2619  0.5060
 6944TIP3   OH242322   5.706   3.687  12.178  0.1643  0.4477 -0.4721
 6944TIP3    H142323   5.771   3.678  12.108  0.1327  0.2673 -0.4798
 6944TIP3    H242324   5.636   3.627  12.152  0.5072 -0.2314  0.1191
 6945TIP3   OH242325   5.360   5.870  15.332  0.1891  0.1659 -0.2937
 6945TIP3    H142326   5.434   5.871  15.271  0.7075  0.2769  0.3284
 6945TIP3    H242327   5.294   5.817  15.288  1.1899 -1.2074 -0.2174
 6946TIP3   OH242328   4.114   5.843  11.526 -0.0117  0.6381  0.0831
 6946TIP3    H142329   4.039   5.788  11.504 -0.3299  1.2475 -0.3584
 6946TIP3    H242330   4.080   5.932  11.525  1.1518  1.1090 -2.0951
 6947TIP3   OH242331   2.523   3.444  15.528  0.1889 -0.2882  0.6493
 6947TIP3    H142332   2.516   3.357  15.489  0.8331  0.2437 -0.7030
 6947TIP3    H242333   2.509   3.504  15.455 -1.3504  0.7752  1.7664
 6948TIP3   OH242334   4.331   0.343   3.000 -0.4597  0.3030  0.4575
 6948TIP3    H142335   4.374   0.427   2.984 -1.5636  0.7168 -0.6108
 6948TIP3    H242336   4.298   0.349   3.089 -0.7333  1.1302  0.3128
 6949TIP3   OH242337   3.131   4.070  15.302  0.1532 -0.1915 -0.7626
 6949TIP3    H142338   3.036   4.059  15.301 -0.0861  1.4282 -0.0652
 6949TIP3    H242339   3.165   3.986  15.333 -1.0527 -0.7707 -0.9454
 6950TIP3   OH242340   6.715   3.487  14.355 -0.3803 -0.4285 -0.5160
 6950TIP3    H142341   6.777   3.428  14.313 -0.3881  0.6863 -2.1659
 6950TIP3    H242342   6.635   3.478  14.304  0.3133  2.7303 -2.3930
 6951TIP3   OH242343   0.422   6.543   2.059  0.0625 -0.6110 -0.1288
 6951TIP3    H142344   0.422   6.579   1.970  0.2910  1.3425  0.6076
 6951TIP3    H242345   0.337   6.567   2.094  0.7726  0.5634  0.8708
 6952TIP3   OH242346   5.148   2.515  12.430  0.1331  0.0291 -0.2438
 6952TIP3    H142347   5.118   2.582  12.492 -1.0837  0.1660 -0.9602
 6952TIP3    H242348   5.161   2.437  12.484  1.2067  0.7139  0.5364
 6953TIP3   OH242349   0.082   1.344  14.022 -0.2785 -0.4941  0.6962
 6953TIP3    H142350  -0.010   1.354  13.998 -0.0667 -0.9188 -0.3394
 6953TIP3    H242351   0.127   1.414  13.976  0.2262 -1.7449 -0.7973
 6954TIP3   OH242352   4.081   1.954  15.679 -0.2327  0.2442  0.1933
 6954TIP3    H142353   4.084   1.862  15.706 -1.1775 -0.1254 -0.8922
 6954TIP3    H242354   3.988   1.975  15.679 -0.0641  0.9957 -0.2757
 6955TIP3   OH242355   4.914   4.535   1.753  0.3981 -0.5374  0.1846
 6955TIP3    H142356   4.990   4.590   1.773  0.1646 -0.6416  1.4251
 6955TIP3    H242357   4.913   4.469   1.823 -1.0395 -0.3338  0.3809
 6956TIP3   OH242358   4.459   4.702   4.591 -0.3624  0.2633 -0.4986
 6956TIP3    H142359   4.477   4.609   4.581 -0.6734  0.2378 -0.8331
 6956TIP3    H242360   4.514   4.745   4.526  0.1686  0.3578  0.0004
 6957TIP3   OH242361   5.049   2.350   2.608 -0.5295  0.6409 -0.1595
 6957TIP3    H142362   5.070   2.341   2.515 -1.6777 -1.2029 -0.3075
 6957TIP3    H242363   5.062   2.262   2.644  1.3978  1.6417  1.8135
 6958TIP3   OH242364   0.191   1.649  16.315 -0.0039  0.5363 -0.0007
 6958TIP3    H142365   0.243   1.727  16.332 -0.1281  0.4459  0.8441
 6958TIP3    H242366   0.141   1.635  16.396 -1.0166  0.3745 -0.6419
 6959TIP3   OH242367   5.079   3.022  12.076  0.5943 -0.0220 -0.6601
 6959TIP3    H142368   5.033   2.939  12.075  0.3749  0.0919 -1.8626
 6959TIP3    H242369   5.080   3.048  12.168 -0.0255 -0.9638 -0.3730
 6960TIP3   OH242370   0.715   0.136  12.890 -0.5179 -0.6712 -0.2293
 6960TIP3    H142371   0.671   0.078  12.952 -1.8753 -0.6875 -1.1451
 6960TIP3    H242372   0.802   0.149  12.927 -1.1073 -1.0662  1.4093
 6961TIP3   OH242373   1.562   1.900   4.738 -0.3622 -0.4614 -0.2419
 6961TIP3    H142374   1.614   1.820   4.748 -0.6908 -0.6908 -0.3347
 6961TIP3    H242375   1.549   1.932   4.827 -0.7187 -0.8305 -0.1593
 6962TIP3   OH242376   2.973   5.880   6.751  0.0968 -0.2095  0.0682
 6962TIP3    H142377   2.903   5.819   6.724  1.0165 -1.1337 -0.3334
 6962TIP3    H242378   3.034   5.878   6.677  1.5887 -1.0686  1.2879
 6963TIP3   OH242379   4.270   1.209  16.911  0.7119  0.5236 -0.3530
 6963TIP3    H142380   4.290   1.281  16.852  0.7227  1.8115  1.1421
 6963TIP3    H242381   4.223   1.250  16.983 -0.3366 -1.1805 -0.0217
 6964TIP3   OH242382   5.127   1.250  16.913  0.0081 -0.1590  0.8140
 6964TIP3    H142383   5.174   1.215  16.837 -0.1587 -1.8450  1.4571
 6964TIP3    H242384   5.160   1.199  16.987 -0.1444  1.1779  1.8250
 6965TIP3   OH242385   2.426   4.973  16.956 -0.1945 -0.2285  0.0436
 6965TIP3    H142386   2.367   5.016  16.894 -0.2331 -0.3805 -0.0252
 6965TIP3    H242387   2.400   5.007  17.042  0.9870  1.3238 -0.1681
 6966TIP3   OH242388   2.262   1.694  14.875  0.0185  0.2104  0.8489
 6966TIP3    H142389   2.284   1.676  14.784 -1.6044 -0.8553  0.6290
 6966TIP3    H242390   2.218   1.615  14.906 -0.1167  0.8267  2.3423
 6967TIP3   OH242391   4.411   5.438   3.225 -0.2118  0.2585  0.0012
 6967TIP3    H142392   4.443   5.490   3.151  0.6929  0.0676  0.2460
 6967TIP3    H242393   4.462   5.357   3.221 -4.1571 -2.5055 -2.7343
 6968TIP3   OH242394   1.610   3.988   2.449 -0.0345 -0.2532  0.2909
 6968TIP3    H142395   1.570   4.074   2.461 -1.1893 -0.8245  0.6266
 6968TIP3    H242396   1.696   4.007   2.410  0.3548  1.1403  1.7260
 6969TIP3   OH242397   6.802   0.728  15.642 -0.2526  0.3890 -0.0116
 6969TIP3    H142398   6.852   0.713  15.722 -0.7081 -1.9547 -0.1174
 6969TIP3    H242399   6.713   0.747  15.672 -0.1881  0.5909  0.0545
 6970TIP3   OH242400   0.658   2.204   4.970 -0.3180 -0.3851  0.3698
 6970TIP3    H142401   0.678   2.119   4.931  0.1671 -0.6737  1.2162
 6970TIP3    H242402   0.579   2.234   4.925 -0.0562 -0.9283 -0.4655
 6971TIP3   OH242403   3.835   2.301   0.875 -0.1431 -0.2317  0.1730
 6971TIP3    H142404   3.811   2.243   0.946  0.7203 -0.6585  0.1277
 6971TIP3    H242405   3.794   2.385   0.897 -0.1875 -0.4624  0.9792
 6972TIP3   OH242406   4.440   1.062  14.177  0.1811 -0.6246  0.1389
 6972TIP3    H142407   4.450   1.129  14.109 -1.4069  1.0124  1.4283
 6972TIP3    H242408   4.383   0.996  14.137 -1.1027  0.5424 -0.0120
 6973TIP3   OH242409   0.776   1.214  11.836 -0.3084  0.0450  0.1678
 6973TIP3    H142410   0.853   1.157  11.841  0.6041  1.3303  1.5737
 6973TIP3    H242411   0.766   1.233  11.743  3.0185  2.3318  0.1033
 6974TIP3   OH242412   1.956   4.742   4.459  0.2320  0.0115 -0.1622
 6974TIP3    H142413   2.018   4.766   4.391 -1.1008 -0.2373 -1.5122
 6974TIP3    H242414   1.996   4.667   4.504  0.7101 -0.4335 -1.3097
 6975TIP3   OH242415   3.943   2.776  13.562  0.4466  0.0087 -0.4993
 6975TIP3    H142416   3.878   2.802  13.496 -0.6480 -2.3316 -0.4400
 6975TIP3    H242417   3.977   2.693  13.531  1.2716 -0.2321  0.9788
 6976TIP3   OH242418   6.191   1.998   4.716  0.2946 -0.7265  0.1546
 6976TIP3    H142419   6.197   2.005   4.811  0.0821  0.4003  0.0951
 6976TIP3    H242420   6.148   2.079   4.688  0.2039 -1.1131 -0.8896
 6977TIP3   OH242421   1.746   5.639   4.087 -0.6418 -0.7639  0.1649
 6977TIP3    H142422   1.708   5.583   4.154 -1.6691 -0.0385  0.2131
 6977TIP3    H242423   1.726   5.595   4.005  0.0587 -1.3251  0.2802
 6978TIP3   OH242424   4.267   6.421   6.129 -0.3618 -0.2522 -0.4038
 6978TIP3    H142425   4.293   6.330   6.147  0.4668  0.2466  1.0684
 6978TIP3    H242426   4.271   6.464   6.215 -0.3091  1.2917 -1.1547
 6979TIP3   OH242427   6.750   5.000  11.454 -0.1276 -0.0792  0.0834
 6979TIP3    H142428   6.833   5.037  11.423 -0.1293 -0.3365 -0.2341
 6979TIP3    H242429   6.701   4.982  11.374 -0.7753  0.7233  0.2974
 6980TIP3   OH242430   3.479   6.125  12.491  0.4796 -0.0837 -0.3056
 6980TIP3    H142431   3.448   6.192  12.430 -1.3236 -1.5813 -1.1626
 6980TIP3    H242432   3.542   6.074  12.440  1.0315  0.3047 -0.0133
 6981TIP3   OH242433   2.331   3.842  12.545 -1.0498 -0.0981  0.4038
 6981TIP3    H142434   2.290   3.806  12.624 -1.0166  1.1586  1.0045
 6981TIP3    H242435   2.278   3.919  12.523 -2.0934 -1.3319 -1.7961
 6982TIP3   OH242436   3.291   6.647   3.952 -0.5697  0.3990  0.5802
 6982TIP3    H142437   3.231   6.645   3.877  0.5558 -0.1155 -0.3313
 6982TIP3    H242438   3.356   6.713   3.930 -0.5180  0.6182  1.3454
 6983TIP3   OH242439   4.639   0.931   4.672  0.7073  0.5446  0.1207
 6983TIP3    H142440   4.608   0.952   4.760 -0.6064  1.5696 -0.5434
 6983TIP3    H242441   4.719   0.881   4.686 -0.4887 -0.9974  1.9221
 6984TIP3   OH242442   0.636   3.173   0.605  1.0616 -0.0231 -0.2009
 6984TIP3    H142443   0.706   3.149   0.544  1.9045  1.7711  0.0026
 6984TIP3    H242444   0.565   3.203   0.548  0.7541 -1.0377 -0.3755
 6985TIP3   OH242445   1.294   0.523  15.076  0.6369  0.7003 -0.4206
 6985TIP3    H142446   1.272   0.486  14.990 -0.7728  3.7969 -1.5480
 6985TIP3    H242447   1.271   0.615  15.068 -1.2283  0.7979  3.8759
 6986TIP3   OH242448   3.706   5.714   3.673 -0.5588  0.3543 -0.3958
 6986TIP3    H142449   3.681   5.664   3.751  0.2757 -1.2051 -1.0716
 6986TIP3    H242450   3.779   5.768   3.702  0.1166 -0.6296 -0.1855
 6987TIP3   OH242451   4.505   0.257   0.271  0.0180 -0.4477 -0.3226
 6987TIP3    H142452   4.555   0.324   0.224  0.7017  0.6955  1.8682
 6987TIP3    H242453   4.542   0.174   0.242  1.9238  0.3084 -0.1845
 6988TIP3   OH242454   0.376   1.017  14.023 -0.1709 -0.2959 -0.2762
 6988TIP3    H142455   0.379   1.006  13.928 -0.6833 -0.8275 -0.2444
 6988TIP3    H242456   0.290   0.981  14.048  0.3550 -1.0825  0.4882
 6989TIP3   OH242457   3.132   1.630   4.148 -0.2281 -0.9083 -0.2148
 6989TIP3    H142458   3.205   1.578   4.181 -0.6368 -1.6506 -0.4830
 6989TIP3    H242459   3.119   1.601   4.058 -1.2592 -1.2249  0.0267
 6990TIP3   OH242460   3.865   4.291  13.366 -1.0325  0.0163  0.4858
 6990TIP3    H142461   3.934   4.284  13.300 -0.1547  0.0328  1.3916
 6990TIP3    H242462   3.792   4.331  13.319 -0.5184 -0.2136 -0.5444
 6991TIP3   OH242463   6.286   5.440   1.346 -0.1074 -0.0565  0.3243
 6991TIP3    H142464   6.375   5.406   1.334 -0.8305 -2.2679  0.6689
 6991TIP3    H242465   6.245   5.432   1.260 -0.3952 -0.4051  0.4923
 6992TIP3   OH242466   0.869   2.971  16.783  0.2134 -0.1538 -0.8497
 6992TIP3    H142467   0.889   2.878  16.777 -2.5002 -0.7706 -1.2861
 6992TIP3    H242468   0.804   2.987  16.715 -0.8303  1.6452  0.4695
 6993TIP3   OH242469   4.713   4.183  14.864 -0.3149 -0.8535  0.3756
 6993TIP3    H142470   4.759   4.168  14.782 -0.4752 -2.6236  0.5632
 6993TIP3    H242471   4.624   4.152  14.847 -0.2537 -1.5789  1.3131
 6994TIP3   OH242472   5.492   1.866   2.580  0.2553  0.2913 -0.0355
 6994TIP3    H142473   5.443   1.814   2.516 -2.6686  3.1349 -0.3641
 6994TIP3    H242474   5.562   1.907   2.529  0.4703 -0.6019 -0.4857
 6995TIP3   OH242475   6.240   2.380   0.687  0.5727 -0.3157 -0.1747
 6995TIP3    H142476   6.173   2.383   0.757  1.9597 -2.5784  1.3730
 6995TIP3    H242477   6.299   2.453   0.708 -0.7585  1.0382 -0.9390
 6996TIP3   OH242478   4.897   5.590   0.494  0.8511  0.1857  0.3029
 6996TIP3    H142479   4.834   5.543   0.439 -0.0710 -0.6607  1.9902
 6996TIP3    H242480   4.982   5.570   0.455  0.4404 -2.4797  0.5979
 6997TIP3   OH242481   5.268   1.651   4.174  0.5847  0.3506  0.9537
 6997TIP3    H142482   5.311   1.722   4.222 -1.0074  1.2216  1.1612
 6997TIP3    H242483   5.174   1.666   4.187  0.0435  0.4463 -2.1400
 6998TIP3   OH242484   5.180   1.018   0.374  0.1809 -0.3528 -0.3733
 6998TIP3    H142485   5.205   0.966   0.298 -1.6447 -0.9194 -0.6428
 6998TIP3    H242486   5.086   1.002   0.384 -0.2300  1.9863  0.2460
 6999TIP3   OH242487   4.550   2.064  11.811  0.0900 -0.4560 -0.1045
 6999TIP3    H142488   4.475   2.006  11.799  0.7459 -1.0662 -1.5027
 6999TIP3    H242489   4.558   2.110  11.728 -1.3143  2.8276  1.4277
 7000TIP3   OH242490   3.604   6.695   4.440  0.1409  0.4605 -0.2417
 7000TIP3    H142491   3.599   6.751   4.363 -1.3557  0.3949 -0.2352
 7000TIP3    H242492   3.606   6.756   4.514 -1.1025  0.5345 -0.2490
 7001TIP3   OH242493   1.254   6.586   3.963 -0.0841 -0.4920  0.0768
 7001TIP3    H142494   1.335   6.541   3.938 -0.5740 -1.6601  0.5218
 7001TIP3    H242495   1.205   6.593   3.881  2.1587  4.1123 -1.2084
 7002TIP3   OH242496   1.057   3.574  17.092  0.1860 -0.2134  0.2699
 7002TIP3    H142497   1.084   3.507  17.154  1.4648  0.1675  0.1518
 7002TIP3    H242498   0.979   3.613  17.131 -0.1814 -1.3122  0.6571
 7003TIP3   OH242499   0.332   1.677  11.752 -0.0074 -0.3094  0.4815
 7003TIP3    H142500   0.302   1.636  11.670 -1.2754 -1.4628  1.4661
 7003TIP3    H242501   0.425   1.652  11.758 -0.4881 -2.3016  0.5541
 7004TIP3   OH242502   5.722   4.490   5.778 -0.5093  0.8560 -0.3432
 7004TIP3    H142503   5.639   4.534   5.797 -0.6848  0.2077  0.4794
 7004TIP3    H242504   5.711   4.456   5.689 -1.8401 -0.7131  0.3553
 7005TIP3   OH242505   6.796   1.199   5.529  0.1518 -0.0221 -0.7103
 7005TIP3    H142506   6.797   1.288   5.493 -0.3942  0.2631 -0.0539
 7005TIP3    H242507   6.835   1.208   5.616 -1.5092 -0.0648  0.0932
 7006TIP3   OH242508   3.796   5.531   1.793 -0.6520  0.3699 -0.0387
 7006TIP3    H142509   3.719   5.519   1.738  1.0524  0.0457 -2.5235
 7006TIP3    H242510   3.867   5.488   1.745  1.1377  0.8180  2.0372
 7007TIP3   OH242511   3.445   2.975   3.391 -0.4383  0.3355  0.4603
 7007TIP3    H142512   3.368   2.919   3.385 -0.0220 -0.2951  0.9193
 7007TIP3    H242513   3.434   3.038   3.320 -1.2252  0.0679  0.3332
 7008TIP3   OH242514   1.050   1.542  11.757  0.2403  0.4460 -0.1856
 7008TIP3    H142515   1.136   1.519  11.721  0.6797  1.0164  0.4714
 7008TIP3    H242516   1.004   1.583  11.683 -0.0125 -1.1488 -0.9498
 7009TIP3   OH242517   6.269   4.939  11.032  0.0591  0.3686 -0.3893
 7009TIP3    H142518   6.185   4.962  10.991 -0.6166 -0.6501  0.3541
 7009TIP3    H242519   6.335   4.977  10.975 -0.9154  1.5128 -0.7988
 7010TIP3   OH242520   2.656   6.476  14.305  0.3417  0.4229  0.0323
 7010TIP3    H142521   2.702   6.392  14.312  0.0647  0.1757 -0.9281
 7010TIP3    H242522   2.720   6.535  14.266  0.2312  0.3926 -0.1986
 7011TIP3   OH242523   5.827   0.480  12.699 -0.2877  0.2425  0.4209
 7011TIP3    H142524   5.903   0.422  12.699  1.4061  2.3313  1.1867
 7011TIP3    H242525   5.853   0.554  12.644 -1.8451  0.9284  0.5493
 7012TIP3   OH242526   0.882   6.441  16.478  0.2606  0.5456 -0.1941
 7012TIP3    H142527   0.904   6.495  16.554  0.3144  0.2127  0.0311
 7012TIP3    H242528   0.787   6.428  16.484  0.0910  1.4410 -0.8017
 7013TIP3   OH242529   5.109   3.376   3.470  0.2543 -0.1805 -0.7897
 7013TIP3    H142530   5.111   3.358   3.564  0.1387  0.4486 -0.6639
 7013TIP3    H242531   5.170   3.313   3.433 -0.8292 -1.4777 -0.4760
 7014TIP3   OH242532   0.218   0.577  17.016  0.2120  0.7164  0.1988
 7014TIP3    H142533   0.174   0.609  16.937 -2.4045  1.8999  1.9966
 7014TIP3    H242534   0.297   0.534  16.983 -0.7264  1.1700 -3.0416
 7015TIP3   OH242535   0.022   2.915   1.232 -0.7155 -0.0200 -0.1159
 7015TIP3    H142536   0.080   2.841   1.250  2.1006  1.6730 -1.6335
 7015TIP3    H242537  -0.018   2.893   1.148  0.1575  0.1664 -0.5920
 7016TIP3   OH242538   1.063   3.144  16.850 -0.8869 -0.1748  0.1562
 7016TIP3    H142539   1.126   3.165  16.781  0.6620 -0.8867  1.3049
 7016TIP3    H242540   1.005   3.080  16.809 -0.0953 -0.4593 -0.5594
 7017TIP3   OH242541   5.886   1.418   2.969 -0.0299  0.3659  0.9448
 7017TIP3    H142542   5.871   1.337   2.920  0.1099  1.1469 -0.4168
 7017TIP3    H242543   5.915   1.388   3.056 -1.4842 -1.0507  0.9864
 7018TIP3   OH242544   3.424   4.717  13.017  0.2647 -0.1527  0.4765
 7018TIP3    H142545   3.416   4.692  12.925  0.0414 -1.1570  0.7513
 7018TIP3    H242546   3.517   4.706  13.037  0.3158  0.0793  0.3659
 7019TIP3   OH242547   5.048   1.992  12.056 -0.3983 -0.1084 -0.0683
 7019TIP3    H142548   4.965   1.968  12.017  0.4172 -1.5310 -1.0422
 7019TIP3    H242549   5.065   2.081  12.024 -0.2203 -0.8587 -2.2431
 7020TIP3   OH242550   2.707   0.915   4.670 -0.0808  0.2620 -0.6122
 7020TIP3    H142551   2.625   0.925   4.621  0.3778 -0.6259 -1.6030
 7020TIP3    H242552   2.771   0.888   4.604  0.4340 -1.5336  0.5417
 7021TIP3   OH242553   3.062   1.120   4.222  0.0404 -0.1483  1.1704
 7021TIP3    H142554   3.001   1.177   4.269 -0.2102 -0.5404  1.3278
 7021TIP3    H242555   3.080   1.166   4.140 -2.9242 -1.4406 -0.3508
 7022TIP3   OH242556   0.535   5.736   2.348  0.4193  0.0371  0.5496
 7022TIP3    H142557   0.563   5.646   2.329  0.2642  0.4157 -1.6769
 7022TIP3    H242558   0.610   5.790   2.324  0.9127  0.4915  2.8870
 7023TIP3   OH242559   5.238   0.877   1.294 -0.2006 -0.1348 -0.3366
 7023TIP3    H142560   5.258   0.853   1.385 -1.5355 -0.0843 -0.0063
 7023TIP3    H242561   5.319   0.860   1.246  1.1256  1.4963  1.1518
 7024TIP3   OH242562   6.254   3.064  13.494 -0.4845  0.4109  0.1488
 7024TIP3    H142563   6.327   3.033  13.440 -3.4227 -0.8204 -3.5124
 7024TIP3    H242564   6.221   2.985  13.537 -2.0007  0.1539 -1.3968
 7025TIP3   OH242565   5.776   2.085   2.067 -0.4078 -0.0306 -0.0122
 7025TIP3    H142566   5.756   2.075   1.974 -1.1418 -1.5225  0.2610
 7025TIP3    H242567   5.832   2.010   2.088  0.4846  0.7825  0.5627
 7026TIP3   OH242568   2.682   5.786  14.353 -0.2566  0.1150 -0.0146
 7026TIP3    H142569   2.680   5.698  14.317 -1.4836  0.0208  0.2202
 7026TIP3    H242570   2.701   5.774  14.446  0.9838  0.2163 -0.2417
 7027TIP3   OH242571   3.570   5.816   5.577  0.2392  0.2767  0.2373
 7027TIP3    H142572   3.509   5.744   5.562  0.5082 -0.1351  1.0669
 7027TIP3    H242573   3.521   5.894   5.552 -0.6624 -0.0454  0.9417
 7028TIP3   OH242574   2.578   1.689   5.656 -0.1346 -0.5540  1.1488
 7028TIP3    H142575   2.487   1.715   5.665 -0.8400 -1.9328 -1.2197
 7028TIP3    H242576   2.628   1.766   5.682 -1.9788  0.5874  1.4785
 7029TIP3   OH242577   6.409   3.867  14.081 -0.3083 -0.7968 -0.1897
 7029TIP3    H142578   6.491   3.897  14.040  0.0299 -1.1516  0.2160
 7029TIP3    H242579   6.390   3.783  14.039  0.5233 -1.6068  0.9741
 7030TIP3   OH242580   3.659   1.973  12.009 -0.4039  0.5192  0.2044
 7030TIP3    H142581   3.709   1.892  12.007 -0.5447  0.4244  0.5991
 7030TIP3    H242582   3.697   2.026  11.939 -1.4958 -0.5888 -1.2948
 7031TIP3   OH242583   1.159   0.266  11.653  0.2890  0.5615  0.1506
 7031TIP3    H142584   1.131   0.207  11.582  0.2071 -1.0262  1.4452
 7031TIP3    H242585   1.125   0.352  11.627 -1.3015 -0.3086 -0.8645
 7032TIP3   OH242586   1.807   3.386  10.916 -0.8082  0.4211  0.7831
 7032TIP3    H142587   1.900   3.363  10.908 -1.1972 -1.4354  1.0325
 7032TIP3    H242588   1.794   3.455  10.851  0.2402 -0.9866 -1.0521
 7033TIP3   OH242589   4.384   4.031  11.898  0.4973  0.0765  0.1403
 7033TIP3    H142590   4.447   4.083  11.849  1.6996  0.3033  1.8324
 7033TIP3    H242591   4.419   3.942  11.895 -0.0675 -0.1278 -0.4238
 7034TIP3   OH242592   5.288   0.094  13.177  0.8312  0.2371 -0.0082
 7034TIP3    H142593   5.277   0.185  13.203 -3.1279 -0.2455  0.5355
 7034TIP3    H242594   5.227   0.082  13.105  0.1663 -2.3064  0.8830
 7035TIP3   OH242595   4.788   2.537   6.696  0.2583  0.5195  0.0692
 7035TIP3    H142596   4.777   2.629   6.719 -0.1289  0.2176  1.1082
 7035TIP3    H242597   4.747   2.529   6.610 -1.1238  0.9887  0.6640
 7036TIP3   OH242598   6.475   2.604   4.759  0.1991 -0.4766  0.0025
 7036TIP3    H142599   6.494   2.608   4.853 -0.1771  1.1248  0.0487
 7036TIP3    H242600   6.406   2.538   4.751 -0.7476  0.3296  1.0707
 7037TIP3   OH242601   0.402   5.736   2.593 -0.4594 -0.1291 -1.1363
 7037TIP3    H142602   0.427   5.816   2.639  0.4755 -0.3077 -1.3208
 7037TIP3    H242603   0.431   5.750   2.503 -1.4941 -0.1384 -1.4824
 7038TIP3   OH242604   1.774   2.057  17.256 -0.1111 -0.6648 -0.0445
 7038TIP3    H142605   1.852   2.006  17.237 -1.3881 -2.1538 -1.6125
 7038TIP3    H242606   1.798   2.147  17.234  1.7917 -0.6935  1.6010
 7039TIP3   OH242607   4.083   1.522  13.967 -0.2905 -0.1546  0.2164
 7039TIP3    H142608   4.177   1.519  13.988  0.1115 -2.6652 -1.4832
 7039TIP3    H242609   4.040   1.494  14.048  0.6197 -1.2914  0.3346
 7040TIP3   OH242610   4.511   4.862   3.053 -0.2698  0.6449  0.3401
 7040TIP3    H142611   4.534   4.785   3.002 -0.0804  2.1292 -1.9743
 7040TIP3    H242612   4.578   4.867   3.121 -0.2437 -1.1478  0.4879
 7041TIP3   OH242613   4.531   2.389  13.788  0.4773 -0.4119  0.5433
 7041TIP3    H142614   4.556   2.480  13.807  1.9281 -1.1820  2.7200
 7041TIP3    H242615   4.440   2.382  13.820  0.5407  0.1498  0.8585
 7042TIP3   OH242616   5.682   6.704  14.253  0.0304 -0.1244  0.5662
 7042TIP3    H142617   5.716   6.659  14.330 -0.2469 -0.5718  0.4266
 7042TIP3    H242618   5.617   6.765  14.288 -0.5404 -0.7635  0.6289
 7043TIP3   OH242619   0.043   2.965  16.066  0.1163  0.2474  0.6896
 7043TIP3    H142620   0.039   3.061  16.065  0.5040  0.2643 -0.3320
 7043TIP3    H242621  -0.047   2.938  16.085  0.0525  0.8181  1.2185
 7044TIP3   OH242622   6.315   1.784   0.221  0.3390  0.3016 -0.1161
 7044TIP3    H142623   6.334   1.702   0.269  0.2191 -1.4615 -2.8642
 7044TIP3    H242624   6.220   1.784   0.210  0.5548 -0.7728 -2.5738
 7045TIP3   OH242625   3.496   4.220   0.930  0.4572  0.0918  0.7423
 7045TIP3    H142626   3.430   4.151   0.941 -1.2872  1.4517 -0.4721
 7045TIP3    H242627   3.467   4.289   0.989  2.0479 -0.0920  1.7737
 7046TIP3   OH242628   0.008   1.460  13.028 -0.2533  0.1567 -0.1479
 7046TIP3    H142629  -0.024   1.383  13.074  1.3224  0.2397  1.1945
 7046TIP3    H242630  -0.070   1.513  13.011 -1.2140 -1.2151 -0.1452
 7047TIP3   OH242631   0.574   2.078   2.508  0.6693 -0.7684  0.4464
 7047TIP3    H142632   0.532   2.044   2.429  0.7889  0.7306 -0.3053
 7047TIP3    H242633   0.653   2.121   2.476 -0.3029  1.6715  1.0736
 7048TIP3   OH242634   3.082   0.818   3.486 -0.3713 -0.5274 -0.3610
 7048TIP3    H142635   3.113   0.818   3.577  1.5792  1.4685 -0.9237
 7048TIP3    H242636   3.028   0.897   3.480  0.1454 -0.2235 -1.1031
 7049TIP3   OH242637   6.269   4.900   1.619  0.5033  0.6547 -0.2732
 7049TIP3    H142638   6.256   4.993   1.597  2.6707  1.3469  1.0870
 7049TIP3    H242639   6.183   4.872   1.652 -0.9544  1.3633 -3.1442
 7050TIP3   OH242640   0.354   1.132   0.914  0.4296  0.2969 -0.0792
 7050TIP3    H142641   0.436   1.093   0.883  0.6428 -0.1523  1.0038
 7050TIP3    H242642   0.291   1.060   0.913  0.6976  0.0085  1.4536
 7051TIP3   OH242643   6.102   0.877  16.343  0.3013  0.4760 -0.4108
 7051TIP3    H142644   6.167   0.942  16.317 -1.5113  1.7328 -2.0965
 7051TIP3    H242645   6.071   0.907  16.428  1.0412  0.5542 -0.1614
 7052TIP3   OH242646   2.450   0.589   1.457  0.0509 -0.1346  0.1144
 7052TIP3    H142647   2.455   0.602   1.551  1.8631  0.6474 -0.0374
 7052TIP3    H242648   2.369   0.631   1.431  0.3302  1.1141  1.1376
 7053TIP3   OH242649   0.879   0.674  13.405 -0.1254 -0.2791 -0.6468
 7053TIP3    H142650   0.909   0.666  13.314 -1.1417  0.1737 -1.0436
 7053TIP3    H242651   0.928   0.607  13.452  0.4853 -0.4649 -1.5173
 7054TIP3   OH242652   3.970   3.661   2.763  0.5126  0.0616 -0.4150
 7054TIP3    H142653   4.031   3.658   2.690  0.9685 -2.3938 -0.0107
 7054TIP3    H242654   4.018   3.707   2.832  0.7102  0.8943 -1.0904
 7055TIP3   OH242655   2.895   3.166   2.476 -0.1496  0.2793 -0.8437
 7055TIP3    H142656   2.839   3.137   2.404 -1.7236 -0.2724  0.5219
 7055TIP3    H242657   2.915   3.086   2.524  0.2582  0.7240 -0.2643
 7056TIP3   OH242658   2.920   2.994  14.019  0.2625 -0.8475  0.0279
 7056TIP3    H142659   2.995   2.995  13.961 -0.4301  0.3815 -0.8935
 7056TIP3    H242660   2.941   3.057  14.087  0.7354 -1.7030  0.6932
 7057TIP3   OH242661   1.684   3.843  12.787  0.1483 -0.5098  0.1252
 7057TIP3    H142662   1.742   3.841  12.863  0.6726  0.6655 -0.2138
 7057TIP3    H242663   1.668   3.936  12.772 -1.2747 -0.7814 -0.2204
 7058TIP3   OH242664   0.240   3.356   0.792 -0.1016  0.0544 -0.0856
 7058TIP3    H142665   0.193   3.364   0.709 -0.9428 -0.5914  0.3159
 7058TIP3    H242666   0.225   3.265   0.820  2.6700 -0.6913 -0.6928
 7059TIP3   OH242667   4.222   4.398   1.487 -0.1367 -0.0483  0.5681
 7059TIP3    H142668   4.256   4.419   1.574 -1.0095 -0.3792  1.0034
 7059TIP3    H242669   4.194   4.482   1.452  1.4437  0.2932  0.0401
 7060TIP3   OH242670   4.478   6.615  11.816 -0.8467 -0.0339 -0.2158
 7060TIP3    H142671   4.462   6.563  11.894 -1.5550 -1.6700 -1.3914
 7060TIP3    H242672   4.545   6.567  11.768  0.0827  1.3048 -0.3315
 7061TIP3   OH242673   2.059   3.396   2.221 -0.0302 -0.3606 -0.4266
 7061TIP3    H142674   1.982   3.441   2.256 -0.2319 -0.4865 -0.6957
 7061TIP3    H242675   2.029   3.306   2.209  0.3366 -0.5425  0.0077
 7062TIP3   OH242676   4.705   5.078  16.658 -0.3518 -0.4359  0.5424
 7062TIP3    H142677   4.770   5.129  16.609  0.9729 -0.2878  2.3583
 7062TIP3    H242678   4.737   4.988  16.653 -0.4578 -0.4856  0.7449
 7063TIP3   OH242679   2.086   1.714   1.100  0.2868 -0.6807 -0.1586
 7063TIP3    H142680   2.043   1.796   1.075 -0.7774 -1.1400  0.0995
 7063TIP3    H242681   2.122   1.730   1.187  1.2196 -0.0862 -0.6414
 7064TIP3   OH242682   1.246   6.179  11.868 -0.6572 -0.0025  0.3554
 7064TIP3    H142683   1.215   6.114  11.805  0.1980 -0.1213  0.0360
 7064TIP3    H242684   1.195   6.163  11.947 -0.6002 -0.9250  0.2149
 7065TIP3   OH242685   6.585   5.930   4.641 -0.2498 -0.1095 -0.7442
 7065TIP3    H142686   6.536   5.999   4.596 -0.7496  0.6095  0.8008
 7065TIP3    H242687   6.517   5.875   4.681  0.1596 -1.1369 -1.4233
 7066TIP3   OH242688   3.620   3.062  12.076  0.1464 -0.2747  0.0982
 7066TIP3    H142689   3.664   3.053  11.991 -0.9879  0.9750 -0.6769
 7066TIP3    H242690   3.541   3.009  12.069  1.3033 -2.2688  1.3727
 7067TIP3   OH242691   5.156   4.619  17.319  0.3379  0.4947  0.1464
 7067TIP3    H142692   5.187   4.572  17.242 -0.2268 -0.5087  0.5096
 7067TIP3    H242693   5.234   4.662  17.355  0.7550  0.2928 -0.5061
 7068TIP3   OH242694   4.231   5.632   5.589  0.2030 -0.5141 -0.0728
 7068TIP3    H142695   4.281   5.655   5.667  0.7646 -0.4198 -0.4547
 7068TIP3    H242696   4.140   5.627   5.619  0.5229 -1.4225  0.7943
 7069TIP3   OH242697   1.464   3.520   5.492  0.0713 -0.5013  0.1157
 7069TIP3    H142698   1.545   3.469   5.488  0.2673 -0.2324  0.5530
 7069TIP3    H242699   1.401   3.469   5.441  0.9070  0.0394 -1.5216
 7070TIP3   OH242700   1.166   3.267  16.566  0.1425  0.6334 -0.0578
 7070TIP3    H142701   1.131   3.207  16.500  3.2209 -0.3735 -0.9282
 7070TIP3    H242702   1.260   3.268  16.551  0.9143  1.1657  3.7145
 7071TIP3   OH242703   4.215   6.049   5.651 -0.5298 -1.2959  0.4438
 7071TIP3    H142704   4.162   6.002   5.587  0.4763 -1.0868 -0.5954
 7071TIP3    H242705   4.295   5.997   5.658 -0.2508 -0.8201  0.8289
 7072TIP3   OH242706   5.526   4.475   2.011  0.0294 -0.1262  0.0532
 7072TIP3    H142707   5.543   4.477   1.916 -1.3567  3.2140 -0.2686
 7072TIP3    H242708   5.431   4.483   2.019 -0.0718 -2.3124  1.7845
 7073TIP3   OH242709   1.500   2.817  13.236 -0.0728 -0.0102  0.1014
 7073TIP3    H142710   1.486   2.769  13.154  1.1622 -1.9629  0.9586
 7073TIP3    H242711   1.475   2.755  13.305 -1.9634  1.9009  1.2340
 7074TIP3   OH242712   6.731   4.621  16.136  0.2011 -0.4331 -0.1056
 7074TIP3    H142713   6.691   4.667  16.063 -1.0154 -2.0606 -0.5126
 7074TIP3    H242714   6.769   4.542  16.098  0.5525 -0.7459  0.8492
 7075TIP3   OH242715   3.347   3.351  14.997 -0.0319  0.5499  0.7802
 7075TIP3    H142716   3.329   3.445  15.007 -2.1541  0.1335  1.3737
 7075TIP3    H242717   3.381   3.324  15.083 -0.8486  0.5108  1.1017
 7076TIP3   OH242718   3.663   3.399  12.857  0.5084  0.4257 -0.9317
 7076TIP3    H142719   3.755   3.389  12.880  0.4669 -0.0648 -0.9610
 7076TIP3    H242720   3.633   3.310  12.838 -0.3071  0.3909  0.3617
 7077TIP3   OH242721   5.453   4.833   1.940  0.0199  0.7182  0.3500
 7077TIP3    H142722   5.493   4.868   2.019  2.4782 -1.5761  0.2759
 7077TIP3    H242723   5.378   4.783   1.971  0.6690  0.2505  1.2228
 7078TIP3   OH242724   1.195   4.902  12.216 -0.0865  0.2043  0.4310
 7078TIP3    H142725   1.130   4.883  12.148  0.3210  1.0812 -0.2226
 7078TIP3    H242726   1.172   4.843  12.288 -1.3271  0.1784  0.0400
 7079TIP3   OH242727   6.730   0.130  13.900  0.3715  0.7069  0.4478
 7079TIP3    H142728   6.678   0.160  13.974  0.1919  2.8574 -0.4943
 7079TIP3    H242729   6.691   0.172  13.824  0.3406 -1.6821 -0.9851
 7080TIP3   OH242730   1.545   4.164   4.774  0.2662  0.0183  0.0383
 7080TIP3    H142731   1.575   4.078   4.805  2.7458  1.3886  1.7035
 7080TIP3    H242732   1.458   4.146   4.737 -0.1442 -2.8723  2.0260
 7081TIP3   OH242733   0.144   3.111   1.681  0.2497 -0.5436  0.2363
 7081TIP3    H142734   0.098   3.043   1.731 -0.5811 -0.6651 -0.6666
 7081TIP3    H242735   0.161   3.072   1.596  1.8300 -0.4017  0.4498
 7082TIP3   OH242736   0.122   1.868   4.422 -0.1199 -0.4849  0.0444
 7082TIP3    H142737   0.117   1.923   4.343 -0.0417  1.6548  1.4559
 7082TIP3    H242738   0.033   1.865   4.455  0.1293  0.0867  0.7956
 7083TIP3   OH242739   1.190   6.483   0.197  0.3412  0.0764 -0.1684
 7083TIP3    H142740   1.162   6.575   0.201 -0.7845 -0.2925  2.5488
 7083TIP3    H242741   1.111   6.434   0.220  0.4825 -1.7591 -3.1095
 7084TIP3   OH242742   0.338   0.180  10.734 -0.1790 -0.0577 -0.2461
 7084TIP3    H142743   0.287   0.261  10.742 -0.1816 -0.0714 -0.1096
 7084TIP3    H242744   0.376   0.168  10.821  0.6688  0.3593 -0.5479
 7085TIP3   OH242745   6.201   4.033  13.910  0.0965 -0.0418 -0.1417
 7085TIP3    H142746   6.223   4.056  14.001 -0.9175 -0.3801  0.2056
 7085TIP3    H242747   6.204   3.937  13.908 -1.2341 -0.1064 -0.0822
 7086TIP3   OH242748   1.240   1.616   1.567  0.1238  0.3101 -0.9527
 7086TIP3    H142749   1.272   1.530   1.593 -0.3869  0.7462  1.3942
 7086TIP3    H242750   1.168   1.634   1.627  0.8599  2.7683 -0.6991
 7087TIP3   OH242751   6.610   1.518  16.063  0.3495 -0.3485 -0.4968
 7087TIP3    H142752   6.690   1.488  16.020  0.2370 -0.4225 -0.6524
 7087TIP3    H242753   6.577   1.589  16.007 -0.0484 -0.7571 -0.7825
 7088TIP3   OH242754   5.314   3.062   2.920  0.5067 -0.7949 -0.2750
 7088TIP3    H142755   5.236   3.048   2.973 -0.1587  1.2362 -0.6446
 7088TIP3    H242756   5.287   3.038   2.831  0.4904 -0.6834 -0.3004
 7089TIP3   OH242757   3.984   3.977   3.122 -0.3334  0.2825  0.1933
 7089TIP3    H142758   3.889   3.970   3.109 -0.4991 -2.3539  2.0689
 7089TIP3    H242759   3.994   3.988   3.217  1.2627 -0.2904  0.1160
 7090TIP3   OH242760   1.310   0.313   3.792 -1.0895  0.3026  0.3051
 7090TIP3    H142761   1.296   0.218   3.798  0.6348  0.1031  2.4076
 7090TIP3    H242762   1.267   0.348   3.870  0.4411  0.9189  0.8985
 7091TIP3   OH242763   0.273   4.729   5.585  0.0133  0.5579  0.3836
 7091TIP3    H142764   0.262   4.716   5.680  0.9474  0.2596  0.4717
 7091TIP3    H242765   0.360   4.692   5.567  0.4930  1.9780 -0.3221
 7092TIP3   OH242766   0.342   2.742  13.172  0.0015 -0.2396 -0.3837
 7092TIP3    H142767   0.337   2.697  13.256 -0.3966  0.2166 -0.1591
 7092TIP3    H242768   0.377   2.829  13.193  0.8313 -0.4562 -0.8222
 7093TIP3   OH242769   3.363   6.643  13.629  0.5861  0.0304 -0.4506
 7093TIP3    H142770   3.394   6.570  13.682  0.4722  0.0388 -0.3738
 7093TIP3    H242771   3.374   6.613  13.539 -0.0140 -0.3091 -0.4136
 7094TIP3   OH242772   3.438   1.311   2.242  0.3494 -0.4083  0.3356
 7094TIP3    H142773   3.444   1.397   2.283 -0.9254 -0.2152  0.1573
 7094TIP3    H242774   3.413   1.252   2.313 -1.2917 -0.1695  0.0103
 7095TIP3   OH242775   6.225   5.021   3.806  0.0571  0.4785  0.8162
 7095TIP3    H142776   6.297   4.970   3.769 -1.0085 -0.2542 -0.3575
 7095TIP3    H242777   6.192   4.967   3.877  0.1960  0.4642  0.8702
 7096TIP3   OH242778   5.211   0.657  12.692 -0.6802  0.2230 -0.2343
 7096TIP3    H142779   5.220   0.595  12.765 -0.0913  1.3298  0.6551
 7096TIP3    H242780   5.261   0.734  12.719 -0.1772  0.5454 -1.9533
 7097TIP3   OH242781   0.128   1.641  14.715 -0.1659  0.2557  0.0319
 7097TIP3    H142782   0.061   1.677  14.657  0.5661  1.6914  0.0387
 7097TIP3    H242783   0.101   1.667  14.803  0.6959  1.3916 -0.0181
 7098TIP3   OH242784   4.629   1.738  16.623  0.5976 -0.2037  0.2325
 7098TIP3    H142785   4.537   1.715  16.634  0.6503 -0.3236  0.4247
 7098TIP3    H242786   4.661   1.753  16.712  0.5400  0.7182  0.1075
 7099TIP3   OH242787   3.211   4.136  15.024  0.3894  0.4271  0.0092
 7099TIP3    H142788   3.129   4.096  15.050  0.5820 -0.2511 -0.3940
 7099TIP3    H242789   3.215   4.218  15.073 -1.8897  1.9279 -2.0640
 7100TIP3   OH242790   2.172   1.665  16.076  0.8524 -0.4767  0.1463
 7100TIP3    H142791   2.123   1.583  16.076 -1.2004  0.6908  0.0515
 7100TIP3    H242792   2.182   1.687  16.168 -1.5698  0.7959  0.1720
 7101TIP3   OH242793   3.773   0.767   1.595 -0.4311 -0.5029 -0.2439
 7101TIP3    H142794   3.841   0.810   1.645  0.5042 -1.2213 -0.8548
 7101TIP3    H242795   3.729   0.710   1.658 -0.4355 -0.0779  0.1417
 7102TIP3   OH242796   6.111   5.722   5.802 -0.2131  0.1831 -0.2081
 7102TIP3    H142797   6.149   5.708   5.889  1.2837 -0.4374 -0.9368
 7102TIP3    H242798   6.101   5.635   5.765 -2.2318  0.3347 -0.1313
 7103TIP3   OH242799   4.277   0.311   4.886  0.5394  0.1112  0.3066
 7103TIP3    H142800   4.312   0.399   4.900 -0.8098  0.7468 -0.1888
 7103TIP3    H242801   4.296   0.292   4.794  0.3167  0.1174  0.2601
 7104TIP3   OH242802   5.157   3.838  13.800  0.7368 -0.1469  0.0496
 7104TIP3    H142803   5.221   3.766  13.798  5.4503  3.5754 -1.0048
 7104TIP3    H242804   5.134   3.852  13.708  0.5179  0.2557  0.1655
 7105TIP3   OH242805   5.664   0.014   4.371 -0.0804  0.2887 -0.1945
 7105TIP3    H142806   5.585  -0.001   4.319 -1.4294  1.2432  1.4601
 7105TIP3    H242807   5.711   0.083   4.324  0.1202 -0.7129 -1.5209
 7106TIP3   OH242808   3.023   4.760   6.409  0.7840 -0.2373 -0.3029
 7106TIP3    H142809   3.003   4.669   6.433 -1.1150 -0.0446 -0.9671
 7106TIP3    H242810   3.049   4.801   6.491  1.3980 -1.3080  0.0579
 7107TIP3   OH242811   3.580   6.582   0.072  0.1316 -0.0110  0.4239
 7107TIP3    H142812   3.609   6.509   0.018 -0.5808  0.8282 -1.1513
 7107TIP3    H242813   3.491   6.600   0.042  0.5550  1.9782  0.2455
 7108TIP3   OH242814   0.081   4.682  13.707 -0.4405 -0.0045 -0.2555
 7108TIP3    H142815   0.141   4.608  13.719  1.2513  1.5738  1.8375
 7108TIP3    H242816   0.012   4.668  13.771  0.4477  0.6936  0.8983
 7109TIP3   OH242817   2.251   1.265   5.600  0.1998 -0.3897 -0.2510
 7109TIP3    H142818   2.229   1.197   5.536 -0.2314 -0.8037  0.3257
 7109TIP3    H242819   2.188   1.335   5.584 -0.6435 -0.9763  0.4662
 7110TIP3   OH242820   3.581   1.814   0.105  0.5316 -0.1449  0.4545
 7110TIP3    H142821   3.649   1.768   0.055 -1.1578  0.9335 -3.0990
 7110TIP3    H242822   3.505   1.757   0.100 -0.3632  1.0781 -0.3627
 7111TIP3   OH242823   2.328   6.410  13.892  0.1632 -0.4139  0.1672
 7111TIP3    H142824   2.237   6.417  13.862  0.5333 -1.3586 -1.2998
 7111TIP3    H242825   2.361   6.330  13.850  2.2933  0.9899 -1.0327
 7112TIP3   OH242826   4.871   2.921  16.917  0.4378  0.3592  0.0868
 7112TIP3    H142827   4.844   2.956  16.832  0.4123  1.8692  0.6808
 7112TIP3    H242828   4.789   2.896  16.959  0.4267 -0.1262 -0.2193
 7113TIP3   OH242829   4.990   0.733  15.216  0.3445 -0.4457  0.4281
 7113TIP3    H142830   5.060   0.797  15.210  0.2859 -0.3545  0.6912
 7113TIP3    H242831   5.035   0.648  15.215  0.3762 -0.4196 -0.5661
 7114TIP3   OH242832   2.799   3.440   2.994  0.3638  0.0115  0.1683
 7114TIP3    H142833   2.723   3.425   2.938  0.0795 -2.3825  1.1174
 7114TIP3    H242834   2.772   3.510   3.053  0.4663  2.2024 -2.1955
 7115TIP3   OH242835   3.533   0.425  13.864 -0.3815  0.1039 -0.6926
 7115TIP3    H142836   3.589   0.402  13.789 -1.5821 -1.2962 -1.2110
 7115TIP3    H242837   3.573   0.504  13.900  2.9625 -1.6663  0.0057
 7116TIP3   OH242838   6.192   6.724  14.833 -0.2310 -0.2492  0.2456
 7116TIP3    H142839   6.124   6.754  14.893  0.4632 -2.6303  2.3672
 7116TIP3    H242840   6.270   6.774  14.858 -0.7599  1.4524 -1.2568
 7117TIP3   OH242841   3.139   6.547   2.854 -0.7369  0.2285 -0.4478
 7117TIP3    H142842   3.138   6.539   2.949 -1.8689  0.5656 -0.4277
 7117TIP3    H242843   3.058   6.505   2.825 -0.7472  0.7584 -1.2135
 7118TIP3   OH242844   3.444   1.624  14.213 -0.7758 -0.0510  0.0616
 7118TIP3    H142845   3.494   1.612  14.294 -0.0437  0.1601 -0.3491
 7118TIP3    H242846   3.445   1.538  14.171 -1.8718 -0.3710  0.6717
 7119TIP3   OH242847   0.583   5.423   2.628 -0.1691 -0.0138 -0.1864
 7119TIP3    H142848   0.600   5.506   2.583  0.5198  0.3043  0.6241
 7119TIP3    H242849   0.648   5.421   2.699 -0.2083 -1.2220 -0.1631
 7120TIP3   OH242850   0.905   5.890  14.653  0.2799  0.1419  0.0784
 7120TIP3    H142851   0.904   5.882  14.748  1.3692 -1.7031 -0.0178
 7120TIP3    H242852   0.918   5.801  14.621  0.5493  0.7918 -1.7906
 7121TIP3   OH242853   3.890   0.013   3.736 -0.3519 -0.2137 -0.3636
 7121TIP3    H142854   3.953  -0.054   3.708  0.4599 -0.4684  1.8049
 7121TIP3    H242855   3.811  -0.005   3.685  0.6221 -1.2785 -1.5786
 7122TIP3   OH242856   1.875   3.426   5.661 -0.1555 -0.4409 -0.2307
 7122TIP3    H142857   1.888   3.361   5.729 -0.0115 -1.1459 -0.9261
 7122TIP3    H242858   1.948   3.487   5.671 -0.6200 -0.0222  0.8083
 7123TIP3   OH242859   1.604   3.324   1.963  0.5775 -0.2346 -0.0707
 7123TIP3    H142860   1.698   3.323   1.947  0.7204  1.0820  0.5285
 7123TIP3    H242861   1.568   3.374   1.890  0.4202 -0.2170  0.0180
 7124TIP3   OH242862   1.581   4.809   0.687  0.4302 -0.1213  0.5738
 7124TIP3    H142863   1.593   4.898   0.721  0.1688 -0.4618  1.5970
 7124TIP3    H242864   1.587   4.753   0.765  1.0880 -1.0460 -0.1320
 7125TIP3   OH242865   6.503   0.066  17.030  0.9050  0.1293  0.1193
 7125TIP3    H142866   6.493  -0.025  17.001  0.7628 -0.1073  0.8885
 7125TIP3    H242867   6.516   0.116  16.949 -1.6750 -0.2008 -0.5676
 7126TIP3   OH242868   3.115   2.530  13.098 -0.8688 -0.3595  0.7710
 7126TIP3    H142869   3.062   2.450  13.093 -2.0073  0.4141 -3.6232
 7126TIP3    H242870   3.203   2.501  13.072 -1.1923 -0.2798 -0.4459
 7127TIP3   OH242871   1.162   2.059   2.673  0.2459 -0.3055  0.0569
 7127TIP3    H142872   1.165   1.972   2.633 -1.9084  0.5857 -2.4011
 7127TIP3    H242873   1.250   2.094   2.662  0.0479 -0.5116 -3.2670
 7128TIP3   OH242874   1.648   4.532  11.745 -0.2963  0.6767 -0.0155
 7128TIP3    H142875   1.736   4.494  11.750  1.2643  4.0119  0.8114
 7128TIP3    H242876   1.602   4.496  11.821 -0.0899 -1.9715 -1.0682
 7129TIP3   OH242877   6.392   4.357   4.988  0.0897 -0.0124  0.0444
 7129TIP3    H142878   6.401   4.387   4.897 -0.6361 -0.0579 -0.0446
 7129TIP3    H242879   6.481   4.330   5.013  0.4212  0.5918 -0.4425
 7130TIP3   OH242880   5.649   1.377   1.158 -0.7655  0.4401  0.3488
 7130TIP3    H142881   5.605   1.456   1.128 -0.7830  1.0662  1.9522
 7130TIP3    H242882   5.742   1.397   1.149 -0.7616  0.8397  1.1965
 7131TIP3   OH242883   0.162   6.428   2.608  0.2208 -0.3241  0.2624
 7131TIP3    H142884   0.215   6.507   2.599  0.5760 -0.5101  0.6748
 7131TIP3    H242885   0.129   6.431   2.698 -2.0014  0.7226 -0.5012
 7132TIP3   OH242886   2.781   6.225  14.257 -0.8648  0.6704  0.0473
 7132TIP3    H142887   2.832   6.144  14.259 -0.5630  0.8627  0.1167
 7132TIP3    H242888   2.740   6.224  14.170 -1.0981  0.3018  0.1561
 7133TIP3   OH242889   4.817   5.500   1.097 -0.6254  0.3277  0.1518
 7133TIP3    H142890   4.879   5.443   1.144 -0.7149  0.1511  0.0580
 7133TIP3    H242891   4.836   5.588   1.129  0.6871  0.4910 -0.9355
 7134TIP3   OH242892   5.442   3.509  10.987  0.4585  0.0036 -0.5520
 7134TIP3    H142893   5.531   3.479  10.968  0.2736  0.2774 -1.9202
 7134TIP3    H242894   5.390   3.429  10.989  0.6286 -0.1044 -0.3039
 7135TIP3   OH242895   0.967   0.883  16.535 -0.0446 -0.1097 -0.4091
 7135TIP3    H142896   0.964   0.972  16.568 -2.0164  0.0375 -0.8524
 7135TIP3    H242897   0.970   0.893  16.440 -0.6502 -0.5137 -0.4731
 7136TIP3   OH242898   6.048   1.499  15.415  0.3452  0.3087 -0.0276
 7136TIP3    H142899   5.954   1.490  15.433  0.5209 -0.1441  0.7411
 7136TIP3    H242900   6.070   1.423  15.362  0.4730 -0.1410  0.6590
 7137TIP3   OH242901   4.610   4.065   4.353  0.0546 -0.3767 -0.1652
 7137TIP3    H142902   4.625   4.018   4.271  0.1438  1.0823 -1.0290
 7137TIP3    H242903   4.698   4.084   4.386  0.0227 -0.5494  0.0171
 7138TIP3   OH242904   1.266   3.693  12.476 -0.1369  0.2471 -0.5499
 7138TIP3    H142905   1.270   3.686  12.571 -1.2403 -1.0888 -0.5540
 7138TIP3    H242906   1.251   3.603  12.446 -2.7093  0.9772 -1.7662
 7139TIP3   OH242907   3.581   0.197  12.011 -0.2185 -0.8222  0.4655
 7139TIP3    H142908   3.592   0.291  12.020 -1.0398 -0.7869  1.2648
 7139TIP3    H242909   3.504   0.187  11.954 -1.0366 -0.9744  1.5556
 7140TIP3   OH242910   0.431   1.087   1.613  0.0098 -1.0150  0.5787
 7140TIP3    H142911   0.375   1.135   1.553  1.7001  0.6605  0.2616
 7140TIP3    H242912   0.373   1.020   1.651 -1.2198 -1.8536 -2.5069
 7141TIP3   OH242913   6.301   0.084  16.500 -0.1311 -0.6260 -0.2971
 7141TIP3    H142914   6.280  -0.009  16.505  2.6254 -1.3619 -0.7672
 7141TIP3    H242915   6.394   0.089  16.522 -0.2648  2.0810  0.0188
 7142TIP3   OH242916   4.086   3.127   2.080 -0.1943 -0.2518 -0.4479
 7142TIP3    H142917   4.091   3.033   2.062 -0.8278 -0.4745  0.4559
 7142TIP3    H242918   4.018   3.134   2.148  0.5820  0.7476  0.2364
 7143TIP3   OH242919   1.656   4.420  10.676 -0.1161 -0.0433  0.1517
 7143TIP3    H142920   1.576   4.461  10.708 -0.9541 -1.1333 -0.4975
 7143TIP3    H242921   1.651   4.427  10.581  0.3966 -0.4307  0.0904
 7144TIP3   OH242922   6.548   4.106  13.134 -0.2110 -0.4519 -0.1968
 7144TIP3    H142923   6.541   4.201  13.119  1.3576 -0.5826 -2.0503
 7144TIP3    H242924   6.577   4.099  13.225 -2.3528  0.7138  0.6635
 7145TIP3   OH242925   1.586   1.102  14.664  0.0844  0.1592 -0.1015
 7145TIP3    H142926   1.580   1.189  14.627 -1.2456 -0.0873 -0.5245
 7145TIP3    H242927   1.606   1.116  14.757 -2.1589  1.0364  0.3086
 7146TIP3   OH242928   0.109   2.057   3.839  0.1398 -0.3092 -0.4370
 7146TIP3    H142929   0.203   2.063   3.822 -0.1631  2.7269 -1.6444
 7146TIP3    H242930   0.099   1.974   3.885  3.2392 -1.2800 -1.2439
 7147TIP3   OH242931   2.539   0.910  14.437  0.1383  0.4184  0.1017
 7147TIP3    H142932   2.583   0.825  14.441  0.7911  0.7692  3.3756
 7147TIP3    H242933   2.451   0.891  14.406  0.3621 -1.4142  0.5033
 7148TIP3   OH242934   4.642   1.128   0.688  0.0873 -0.0057  0.0121
 7148TIP3    H142935   4.612   1.118   0.598  0.5689 -1.5862 -0.0019
 7148TIP3    H242936   4.581   1.074   0.739 -0.3194  1.0539  0.6798
 7149TIP3   OH242937   2.110   6.758  14.392 -0.2674  0.1673  0.0011
 7149TIP3    H142938   2.024   6.767  14.433  0.4658 -0.5905  1.8579
 7149TIP3    H242939   2.110   6.669  14.356 -0.1841  0.0582  0.2618
 7150TIP3   OH242940   0.587   4.041  14.713 -0.2101  0.2501 -0.1544
 7150TIP3    H142941   0.612   3.948  14.717  0.5463  0.4093 -0.8531
 7150TIP3    H242942   0.492   4.040  14.719 -0.1523 -0.4820  1.1071
 7151TIP3   OH242943   0.866   6.042   3.828  0.1109 -0.5534 -0.9162
 7151TIP3    H142944   0.862   5.984   3.904 -3.6890  1.7871  0.9931
 7151TIP3    H242945   0.933   6.107   3.851 -2.2229  1.2107  1.5586
 7152TIP3   OH242946   4.390   6.789  16.599 -0.0472  0.1891  0.2876
 7152TIP3    H142947   4.413   6.735  16.675  0.4040  0.4394  0.3352
 7152TIP3    H242948   4.323   6.850  16.631  0.0657  0.2230  0.4583
 7153TIP3   OH242949   0.736   3.316   2.489  0.1749 -0.0648  0.3883
 7153TIP3    H142950   0.739   3.288   2.580 -0.1325 -0.6936  0.2147
 7153TIP3    H242951   0.818   3.285   2.451 -0.4299 -1.2840  0.0486
 7154TIP3   OH242952   4.812   2.747  11.476  0.3760  0.1190  0.4469
 7154TIP3    H142953   4.850   2.673  11.523  0.1770 -1.1181 -1.2579
 7154TIP3    H242954   4.814   2.819  11.539  1.1821 -1.1520  1.9355
 7155TIP3   OH242955   3.325   5.764   0.349 -0.2367  0.9243 -0.2754
 7155TIP3    H142956   3.405   5.711   0.358 -0.2627  1.1198  1.5104
 7155TIP3    H242957   3.355   5.854   0.354 -0.5553  0.9981  0.4718
 7156TIP3   OH242958   0.285   3.324  17.304 -0.0678 -0.8295 -0.9525
 7156TIP3    H142959   0.246   3.275  17.377 -0.3582 -1.0819 -1.2752
 7156TIP3    H242960   0.294   3.413  17.337 -2.4775 -0.3569 -1.4221
 7157TIP3   OH242961   1.485   2.406   1.380 -0.3613 -0.3345 -0.1115
 7157TIP3    H142962   1.497   2.318   1.416 -0.7988 -1.0478 -1.6243
 7157TIP3    H242963   1.400   2.402   1.336 -0.2272  0.7450 -0.4821
 7158TIP3   OH242964   2.525   1.280   1.293  0.5923  0.1745 -0.3635
 7158TIP3    H142965   2.553   1.218   1.360  4.1550  1.7038 -0.1976
 7158TIP3    H242966   2.497   1.225   1.220  0.2281 -1.5671  1.0304
 7159TIP3   OH242967   1.441   2.735  15.520 -0.3476  0.1880 -0.3013
 7159TIP3    H142968   1.406   2.647  15.523 -1.1288  0.5122  1.8839
 7159TIP3    H242969   1.428   2.770  15.608  0.5347  2.2617 -0.9089
 7160TIP3   OH242970   1.202   6.586  17.042  0.1681 -0.5766 -0.0061
 7160TIP3    H142971   1.166   6.511  17.090  2.3386 -0.5764  1.8070
 7160TIP3    H242972   1.196   6.560  16.950  1.7391 -3.5220  0.5840
 7161TIP3   OH242973   3.778   4.280   1.544  0.4144 -0.2530 -0.6035
 7161TIP3    H142974   3.833   4.267   1.622 -0.5420 -0.6502  0.0219
 7161TIP3    H242975   3.839   4.313   1.478  1.4106 -0.7029  0.0558
 7162TIP3   OH242976   1.460   2.072   1.444 -0.5704 -0.2022 -0.2388
 7162TIP3    H142977   1.518   2.075   1.368  0.5211  1.0567  0.5926
 7162TIP3    H242978   1.415   1.988   1.437  0.8081 -0.8837 -1.3212
 7163TIP3   OH242979   2.759   5.960  12.135 -1.0813  0.3722 -0.1100
 7163TIP3    H142980   2.810   5.892  12.179 -1.9405  0.8107  1.6595
 7163TIP3    H242981   2.800   6.042  12.162 -0.1469  0.6397 -2.1040
 7164TIP3   OH242982   0.643   0.887   4.666 -0.1044 -0.5824 -0.6469
 7164TIP3    H142983   0.562   0.924   4.701  0.1445 -1.3646  0.8225
 7164TIP3    H242984   0.701   0.963   4.655  0.6897 -0.4454  3.0934
 7165TIP3   OH242985   2.432   6.223  14.109 -0.2690 -0.5741  0.3638
 7165TIP3    H142986   2.495   6.151  14.116 -2.7046 -3.1006 -1.3677
 7165TIP3    H242987   2.422   6.237  14.015 -0.8201  1.1608  0.6521
 7166TIP3   OH242988   0.710   4.773  16.963 -0.4561  0.5387  0.4138
 7166TIP3    H142989   0.750   4.846  16.916 -0.3117  0.3534  0.2476
 7166TIP3    H242990   0.663   4.724  16.896  0.6066 -0.3158  0.2582
 7167TIP3   OH242991   5.604   3.348   6.868 -0.3934 -0.2746 -0.0645
 7167TIP3    H142992   5.533   3.340   6.931 -0.5735 -0.2148 -0.2583
 7167TIP3    H242993   5.579   3.421   6.812  1.0760  1.4848  1.4641
 7168TIP3   OH242994   0.783   0.926  12.855  0.1401 -0.1826  0.0368
 7168TIP3    H142995   0.787   1.020  12.833  2.3978 -0.0003  1.0061
 7168TIP3    H242996   0.722   0.890  12.790  0.4544  1.6713 -1.4056
 7169TIP3   OH242997   6.392   1.775   2.422  0.3366  0.1837  0.5107
 7169TIP3    H142998   6.312   1.734   2.455  1.8156 -2.3480  1.2610
 7169TIP3    H242999   6.429   1.820   2.498 -0.1041  0.9645  0.2770
 7170TIP3   OH243000   1.759   0.333  16.282  0.5026  0.0091 -0.0240
 7170TIP3    H143001   1.839   0.284  16.262  1.0089 -0.1212  2.0114
 7170TIP3    H243002   1.788   0.399  16.345 -0.5609  1.6111 -1.1537
 7171TIP3   OH243003   1.112   5.545   5.760 -0.2960 -0.1545 -0.2550
 7171TIP3    H143004   1.120   5.640   5.766 -1.0271 -0.1847  2.3872
 7171TIP3    H243005   1.042   5.523   5.822 -2.0810 -2.2167 -2.7889
 7172TIP3   OH243006   1.599   0.614  16.258  0.0928  0.8989 -0.2555
 7172TIP3    H143007   1.660   0.549  16.223 -0.7402  0.3442 -0.6989
 7172TIP3    H243008   1.648   0.656  16.329 -0.2527 -2.1197  1.9830
 7173TIP3   OH243009   4.863   6.100   3.606  0.2684  0.1385  0.2309
 7173TIP3    H143010   4.894   6.033   3.667 -1.8469 -0.6173  0.5891
 7173TIP3    H243011   4.932   6.107   3.540  0.4176 -2.7180 -0.0462
 7174TIP3   OH243012   1.071   4.136   3.443 -0.4136  0.3219  0.3046
 7174TIP3    H143013   1.032   4.205   3.388 -0.2368  0.4669  0.3600
 7174TIP3    H243014   0.996   4.085   3.474 -0.6036  0.8885  0.8053
 7175TIP3   OH243015   2.704   3.966   6.177  0.2997  0.1938  0.1876
 7175TIP3    H143016   2.627   3.919   6.211  0.7305 -0.5236  0.1939
 7175TIP3    H243017   2.778   3.910   6.199  1.1011  1.8358  2.0257
 7176TIP3   OH243018   1.706   1.499   1.940 -0.3008  0.2503  0.5516
 7176TIP3    H143019   1.693   1.592   1.960 -0.7420 -0.3400  3.4205
 7176TIP3    H243020   1.621   1.471   1.906 -0.7872  0.5127  1.5044
 7177TIP3   OH243021   4.915   3.494  12.427 -0.5930 -0.2269  0.1779
 7177TIP3    H143022   4.987   3.507  12.365 -0.4045 -1.5837  0.0948
 7177TIP3    H243023   4.909   3.578  12.474  0.1687  0.3452 -0.7114
 7178TIP3   OH243024   5.455   3.488   3.682  0.6316 -0.2258 -0.0947
 7178TIP3    H143025   5.384   3.430   3.709 -1.0855  1.5172 -0.5803
 7178TIP3    H243026   5.506   3.437   3.619 -0.2257 -1.5054  0.2220
 7179TIP3   OH243027   2.249   5.351  16.000 -0.0558 -0.0127 -0.0778
 7179TIP3    H143028   2.328   5.336  16.051 -0.2320 -2.9614 -0.5183
 7179TIP3    H243029   2.276   5.412  15.931  1.2998  0.5478  0.9155
 7180TIP3   OH243030   1.905   4.275   5.578 -0.1099  0.1455 -0.1564
 7180TIP3    H143031   1.930   4.367   5.576 -1.0494  0.4356  0.4598
 7180TIP3    H243032   1.967   4.231   5.521  1.4027  0.9103  0.8472
 7181TIP3   OH243033   4.501   3.084   6.524 -0.2412  0.5883  0.5448
 7181TIP3    H143034   4.454   3.166   6.507  0.9782  1.1646 -0.1947
 7181TIP3    H243035   4.586   3.112   6.557  0.0767 -0.4000  0.5775
 7182TIP3   OH243036   0.246   4.853   0.771 -0.0293 -0.4538  0.8498
 7182TIP3    H143037   0.301   4.813   0.703 -2.0391  0.8725 -1.7616
 7182TIP3    H243038   0.175   4.790   0.785  0.1608 -0.5429  1.4080
 7183TIP3   OH243039   4.400   2.620   1.462 -0.4808 -0.2622  0.2468
 7183TIP3    H143040   4.431   2.706   1.433 -2.1363  0.6682  1.0537
 7183TIP3    H243041   4.361   2.637   1.548  3.1477 -2.6337  2.6902
 7184TIP3   OH243042   0.812   3.798  15.203  0.1343 -0.2373 -0.3232
 7184TIP3    H143043   0.836   3.725  15.260 -3.8984 -2.2048 -0.8369
 7184TIP3    H243044   0.739   3.841  15.247  0.4899  1.7186 -1.4843
 7185TIP3   OH243045   3.636   5.236   3.337 -0.1051  0.1737 -0.1022
 7185TIP3    H143046   3.644   5.322   3.295  1.7255 -0.5468 -1.3517
 7185TIP3    H243047   3.714   5.188   3.309 -2.2642 -2.8304 -1.6017
 7186TIP3   OH243048   3.666   1.639  10.695 -0.0407 -0.1451 -0.0789
 7186TIP3    H143049   3.584   1.596  10.673  0.6085 -1.1354 -0.6810
 7186TIP3    H243050   3.644   1.700  10.765 -1.5237  0.5415 -1.0919
 7187TIP3   OH243051   2.730   6.272  14.609 -0.3103  0.5310 -0.2737
 7187TIP3    H143052   2.808   6.297  14.559 -0.9341 -1.1334 -2.2100
 7187TIP3    H243053   2.678   6.220  14.547 -2.3419  0.5108  1.3737
 7188TIP3   OH243054   2.905   5.265  13.365 -0.2494  0.1835  0.0433
 7188TIP3    H143055   2.916   5.326  13.439 -2.2470 -0.0755  0.6165
 7188TIP3    H243056   2.919   5.320  13.287  0.6149  0.7487  0.5703
 7189TIP3   OH243057   3.877   2.928  14.369  0.2389 -0.1665 -0.9132
 7189TIP3    H143058   3.823   2.978  14.431 -1.0587 -1.3703 -1.0308
 7189TIP3    H243059   3.814   2.884  14.312  1.3376 -1.7522 -0.9608
 7190TIP3   OH243060   5.269   0.721   0.827 -0.3492  0.2760  0.9498
 7190TIP3    H143061   5.300   0.641   0.871 -1.0716  0.0211  1.0070
 7190TIP3    H243062   5.187   0.695   0.786  0.4905  0.4064 -0.9244
 7191TIP3   OH243063   0.774   6.620   2.017 -0.3914  0.0716  0.4862
 7191TIP3    H143064   0.729   6.559   2.075  1.8063 -0.3362  1.9097
 7191TIP3    H243065   0.730   6.704   2.030 -2.1327 -0.7384  0.0631
 7192TIP3   OH243066   1.582   1.517   3.960  0.3801  0.4652 -0.5723
 7192TIP3    H143067   1.638   1.510   4.038  0.5824  1.0493 -0.6560
 7192TIP3    H243068   1.642   1.499   3.887  0.5605  1.4594 -0.6875
 7193TIP3   OH243069   6.530   6.048  10.989 -0.0338  0.3340  0.1083
 7193TIP3    H143070   6.553   6.093  11.070 -1.4369  0.7831  0.2808
 7193TIP3    H243071   6.440   6.019  11.001 -0.5332  1.0477 -1.5427
 7194TIP3   OH243072   6.785   0.262  17.234  0.0308 -0.4903 -0.2822
 7194TIP3    H143073   6.813   0.185  17.282  1.4488 -0.3151 -0.7843
 7194TIP3    H243074   6.765   0.230  17.146  2.0271 -0.1128 -0.9244
 7195TIP3   OH243075   4.846   4.297   2.472  0.2663  0.0174  0.0241
 7195TIP3    H143076   4.940   4.276   2.471  0.6401  1.5975 -0.5128
 7195TIP3    H243077   4.804   4.224   2.428  1.4249  0.0447 -1.1633
 7196TIP3   OH243078   3.613   1.817   2.825 -0.7500 -0.0651 -0.2850
 7196TIP3    H143079   3.565   1.766   2.890  0.2663 -0.6572  0.0111
 7196TIP3    H243080   3.664   1.879   2.875 -0.5973  0.0308 -0.5568
 7197TIP3   OH243081   4.753   6.569  10.584  0.1147  0.3929 -0.0419
 7197TIP3    H143082   4.812   6.617  10.526 -0.4362  2.2506  0.8628
 7197TIP3    H243083   4.672   6.558  10.533 -1.0228  3.6036  0.8392
 7198TIP3   OH243084   0.256   2.779   5.072  0.1375  0.2986  0.2389
 7198TIP3    H143085   0.301   2.735   5.144 -2.1036 -0.5885  1.1932
 7198TIP3    H243086   0.253   2.713   5.002 -2.2134 -0.8027  1.2634
 7199TIP3   OH243087   4.936   0.693  12.726 -0.0155 -0.0626 -0.8552
 7199TIP3    H143088   4.936   0.638  12.804 -0.8817  1.7306  0.4527
 7199TIP3    H243089   5.027   0.691  12.696  1.1763  1.7939  2.1536
 7200TIP3   OH243090   0.179   1.515  15.201  0.2865 -0.3018  1.2098
 7200TIP3    H143091   0.124   1.589  15.227 -0.9568 -1.2631  1.4319
 7200TIP3    H243092   0.122   1.461  15.146  2.1833  0.6051 -1.9497
 7201TIP3   OH243093   6.547   3.684   3.599  0.0838 -0.0624  0.1402
 7201TIP3    H143094   6.593   3.735   3.665  1.4670 -0.5498 -0.4090
 7201TIP3    H243095   6.535   3.745   3.526  0.4326 -0.1089  0.0425
 7202TIP3   OH243096   6.621   2.878   4.196 -0.0904  0.5036  0.0412
 7202TIP3    H143097   6.626   2.973   4.185 -1.3694  0.3099 -3.1379
 7202TIP3    H243098   6.706   2.846   4.165 -1.0657  0.4468 -2.8087
 7203TIP3   OH243099   1.971   0.821  14.809  0.5165  0.0282  0.1309
 7203TIP3    H143100   1.912   0.860  14.873  1.4838  1.9175 -0.0497
 7203TIP3    H243101   2.047   0.793  14.860  0.6208  0.1109  0.0229
 7204TIP3   OH243102   6.126   2.213   2.108  0.3929 -0.7476  0.1908
 7204TIP3    H143103   6.161   2.139   2.158 -1.0680 -2.1999 -0.8234
 7204TIP3    H243104   6.074   2.172   2.039 -1.9987  1.2561  0.6787
 7205TIP3   OH243105   0.310   3.013  14.740  0.0341 -0.6998  0.4362
 7205TIP3    H143106   0.217   3.033  14.742 -0.1105 -1.0421 -1.2398
 7205TIP3    H243107   0.349   3.071  14.805 -0.9790  1.5537 -0.8720
 7206TIP3   OH243108   0.921   6.581   5.835  0.2743  0.3209  0.2281
 7206TIP3    H143109   0.926   6.570   5.930  1.1530 -2.1618 -0.0203
 7206TIP3    H243110   0.953   6.498   5.800 -2.8364 -0.0371 -2.2328
 7207TIP3   OH243111   5.625   5.324  11.111 -0.4800 -0.7178  0.3290
 7207TIP3    H143112   5.605   5.417  11.099  1.6265 -0.3682 -1.0123
 7207TIP3    H243113   5.703   5.324  11.166  0.4035 -1.5907 -0.8737
 7208TIP3   OH243114   3.759   6.034   5.410 -0.3022 -0.8141  0.7662
 7208TIP3    H143115   3.674   6.062   5.442 -0.9105 -0.3464 -1.1368
 7208TIP3    H243116   3.821   6.065   5.476 -1.1396  3.0452  0.0039
 7209TIP3   OH243117   0.189   3.753  11.112  0.1691 -0.1668  0.1897
 7209TIP3    H143118   0.239   3.687  11.065  1.6934  0.5396  0.7500
 7209TIP3    H243119   0.196   3.832  11.059 -1.8155 -0.4380 -0.5845
 7210TIP3   OH243120   6.396   5.936  14.537  0.5324  0.2684  0.1388
 7210TIP3    H143121   6.490   5.934  14.557  0.1727 -0.5725  1.9314
 7210TIP3    H243122   6.355   5.968  14.618 -0.7043  1.1117 -0.7902
 7211TIP3   OH243123   0.585   5.024  17.294  0.8563  0.4904  0.1004
 7211TIP3    H143124   0.639   4.950  17.320  1.0357  0.6153  0.0881
 7211TIP3    H243125   0.612   5.044  17.204 -0.0775 -0.2243 -0.3484
 7212TIP3   OH243126   2.389   2.599   3.485  0.1056 -0.2475  0.0795
 7212TIP3    H143127   2.368   2.625   3.575 -0.3697 -2.2095  0.5955
 7212TIP3    H243128   2.330   2.651   3.431 -0.3235  0.2264  0.9696
 7213TIP3   OH243129   3.820   1.439   0.510 -0.6244  0.3821 -0.1953
 7213TIP3    H143130   3.774   1.365   0.470 -1.3942 -0.1979  1.6625
 7213TIP3    H243131   3.828   1.503   0.439 -1.3742 -0.8314 -1.4277
 7214TIP3   OH243132   2.300   0.656  12.963  0.2189  0.6988 -0.2506
 7214TIP3    H143133   2.254   0.659  13.047  0.2410 -2.1525 -0.0440
 7214TIP3    H243134   2.232   0.635  12.899  0.4258  1.5534 -0.7685
 7215TIP3   OH243135   6.285   1.997   6.057  0.1183  0.3788 -0.1333
 7215TIP3    H143136   6.372   1.997   6.097  0.2347 -0.2788 -0.3805
 7215TIP3    H243137   6.289   2.064   5.989  0.7430 -0.3246 -0.8032
 7216TIP3   OH243138   6.455   5.785  13.636 -0.2065  0.1101  0.2004
 7216TIP3    H143139   6.377   5.822  13.677  0.1545  0.9460  0.1530
 7216TIP3    H243140   6.524   5.796  13.702 -0.0832 -0.4475  0.1703
 7217TIP3   OH243141   3.341   2.183   1.630  0.1614 -0.2147 -0.1094
 7217TIP3    H143142   3.391   2.245   1.683 -1.6694  2.8453 -1.6582
 7217TIP3    H243143   3.250   2.195   1.657 -0.2269 -2.7196 -0.0926
 7218TIP3   OH243144   5.833   3.187   3.820  0.1486  0.1369  0.5738
 7218TIP3    H143145   5.749   3.146   3.842 -0.4248  0.7063 -0.4450
 7218TIP3    H243146   5.898   3.121   3.841 -0.7331 -1.3104 -0.9084
 7219TIP3   OH243147   2.751   2.019  12.134  0.2988  0.0119  0.6331
 7219TIP3    H143148   2.717   2.062  12.213 -0.8295  0.7666 -0.2298
 7219TIP3    H243149   2.673   1.979  12.094  0.8827 -0.4940 -0.0166
 7220TIP3   OH243150   4.944   5.846   4.996 -0.4725  0.1906  0.1508
 7220TIP3    H143151   4.963   5.890   4.914  0.5576  0.7925  0.6809
 7220TIP3    H243152   5.029   5.842   5.041 -1.0628  0.1470  1.3093
 7221TIP3   OH243153   3.049   4.271   4.791  0.1271 -0.3312  0.0583
 7221TIP3    H143154   3.016   4.314   4.870  0.2649  0.3295 -0.2338
 7221TIP3    H243155   2.981   4.288   4.725 -0.3106 -1.4606  0.2036
 7222TIP3   OH243156   6.765   3.752   0.957 -0.2774 -0.8417  0.0728
 7222TIP3    H143157   6.810   3.760   0.873 -1.1651 -1.7201 -0.5087
 7222TIP3    H243158   6.834   3.762   1.022  0.4942 -0.5735 -0.7664
 7223TIP3   OH243159   0.562   4.187   2.334  0.2009 -0.1091 -0.1525
 7223TIP3    H143160   0.516   4.262   2.298 -0.8549  0.8823  2.9398
 7223TIP3    H243161   0.496   4.117   2.337 -0.1407  0.2375  1.0186
 7224TIP3   OH243162   0.205   0.877   1.631  0.3848 -0.2477 -0.0989
 7224TIP3    H143163   0.135   0.828   1.673  0.5486 -1.1333 -0.8135
 7224TIP3    H243164   0.179   0.882   1.539  0.8478  0.1597 -0.2133
 7225TIP3   OH243165   2.374   2.181   2.370 -0.0853  0.2639 -0.2878
 7225TIP3    H143166   2.366   2.192   2.465 -1.1847 -2.0215 -0.0544
 7225TIP3    H243167   2.464   2.153   2.357  0.0899  0.6495  0.0572
 7226TIP3   OH243168   2.890   0.545  17.259 -0.0510 -0.0573 -0.0077
 7226TIP3    H143169   2.847   0.476  17.310 -0.0493  0.2827  0.4570
 7226TIP3    H243170   2.961   0.576  17.315  1.7484 -1.5879 -1.3158
 7227TIP3   OH243171   2.819   5.106  13.619  0.6501 -0.4694  0.5970
 7227TIP3    H143172   2.857   5.163  13.552 -2.2468 -0.2818 -1.0565
 7227TIP3    H243173   2.838   5.017  13.587 -0.4684 -0.3798 -0.3919
 7228TIP3   OH243174   2.801   5.723  10.732  0.0155 -0.4282 -0.0431
 7228TIP3    H143175   2.751   5.772  10.665  0.7995 -1.1838 -1.2208
 7228TIP3    H243176   2.780   5.768  10.814 -0.2298  1.1411 -0.9127
 7229TIP3   OH243177   1.311   3.741   5.154  0.3643  0.0379 -0.1924
 7229TIP3    H143178   1.332   3.648   5.145 -0.1280  0.0385 -1.5488
 7229TIP3    H243179   1.386   3.778   5.200 -0.1530 -1.2986  1.9079
 7230TIP3   OH243180   1.391   2.035  10.873  0.1466 -0.0107  0.5533
 7230TIP3    H143181   1.401   2.124  10.841 -0.0544 -0.5156 -1.0224
 7230TIP3    H243182   1.297   2.018  10.866  0.0519 -0.0171  1.7849
 7231TIP3   OH243183   3.525   5.401   0.070 -0.6179 -0.2603 -0.4988
 7231TIP3    H143184   3.556   5.312   0.089  2.1779  0.6513 -0.5228
 7231TIP3    H243185   3.520   5.444   0.155  0.7004  0.3445 -0.7034
 7232TIP3   OH243186   6.121   6.604  12.690  0.1074  0.1318  0.1959
 7232TIP3    H143187   6.139   6.518  12.652 -0.9372  0.2568 -0.6366
 7232TIP3    H243188   6.168   6.604  12.773  0.8455 -0.9021 -0.1941
 7233TIP3   OH243189   5.626   2.241  12.198  0.1396  0.6614  0.1894
 7233TIP3    H143190   5.657   2.303  12.132 -0.0679 -0.0394 -0.5897
 7233TIP3    H243191   5.553   2.196  12.156  0.8941 -0.7819  0.3543
 7234TIP3   OH243192   5.692   0.234   3.037 -0.1092  0.5221  0.0359
 7234TIP3    H143193   5.709   0.241   3.131 -0.8260  1.3678  0.1146
 7234TIP3    H243194   5.638   0.310   3.017 -1.2942 -0.4808 -0.7586
 7235TIP3   OH243195   2.468   0.708   6.663 -0.3268 -0.0609 -0.5443
 7235TIP3    H143196   2.403   0.660   6.714  0.3154 -0.7637 -0.3729
 7235TIP3    H243197   2.549   0.700   6.713 -0.1819  1.1653 -0.5362
 7236TIP3   OH243198   3.303   0.747  15.223 -0.1123 -0.6192 -0.0873
 7236TIP3    H143199   3.268   0.668  15.180 -0.9042 -0.2043 -0.2239
 7236TIP3    H243200   3.318   0.809  15.151  2.5907 -1.3478 -0.2744
 7237TIP3   OH243201   2.382   5.439   5.726 -0.5831 -0.3731 -0.2470
 7237TIP3    H143202   2.389   5.388   5.645 -0.1949  2.0032 -1.8256
 7237TIP3    H243203   2.375   5.530   5.696 -0.9586  0.5531  2.4052
 7238TIP3   OH243204   4.958   3.780   5.663  0.0765 -0.0984  0.8007
 7238TIP3    H143205   5.008   3.699   5.663  1.1409  0.5104 -0.5830
 7238TIP3    H243206   5.015   3.843   5.618 -1.0143  1.2227  1.1934
 7239TIP3   OH243207   0.608   3.174   1.857  0.7413 -0.2561  0.4919
 7239TIP3    H143208   0.582   3.233   1.928  0.9205 -0.2220  0.5300
 7239TIP3    H243209   0.586   3.221   1.777  1.2707  0.0425  0.5171
 7240TIP3   OH243210   4.461   5.193  13.390  0.3243 -0.2583  1.2254
 7240TIP3    H143211   4.413   5.171  13.311  1.9913  0.3690 -0.0412
 7240TIP3    H243212   4.417   5.271  13.424 -2.8214 -2.7089  3.2205
 7241TIP3   OH243213   6.586   5.511   1.024 -0.4379  0.0379 -0.0425
 7241TIP3    H143214   6.602   5.456   1.102 -1.0334  0.6884  0.5521
 7241TIP3    H243215   6.542   5.589   1.059  0.0670  0.7286 -0.9268
 7242TIP3   OH243216   1.043   4.805   3.371 -0.5938 -0.7775  0.8931
 7242TIP3    H143217   1.099   4.805   3.293 -0.1631  2.6631  1.0595
 7242TIP3    H243218   1.038   4.713   3.396  3.9443 -1.5107  0.0873
 7243TIP3   OH243219   1.344   5.388  15.574  0.2456  0.0382  0.4856
 7243TIP3    H143220   1.260   5.408  15.613 -0.9312 -0.8598 -1.4424
 7243TIP3    H243221   1.355   5.293  15.585 -0.6223 -0.4416 -2.1157
 7244TIP3   OH243222   0.995   5.531  11.511 -0.2109  0.1659 -0.3857
 7244TIP3    H143223   0.929   5.548  11.444  0.9937 -0.8783 -1.9296
 7244TIP3    H243224   1.070   5.583  11.484  0.9449 -1.6906 -0.9845
 7245TIP3   OH243225   0.132   2.053   5.505  0.6883 -0.2130  0.4264
 7245TIP3    H143226   0.070   2.122   5.486 -0.1670 -0.1245  3.1206
 7245TIP3    H243227   0.144   2.008   5.422 -2.5548  0.1071 -0.3474
 7246TIP3   OH243228   1.953   5.384   6.231 -0.0426 -0.0915 -0.1979
 7246TIP3    H143229   1.988   5.383   6.320  2.0864  0.7238 -0.9616
 7246TIP3    H243230   1.881   5.447   6.235  2.4669  3.0378  0.2305
 7247TIP3   OH243231   5.585   6.174   3.652 -0.0891 -0.5770 -0.6572
 7247TIP3    H143232   5.588   6.187   3.558 -0.2419 -0.4453 -0.6440
 7247TIP3    H243233   5.619   6.256   3.689 -2.3242  0.3735 -0.5385
 7248TIP3   OH243234   4.093   2.112  17.184 -0.0143 -0.1965  0.2828
 7248TIP3    H143235   4.057   2.068  17.106 -0.1657 -1.3266  0.9688
 7248TIP3    H243236   4.025   2.103  17.250  1.6141 -2.7650  1.7405
 7249TIP3   OH243237   3.219   1.555   1.508  0.0922 -0.5389 -0.2999
 7249TIP3    H143238   3.135   1.560   1.463 -0.6221  0.7144  1.0891
 7249TIP3    H243239   3.260   1.640   1.491 -0.2998  0.0627  1.5525
 7250TIP3   OH243240   4.340   1.407  15.843  0.1170  0.3366 -0.1274
 7250TIP3    H143241   4.429   1.377  15.861  0.1491 -0.3877 -1.3840
 7250TIP3    H243242   4.290   1.380  15.920  0.6678 -0.6817 -0.1075
 7251TIP3   OH243243   3.389   4.223   5.382  0.7810 -0.4151  0.1533
 7251TIP3    H143244   3.449   4.237   5.455 -1.1494  0.2430  1.7183
 7251TIP3    H243245   3.388   4.307   5.336 -1.0396  0.5808  1.8620
 7252TIP3   OH243246   4.752   1.586   0.546  0.0640 -0.7326  0.1910
 7252TIP3    H143247   4.685   1.521   0.566  1.6654 -2.2422  0.9428
 7252TIP3    H243248   4.798   1.600   0.629  1.0124 -0.1637 -0.4118
 7253TIP3   OH243249   1.572   3.035  14.416 -0.0938  0.2421  0.2604
 7253TIP3    H143250   1.543   2.950  14.447  0.7805 -0.4501 -0.7422
 7253TIP3    H243251   1.532   3.044  14.329 -0.5462  1.0641  0.5362
 7254TIP3   OH243252   5.483   2.650  14.994  0.1400 -0.0760 -0.4376
 7254TIP3    H143253   5.488   2.735  15.038 -0.6535  0.5888 -1.5861
 7254TIP3    H243254   5.573   2.617  14.996  0.7144  1.3852 -1.1205
 7255TIP3   OH243255   6.205   2.377  15.882  0.3492  0.6636  0.2376
 7255TIP3    H143256   6.165   2.375  15.795 -0.4124 -0.5882  0.5794
 7255TIP3    H243257   6.135   2.348  15.941  1.2202  0.2606  1.1013
 7256TIP3   OH243258   2.347   0.176   3.037  0.1886 -0.2742 -0.1792
 7256TIP3    H143259   2.426   0.153   3.085 -0.0965  0.1456  0.4983
 7256TIP3    H243260   2.364   0.265   3.004  0.1336 -0.3190 -0.3319
 7257TIP3   OH243261   3.943   3.460  12.937 -0.4054 -0.0364  0.5581
 7257TIP3    H143262   3.978   3.397  12.873 -0.2290 -0.0601  0.6773
 7257TIP3    H243263   4.011   3.528  12.943  2.0177 -2.4054  4.3732
 7258TIP3   OH243264   4.610   3.986   0.802 -0.2711 -0.2172  0.1521
 7258TIP3    H143265   4.526   3.940   0.800  0.4325 -1.5130 -1.2034
 7258TIP3    H243266   4.615   4.030   0.717  0.1693  0.3670  0.4713
 7259TIP3   OH243267   6.800   4.925  13.875 -0.3071  1.3758  0.0525
 7259TIP3    H143268   6.785   4.841  13.920  1.4072  0.7225 -0.4883
 7259TIP3    H243269   6.729   4.981  13.905 -0.5018  0.2782  1.8388
 7260TIP3   OH243270   3.779   2.071  12.533  0.4385  0.2922 -0.1277
 7260TIP3    H143271   3.781   1.981  12.502 -0.4494  0.3386 -0.3587
 7260TIP3    H243272   3.845   2.116  12.480  0.9964 -0.2463  0.0998
 7261TIP3   OH243273   3.624   6.220   1.607 -0.5356  0.1695 -0.1089
 7261TIP3    H143274   3.661   6.142   1.566 -0.1437 -0.6493  1.6926
 7261TIP3    H243275   3.677   6.292   1.573  0.4797 -0.6032 -0.2311
 7262TIP3   OH243276   4.486   3.229   6.243  0.1554 -0.3932 -0.2688
 7262TIP3    H143277   4.499   3.301   6.306 -0.3752 -0.6007  0.0835
 7262TIP3    H243278   4.551   3.245   6.175  0.4269  0.1014  0.0976
 7263TIP3   OH243279   4.334   1.352   0.221 -0.0515 -0.2055 -0.0499
 7263TIP3    H143280   4.248   1.395   0.226 -0.4829 -1.0358 -0.1017
 7263TIP3    H243281   4.392   1.418   0.184 -0.8892  0.0513 -0.9250
 7264TIP3   OH243282   4.724   4.027   2.997 -0.0687 -0.1774 -1.1591
 7264TIP3    H143283   4.690   4.115   3.011 -0.0428 -0.5283  1.5032
 7264TIP3    H243284   4.645   3.972   2.991 -0.1052 -0.0010 -3.2910
 7265TIP3   OH243285   0.591   1.986  15.651  0.0624 -0.0200 -0.0962
 7265TIP3    H143286   0.512   1.947  15.614  0.7965 -2.2462  0.5265
 7265TIP3    H243287   0.663   1.941  15.607  0.9528 -0.4033  1.6781
 7266TIP3   OH243288   0.431   1.899  14.614 -0.1455  0.1950 -0.3710
 7266TIP3    H143289   0.483   1.918  14.536  1.3104 -2.5915 -0.2053
 7266TIP3    H243290   0.340   1.902  14.584  0.3755 -0.4217 -2.1240
 7267TIP3   OH243291   6.746   6.112  13.881  0.2880  0.5493  0.4354
 7267TIP3    H143292   6.826   6.135  13.929  0.7383  0.1974 -0.1298
 7267TIP3    H243293   6.742   6.176  13.810  1.4979 -0.9536 -1.0890
 7268TIP3   OH243294   6.387   6.555   2.820  0.1141 -0.3807 -0.5892
 7268TIP3    H143295   6.302   6.591   2.845 -0.0311  1.5777 -3.4955
 7268TIP3    H243296   6.445   6.630   2.815  0.8301 -1.0209 -3.0234
 7269TIP3   OH243297   1.181   6.053   4.788  0.1656 -0.8300 -0.1381
 7269TIP3    H143298   1.131   6.071   4.708  1.2248  2.0217 -0.2581
 7269TIP3    H243299   1.113   6.043   4.856 -0.7441 -3.2681 -1.2711
 7270TIP3   OH243300   6.755   3.272   1.109  0.0806  0.1748  0.0352
 7270TIP3    H143301   6.761   3.191   1.161 -0.1190 -0.9012 -1.5548
 7270TIP3    H243302   6.676   3.315   1.140  0.0760 -0.3422  0.7618
 7271TIP3   OH243303   3.239   4.602   0.708  0.2636  0.7590  0.1220
 7271TIP3    H143304   3.232   4.692   0.676  2.3855  1.4403  1.3680
 7271TIP3    H243305   3.255   4.549   0.630 -0.4822  1.5140 -0.5551
 7272TIP3   OH243306   0.565   3.475  13.097  0.1706 -0.4936 -0.2354
 7272TIP3    H143307   0.643   3.490  13.150 -0.7091  0.1663  0.9398
 7272TIP3    H243308   0.526   3.562  13.087 -1.6565 -1.0559  1.2618
 7273TIP3   OH243309   5.026   0.651  13.101 -0.0086 -0.3439  0.3916
 7273TIP3    H143310   5.120   0.637  13.106  0.0106 -0.0048  1.0535
 7273TIP3    H243311   5.017   0.736  13.056 -0.0557 -1.0980 -1.1089
 7274TIP3   OH243312   5.121   1.401  17.132  0.7333  0.0680 -0.5082
 7274TIP3    H143313   5.085   1.376  17.047  0.3409  0.6111 -0.5040
 7274TIP3    H243314   5.045   1.411  17.189  0.6378  3.1903 -0.9963
 7275TIP3   OH243315   3.872   3.597  15.389 -0.1507  0.1377  0.6113
 7275TIP3    H143316   3.930   3.553  15.451  1.1691  2.2969  1.0230
 7275TIP3    H243317   3.930   3.654  15.339 -1.8095  1.8317  0.5337
 7276TIP3   OH243318   4.402   3.051   0.427  0.5748 -0.3083 -0.0969
 7276TIP3    H143319   4.416   3.107   0.351  0.3224 -0.4750 -0.2678
 7276TIP3    H243320   4.394   3.112   0.501  0.6941 -0.1408 -0.2228
 7277TIP3   OH243321   3.327   1.496  13.064  0.0835  0.3843  0.0104
 7277TIP3    H143322   3.290   1.584  13.064 -2.3464 -0.5336  0.2793
 7277TIP3    H243323   3.302   1.460  13.150 -0.4992 -1.1093 -0.7419
 7278TIP3   OH243324   6.542   0.653  15.708 -0.0427  0.1251  0.3077
 7278TIP3    H143325   6.495   0.678  15.788 -0.1819 -0.7729  0.5141
 7278TIP3    H243326   6.494   0.697  15.638  0.0732  0.9123  0.6979
 7279TIP3   OH243327   4.319   2.858   3.592 -0.0949  0.0657 -0.3634
 7279TIP3    H143328   4.289   2.945   3.617 -1.1430 -0.3368 -0.1586
 7279TIP3    H243329   4.303   2.804   3.669 -0.4112 -0.5254 -0.8311
 7280TIP3   OH243330   0.185   6.619   0.091  0.1635  0.2906  0.1028
 7280TIP3    H143331   0.213   6.550   0.031  1.6697  0.4996  0.5210
 7280TIP3    H243332   0.188   6.578   0.177  0.9940  0.8386  0.3435
 7281TIP3   OH243333   4.006   2.479  12.972  0.5568 -0.2616  0.2304
 7281TIP3    H143334   4.024   2.420  12.898  0.8948 -0.5639  0.5518
 7281TIP3    H243335   4.059   2.445  13.044  2.2053  1.4656 -0.0533
 7282TIP3   OH243336   0.630   2.540   5.718  0.1074  0.3670  0.2660
 7282TIP3    H143337   0.611   2.458   5.764  0.7599  0.3298  0.4667
 7282TIP3    H243338   0.719   2.530   5.685  1.0264  1.8001  2.1038
 7283TIP3   OH243339   1.178   0.466  16.842  0.3450 -0.1955 -0.3404
 7283TIP3    H143340   1.152   0.521  16.768 -0.4970  0.6544  0.5581
 7283TIP3    H243341   1.243   0.518  16.889  0.8165 -0.6991 -0.4205
 7284TIP3   OH243342   4.682   1.303  13.070 -0.0591 -0.1722  0.0920
 7284TIP3    H143343   4.756   1.360  13.089 -0.3246 -0.0652  0.8495
 7284TIP3    H243344   4.722   1.219  13.045  0.3187  0.1074 -0.2556
 7285TIP3   OH243345   6.592   6.466   2.973 -0.2930  0.2370 -0.0301
 7285TIP3    H143346   6.580   6.371   2.970 -2.3733  0.4297  0.3610
 7285TIP3    H243347   6.522   6.500   2.916  0.5057  1.5441 -0.2759
 7286TIP3   OH243348   3.875   6.157  11.918  0.4250  0.5745  0.5837
 7286TIP3    H143349   3.874   6.065  11.891 -1.3051  0.5529  0.6508
 7286TIP3    H243350   3.913   6.155  12.006 -1.2998 -0.3373  1.3531
 7287TIP3   OH243351   5.980   4.403  12.806  0.1640  0.2031  0.6022
 7287TIP3    H143352   5.931   4.419  12.725  0.9498 -1.9151 -0.3811
 7287TIP3    H243353   6.013   4.489  12.831 -2.8708  1.4912  0.5892
 7288TIP3   OH243354   5.489   6.370   2.300 -0.0031  0.2595 -0.5550
 7288TIP3    H143355   5.465   6.447   2.351  0.0824  0.2238 -0.4601
 7288TIP3    H243356   5.425   6.303   2.326 -0.4561  0.4785 -1.0918
 7289TIP3   OH243357   6.746   3.156   2.941  0.1404  0.2402 -0.4843
 7289TIP3    H143358   6.802   3.232   2.927 -0.4988  1.0334  0.9466
 7289TIP3    H243359   6.712   3.168   3.030 -0.3839 -1.4639 -0.4164
 7290TIP3   OH243360   2.027   0.651   0.994  0.2902 -0.0069 -0.1569
 7290TIP3    H143361   2.059   0.704   0.921 -1.0438  0.2913 -0.5637
 7290TIP3    H243362   1.938   0.684   1.010 -0.1020 -1.2770  0.4125
 7291TIP3   OH243363   2.332   2.382  15.206 -0.4562  0.3021  0.3997
 7291TIP3    H143364   2.363   2.416  15.290  1.3681 -1.2909  0.4427
 7291TIP3    H243365   2.273   2.311  15.230 -2.8087  2.0884  0.2907
 7292TIP3   OH243366   0.809   1.080   4.067 -0.5327 -0.4892  0.1257
 7292TIP3    H143367   0.895   1.098   4.029 -0.9287 -1.0614 -1.1164
 7292TIP3    H243368   0.815   1.110   4.157  0.2191  1.6217 -0.5846
 7293TIP3   OH243369   4.772   2.356  14.558 -0.4531  0.2143  0.3060
 7293TIP3    H143370   4.737   2.271  14.530 -0.4244 -0.0423  1.0170
 7293TIP3    H243371   4.696   2.407  14.583 -0.5477  0.7568 -1.0507
 7294TIP3   OH243372   0.442   1.244   0.068  0.1673 -0.2205 -0.3270
 7294TIP3    H143373   0.362   1.226   0.116 -1.1364  1.5685 -1.6898
 7294TIP3    H243374   0.496   1.294   0.129 -0.3090 -0.3015  0.1650
 7295TIP3   OH243375   4.598   0.049  10.294  0.7206 -0.0253 -0.1798
 7295TIP3    H143376   4.644   0.050  10.210 -0.8481 -1.2886 -1.1287
 7295TIP3    H243377   4.627  -0.031  10.337  1.1606  0.3753  0.2773
 7296TIP3   OH243378   0.359   3.018  15.588 -0.1126  0.3256 -0.4326
 7296TIP3    H143379   0.302   2.963  15.641 -0.7579 -0.1443 -1.5822
 7296TIP3    H243380   0.360   3.102  15.634 -0.9273  0.0389  0.1357
 7297TIP3   OH243381   0.260   0.642  15.205  0.0521  0.0009 -0.3748
 7297TIP3    H143382   0.268   0.738  15.201 -0.6714  0.0592 -0.5813
 7297TIP3    H243383   0.203   0.620  15.131 -1.1153 -0.4166  0.6099
 7298TIP3   OH243384   3.714   3.790   5.050  0.1682  0.4158  0.3817
 7298TIP3    H143385   3.721   3.695   5.046 -1.6865  0.2527 -0.0017
 7298TIP3    H243386   3.675   3.808   5.136  0.6974  0.8599  0.5375
 7299TIP3   OH243387   1.483   6.782   1.094  0.3569  0.2624 -0.0462
 7299TIP3    H143388   1.513   6.726   1.166  1.5924  1.0804  0.1083
 7299TIP3    H243389   1.540   6.859   1.098 -0.0382  0.6621 -1.4470
 7300TIP3   OH243390   6.075   2.792   2.089 -0.3515  0.4048 -0.5317
 7300TIP3    H143391   6.035   2.716   2.132  0.2859 -0.2173 -1.0126
 7300TIP3    H243392   6.112   2.757   2.008  3.5459  0.2961  1.0523
 7301TIP3   OH243393   3.680   4.088   4.032 -0.2815  0.1959 -0.4086
 7301TIP3    H143394   3.599   4.138   4.034  1.4515  3.2516  0.6985
 7301TIP3    H243395   3.686   4.049   4.119 -0.8184 -0.5666 -0.7016
 7302TIP3   OH243396   2.093   1.513   5.557  0.0193  1.2009 -0.2745
 7302TIP3    H143397   2.040   1.470   5.491  1.3869  1.1799 -1.3944
 7302TIP3    H243398   2.032   1.573   5.602 -2.1920 -2.3681  1.9583
 7303TIP3   OH243399   3.240   5.414  10.909 -0.1356  0.0586 -0.2750
 7303TIP3    H143400   3.165   5.445  10.859 -0.3994 -0.0021  0.0860
 7303TIP3    H243401   3.305   5.391  10.842 -0.1562  0.8192 -0.5639
 7304TIP3   OH243402   2.604   6.619   5.712 -0.3734 -0.0710 -0.2140
 7304TIP3    H143403   2.609   6.553   5.643 -0.5634 -1.0440  0.6732
 7304TIP3    H243404   2.597   6.569   5.793  0.6015  1.0309  0.5947
 7305TIP3   OH243405   1.825   2.480  15.648 -0.0736  0.5408  0.0884
 7305TIP3    H143406   1.890   2.434  15.700 -1.1428  0.8387  1.7767
 7305TIP3    H243407   1.862   2.567  15.633 -0.0432  0.6965  1.0078
 7306TIP3   OH243408   1.331   3.546  16.552 -0.2777  0.2083  0.2744
 7306TIP3    H143409   1.380   3.464  16.549  0.0651  0.1889  3.0697
 7306TIP3    H243410   1.397   3.615  16.543 -0.3853  0.1838 -0.7231
 7307TIP3   OH243411   6.116   0.758  16.087  0.0580 -0.3211 -0.2312
 7307TIP3    H143412   6.101   0.831  16.026  0.2681  1.3056  1.5734
 7307TIP3    H243413   6.119   0.799  16.173  0.6955 -2.4275  0.8144
 7308TIP3   OH243414   0.384   2.160   0.281 -0.4915  0.9760  0.0330
 7308TIP3    H143415   0.395   2.080   0.334 -1.1707  0.8129 -0.0522
 7308TIP3    H243416   0.406   2.133   0.192 -1.6287  0.6203 -0.1594
 7309TIP3   OH243417   5.956   6.163  14.112  0.2965 -0.1038  0.2678
 7309TIP3    H143418   5.887   6.178  14.176  1.2713 -2.4239  2.0096
 7309TIP3    H243419   5.924   6.090  14.059  0.8476 -0.3387  0.2464
 7310TIP3   OH243420   6.417   5.572   3.191  0.1071  0.1678  0.1206
 7310TIP3    H143421   6.456   5.658   3.177  0.4752  0.1991  1.1880
 7310TIP3    H243422   6.373   5.580   3.276 -1.4432 -0.1482 -0.6063
 7311TIP3   OH243423   6.293   6.531  15.632  0.3270 -0.0800  0.4448
 7311TIP3    H143424   6.289   6.531  15.536 -1.1098  0.0401  0.4820
 7311TIP3    H243425   6.336   6.449  15.654  0.4115 -0.2451 -0.3031
 7312TIP3   OH243426   2.065   0.397  12.155 -0.0663 -0.3139  0.1246
 7312TIP3    H143427   1.985   0.391  12.207 -1.0014  0.6395 -1.1259
 7312TIP3    H243428   2.073   0.311  12.114 -0.2030 -0.5586  0.6031
 7313TIP3   OH243429   3.051   3.205  13.195  0.0712 -0.1912  0.4905
 7313TIP3    H143430   3.106   3.251  13.132 -0.1272 -1.7045 -0.8304
 7313TIP3    H243431   3.103   3.203  13.275  1.7343 -1.1008 -0.5653
 7314TIP3   OH243432   2.417   3.073   5.825  0.0220 -0.1425 -0.6271
 7314TIP3    H143433   2.368   3.152   5.849  2.8337  1.5050  0.1546
 7314TIP3    H243434   2.374   3.002   5.874 -1.2220  1.2673  0.4299
 7315TIP3   OH243435   3.881   2.069  14.849 -0.1524  0.3093 -0.3212
 7315TIP3    H143436   3.865   2.163  14.852  1.7899  0.7769 -2.3192
 7315TIP3    H243437   3.826   2.038  14.776  0.7224  0.2719 -0.9752
 7316TIP3   OH243438   0.509   5.516   1.739  0.7378  0.0603 -0.0768
 7316TIP3    H143439   0.439   5.471   1.691  0.1245 -0.9505  1.6809
 7316TIP3    H243440   0.534   5.589   1.682 -1.2708  0.0400 -1.0626
 7317TIP3   OH243441   0.585   5.244  14.025  0.7130 -0.0785  0.6816
 7317TIP3    H143442   0.618   5.275  13.940 -1.1406 -0.1661 -0.1193
 7317TIP3    H243443   0.616   5.309  14.088 -0.3456  1.6280 -0.4914
 7318TIP3   OH243444   2.293   0.822   4.503  0.1244  0.3824  0.0644
 7318TIP3    H143445   2.319   0.851   4.416 -1.6483 -1.7765 -1.3090
 7318TIP3    H243446   2.242   0.895   4.538  1.2548  1.4636 -0.4707
 7319TIP3   OH243447   3.624   5.680   2.167  0.1618 -0.3173 -0.2043
 7319TIP3    H143448   3.704   5.714   2.208 -1.5530  1.0281  2.3446
 7319TIP3    H243449   3.596   5.610   2.226 -2.0237  1.2059  0.6971
 7320TIP3   OH243450   3.664   6.324   3.875 -0.3187  0.1735  0.4598
 7320TIP3    H143451   3.736   6.269   3.846 -0.5443  0.1676 -0.0968
 7320TIP3    H243452   3.586   6.284   3.838 -0.2786  2.3889 -2.4374
 7321TIP3   OH243453   1.772   3.639   5.386 -0.2627  0.4500  0.1631
 7321TIP3    H143454   1.720   3.652   5.307 -1.7188 -0.2398  0.9754
 7321TIP3    H243455   1.803   3.549   5.380  2.1218  1.2700 -1.0102
 7322TIP3   OH243456   0.232   0.905   3.794  0.3725 -0.1533  0.0573
 7322TIP3    H143457   0.309   0.926   3.740 -0.0297 -0.9089 -0.8428
 7322TIP3    H243458   0.184   0.987   3.801 -0.7664 -0.4770 -2.7176
 7323TIP3   OH243459   0.440   5.256   6.369  0.0159 -0.0752  0.3173
 7323TIP3    H143460   0.433   5.281   6.461  1.1926 -0.1261  0.4375
 7323TIP3    H243461   0.534   5.254   6.351 -0.2068  0.7335 -1.1105
 7324TIP3   OH243462   2.315   2.499  14.374  0.5402  0.0430  0.4916
 7324TIP3    H143463   2.388   2.559  14.383  1.8596 -1.2919 -0.7179
 7324TIP3    H243464   2.336   2.425  14.431  0.9111 -1.0053 -0.9279
 7325TIP3   OH243465   0.286   5.181   4.280 -0.0570  0.0421  0.2296
 7325TIP3    H143466   0.291   5.237   4.358 -3.6988  0.1937  0.5730
 7325TIP3    H243467   0.233   5.232   4.218 -0.1692 -1.4639 -0.9684
 7326TIP3   OH243468   2.976   0.164  15.838  0.2058  0.1853 -0.1009
 7326TIP3    H143469   3.047   0.209  15.791  0.0070  1.2646  0.6013
 7326TIP3    H243470   2.898   0.215  15.819  0.2222  1.0682  1.8888
 7327TIP3   OH243471   5.957   3.136   1.521 -0.0715 -0.2104  0.0865
 7327TIP3    H143472   5.927   3.227   1.521 -0.1909 -0.2454 -0.2049
 7327TIP3    H243473   5.978   3.119   1.429  1.9557  0.1677  0.4251
 7328TIP3   OH243474   4.657   0.934   4.979 -0.6537 -0.2595  0.0886
 7328TIP3    H143475   4.578   0.954   5.030 -0.5558 -1.2160  0.6293
 7328TIP3    H243476   4.711   0.881   5.037  0.6252  0.7800 -0.1069
 7329TIP3   OH243477   2.996   6.138  11.906 -0.4632 -0.0025  0.5805
 7329TIP3    H143478   2.955   6.164  11.823 -0.7431  1.0299  1.0212
 7329TIP3    H243479   3.004   6.220  11.955  0.7214 -0.4334  1.1295
 7330TIP3   OH243480   4.035   0.979  15.743 -0.0314  0.4895 -0.1943
 7330TIP3    H143481   4.041   1.074  15.743 -1.9398  0.6442 -0.7861
 7330TIP3    H243482   4.067   0.953  15.656 -0.3416  0.6539 -0.3556
 7331TIP3   OH243483   5.676   4.581   2.203  0.3833  0.2971  0.6176
 7331TIP3    H143484   5.656   4.674   2.198  0.6282  0.3505  0.6175
 7331TIP3    H243485   5.603   4.538   2.160 -0.6817  0.3763  2.2573
 7332TIP3   OH243486   1.820   1.164   0.861 -0.1603  0.4223 -0.3905
 7332TIP3    H143487   1.843   1.104   0.932 -0.7048 -0.9509 -1.3405
 7332TIP3    H243488   1.754   1.222   0.900 -1.2095 -0.9471 -0.0077
 7333TIP3   OH243489   6.782   0.225  14.952 -0.6218  0.4601  0.0187
 7333TIP3    H143490   6.763   0.317  14.931 -0.2632  0.4778 -0.2423
 7333TIP3    H243491   6.779   0.221  15.047 -0.6386  0.7436  0.0309
 7334TIP3   OH243492   4.078   4.188  14.284 -0.1476 -0.4395  0.0079
 7334TIP3    H143493   4.152   4.182  14.344  2.0044  0.5587 -2.3256
 7334TIP3    H243494   4.056   4.281  14.280 -0.6419 -0.5607 -0.3106
 7335TIP3   OH243495   1.980   4.558   2.815 -0.2328  0.4562 -0.6774
 7335TIP3    H143496   2.027   4.575   2.733  1.1164 -2.4514 -0.6273
 7335TIP3    H243497   2.047   4.564   2.883 -1.0538  1.4155  0.0897
 7336TIP3   OH243498   6.699   2.439   6.586 -0.0219 -0.1789 -0.1520
 7336TIP3    H143499   6.692   2.528   6.621 -1.2450 -0.3029 -0.0159
 7336TIP3    H243500   6.775   2.401   6.630 -0.4841  0.2610  1.0643
 7337TIP3   OH243501   6.179   5.012  14.543  0.5667  0.3795 -0.6871
 7337TIP3    H143502   6.249   5.050  14.597  1.2309  1.3267 -2.1472
 7337TIP3    H243503   6.117   4.976  14.606  2.2160 -0.2233  0.6604
 7338TIP3   OH243504   5.273   0.589   4.187 -0.6036  0.3215 -0.2228
 7338TIP3    H143505   5.301   0.633   4.267 -0.0142 -0.0622 -0.2123
 7338TIP3    H243506   5.309   0.501   4.194  1.2390  0.8772 -1.8357
 7339TIP3   OH243507   6.561   2.653  16.934  0.3571  0.4296 -0.3578
 7339TIP3    H143508   6.629   2.644  17.001  1.2151  0.0278 -1.2546
 7339TIP3    H243509   6.519   2.567  16.931  1.2255  0.0038 -1.2438
 7340TIP3   OH243510   5.258   0.809   2.031 -0.1240  0.3904 -0.4098
 7340TIP3    H143511   5.239   0.901   2.051  0.2478  0.3521  0.1414
 7340TIP3    H243512   5.183   0.779   1.980 -0.9734  0.5547  0.7228
 7341TIP3   OH243513   2.492   2.352  12.871 -0.4399  0.3767  0.2512
 7341TIP3    H143514   2.412   2.405  12.873 -1.0940 -0.3608 -2.0524
 7341TIP3    H243515   2.494   2.318  12.781  0.6320 -2.4212  1.2565
 7342TIP3   OH243516   0.224   2.211  12.658  0.8589 -0.3682  0.4421
 7342TIP3    H143517   0.288   2.148  12.691  1.7155  0.8439  1.2182
 7342TIP3    H243518   0.254   2.295  12.692 -1.2256  0.2447  0.9504
 7343TIP3   OH243519   0.351   0.280  13.031  0.1789 -1.0351  0.0894
 7343TIP3    H143520   0.327   0.205  12.976  1.4894 -0.9635 -0.6176
 7343TIP3    H243521   0.414   0.330  12.978 -0.6512  0.5721  0.5513
 7344TIP3   OH243522   3.720   1.256   3.949  0.0109 -0.0514  0.1180
 7344TIP3    H143523   3.807   1.217   3.939  0.5132  1.3150 -1.2387
 7344TIP3    H243524   3.675   1.237   3.867  0.7488  3.2025 -1.2006
 7345TIP3   OH243525   4.144   4.111   4.315 -0.1951 -0.1143 -0.3675
 7345TIP3    H143526   4.203   4.039   4.336  0.6223  0.3363 -1.0449
 7345TIP3    H243527   4.160   4.129   4.222 -0.8898  0.4814 -0.3854
 7346TIP3   OH243528   0.785   4.225   3.753 -0.0775  0.0406 -0.1374
 7346TIP3    H143529   0.803   4.241   3.660 -0.1248  1.3627  0.0595
 7346TIP3    H243530   0.690   4.214   3.756  0.1438 -2.5368 -0.5642
 7347TIP3   OH243531   3.369   1.407  16.971 -0.6494  0.1093 -0.4144
 7347TIP3    H143532   3.293   1.378  16.922 -0.9229 -0.1380  0.1520
 7347TIP3    H243533   3.367   1.356  17.052  1.4221 -1.6985 -1.3593
 7348TIP3   OH243534   4.320   3.617   4.024  0.0173 -0.2426 -0.1550
 7348TIP3    H143535   4.284   3.686   4.080  0.8732  0.0014  0.1233
 7348TIP3    H243536   4.271   3.539   4.048  0.1349 -0.0692  0.7112
 7349TIP3   OH243537   3.274   1.283   0.819  0.0040 -0.5035 -0.1496
 7349TIP3    H143538   3.247   1.363   0.774 -0.5120  0.3601  1.6020
 7349TIP3    H243539   3.255   1.213   0.756 -0.0127  0.6875 -1.5291
 7350TIP3   OH243540   2.081   6.598  11.993 -0.7396  0.3018  0.1311
 7350TIP3    H143541   2.032   6.588  11.912  0.2416  1.2243 -0.6017
 7350TIP3    H243542   2.016   6.631  12.056 -1.6197 -0.8802 -0.1119
 7351TIP3   OH243543   3.593   2.025   2.103  0.0799 -0.3388 -0.7275
 7351TIP3    H143544   3.652   1.992   2.035  1.0904 -0.5226  0.2236
 7351TIP3    H243545   3.508   1.986   2.081  0.4117 -0.4745 -1.8218
 7352TIP3   OH243546   1.468   4.476  14.487  0.2533  0.0824  0.2519
 7352TIP3    H143547   1.475   4.565  14.521 -0.0323  0.4466 -0.5967
 7352TIP3    H243548   1.408   4.484  14.412  0.4842 -0.7625 -0.0367
 7353TIP3   OH243549   6.079   0.338  14.337 -0.1530 -0.4366  1.1051
 7353TIP3    H143550   6.066   0.294  14.253 -0.0764  1.6158 -0.0387
 7353TIP3    H243551   5.992   0.367  14.363  0.2333  2.1857 -0.2025
 7354TIP3   OH243552   2.829   4.627  15.140  0.2059  0.1780 -0.3957
 7354TIP3    H143553   2.752   4.680  15.120  1.4132  2.6468  1.0738
 7354TIP3    H243554   2.847   4.644  15.232  3.1310  0.6169 -0.9457
 7355TIP3   OH243555   0.466   4.795   1.170  0.3735 -0.1971  0.0821
 7355TIP3    H143556   0.523   4.867   1.141 -0.1974 -0.8401 -2.9367
 7355TIP3    H243557   0.492   4.720   1.117 -2.2389 -0.9091 -0.3440
 7356TIP3   OH243558   3.269   2.443  12.353 -0.6017 -0.1313  0.2532
 7356TIP3    H143559   3.260   2.407  12.265  0.3048 -1.2181  0.5886
 7356TIP3    H243560   3.205   2.515  12.356 -0.7267 -0.1526 -1.2387
 7357TIP3   OH243561   1.977   6.685  13.680  0.1380  0.0113  0.2786
 7357TIP3    H143562   1.892   6.644  13.696  0.2824  0.2908  2.0285
 7357TIP3    H243563   1.991   6.676  13.586 -1.7186 -0.2326 -0.0142
 7358TIP3   OH243564   2.624   2.348  12.416  0.6482 -0.1058 -0.7008
 7358TIP3    H143565   2.592   2.419  12.473  1.0561 -0.8077  0.4440
 7358TIP3    H243566   2.545   2.314  12.375  0.3222  0.3513 -0.4725
 7359TIP3   OH243567   6.694   2.596   0.772 -0.3561  0.9199  0.4380
 7359TIP3    H143568   6.667   2.620   0.683 -1.0685  0.1980  0.4403
 7359TIP3    H243569   6.786   2.619   0.777 -0.2866  0.8758 -0.5235
 7360TIP3   OH243570   5.215   3.897   0.089 -0.6219 -0.1264  0.0082
 7360TIP3    H143571   5.205   3.896  -0.006 -0.9560  1.3881  0.0102
 7360TIP3    H243572   5.134   3.938   0.121 -1.6301 -2.7260  1.1317
 7361TIP3   OH243573   3.063   4.743   5.635  0.1073 -0.0103  0.0231
 7361TIP3    H143574   3.021   4.673   5.586 -1.1429  2.3008 -2.4539
 7361TIP3    H243575   3.135   4.772   5.579  0.7076  0.5727  1.0705
 7362TIP3   OH243576   1.943   0.114   0.644 -0.2091 -0.0297 -0.1037
 7362TIP3    H143577   2.024   0.148   0.681  0.0873 -1.6344  0.8150
 7362TIP3    H243578   1.935   0.158   0.559  2.3242 -0.7964 -0.8267
 7363TIP3   OH243579   3.401   0.270  14.299  0.2498  0.6692 -0.0099
 7363TIP3    H143580   3.317   0.310  14.279  0.6548  0.6432 -1.9936
 7363TIP3    H243581   3.426   0.226  14.218  1.3312 -0.8684  1.1047
 7364TIP3   OH243582   0.814   5.956  11.486  0.8167 -0.1774 -0.1557
 7364TIP3    H143583   0.736   5.904  11.471  0.9738 -0.7401  0.9165
 7364TIP3    H243584   0.781   6.043  11.511  0.5480 -0.2840 -0.1411
 7365TIP3   OH243585   4.943   0.256  14.928 -0.6485 -0.2918 -0.0014
 7365TIP3    H143586   5.021   0.272  14.876 -1.0268  0.6191 -0.3113
 7365TIP3    H243587   4.951   0.165  14.956  1.2228  0.1737  1.1731
 7366TIP3   OH243588   1.449   1.357  10.909  0.2488 -0.3825 -0.2178
 7366TIP3    H143589   1.501   1.437  10.917  0.4438 -0.0698 -3.3030
 7366TIP3    H243590   1.361   1.389  10.887 -0.3725 -0.9956  1.2628
 7367TIP3   OH243591   0.346   6.066   0.738  0.1261 -0.0376  0.3104
 7367TIP3    H143592   0.291   6.141   0.763  0.0009 -0.9462  3.0345
 7367TIP3    H243593   0.284   6.000   0.707  0.0686  0.2829 -0.2779
 7368TIP3   OH243594   5.828   5.739   2.394  0.1359  0.1996  0.8844
 7368TIP3    H143595   5.865   5.658   2.359  0.5955  0.2287  1.2908
 7368TIP3    H243596   5.903   5.796   2.410 -0.0347  0.1084  2.1120
 7369TIP3   OH243597   1.726   5.815  16.756 -0.3060  0.2075  0.6434
 7369TIP3    H143598   1.704   5.879  16.824 -0.3472 -0.3957  1.2079
 7369TIP3    H243599   1.816   5.835  16.732 -0.3519  0.5395  0.7401
 7370TIP3   OH243600   5.928   3.644  15.396  0.2117  0.4792  0.1752
 7370TIP3    H143601   6.001   3.691  15.356  0.1528  0.4239  0.0044
 7370TIP3    H243602   5.877   3.712  15.440 -0.5434  0.7562 -1.0709
 7371TIP3   OH243603   6.318   3.661  16.593  0.6709 -0.3685 -0.6876
 7371TIP3    H143604   6.412   3.660  16.613  1.0503  2.6651 -1.7821
 7371TIP3    H243605   6.311   3.618  16.508  0.6028 -2.9955  0.5373
 7372TIP3   OH243606   2.559   0.710  12.990  0.4592  0.6130 -0.3560
 7372TIP3    H143607   2.608   0.673  12.917 -0.2630  1.0013 -1.0516
 7372TIP3    H243608   2.467   0.690  12.969  0.0269  2.8393 -0.8034
 7373TIP3   OH243609   0.823   5.841  15.145 -0.1988 -0.7133 -0.0038
 7373TIP3    H143610   0.875   5.764  15.122 -0.6933 -1.4494  1.2551
 7373TIP3    H243611   0.796   5.878  15.060  5.0691  1.7539 -1.0440
 7374TIP3   OH243612   6.415   1.933   4.529 -0.1585 -0.8297 -0.7870
 7374TIP3    H143613   6.347   1.940   4.596  1.6183 -0.5698  1.1099
 7374TIP3    H243614   6.407   2.014   4.478  0.2863  0.4221  1.0195
 7375TIP3   OH243615   4.734   3.833  17.133  0.4856  0.5426 -0.6317
 7375TIP3    H143616   4.744   3.928  17.131  0.7559  0.5251 -0.3285
 7375TIP3    H243617   4.701   3.809  17.047  0.1796  0.9379 -0.6237
 7376TIP3   OH243618   6.180   4.002  14.420 -0.5050  0.9152 -0.7645
 7376TIP3    H143619   6.128   3.925  14.396  0.8793 -0.5823  0.7205
 7376TIP3    H243620   6.131   4.043  14.490 -0.3850  0.2990 -0.3084
 7377TIP3   OH243621   0.344   6.803  11.467 -0.4847  0.4859  0.0680
 7377TIP3    H143622   0.436   6.782  11.449 -0.5403  2.1120 -2.6746
 7377TIP3    H243623   0.294   6.745  11.410 -1.1425  0.3726  0.7371
 7378TIP3   OH243624   4.315   2.345  11.739  0.1321 -0.3167  0.7311
 7378TIP3    H143625   4.299   2.303  11.654  0.3636  0.4223  0.3071
 7378TIP3    H243626   4.410   2.354  11.743  0.3812 -2.7758  2.2871
 7379TIP3   OH243627   3.438   3.913   6.207  0.0882 -0.1441  0.1131
 7379TIP3    H143628   3.451   3.941   6.298 -1.5845 -0.2108  0.4080
 7379TIP3    H243629   3.459   3.991   6.155  0.5422  0.0560  0.5864
 7380TIP3   OH243630   4.980   1.731  15.588  0.0737  0.1292  0.0391
 7380TIP3    H143631   5.025   1.672  15.527 -2.4483 -1.0133 -0.8916
 7380TIP3    H243632   5.027   1.814  15.581  0.0651  0.0148 -3.3722
 7381TIP3   OH243633   1.343   3.049   5.205 -0.6456 -0.6446  0.2237
 7381TIP3    H143634   1.303   3.039   5.291  1.1764 -0.9184  1.0697
 7381TIP3    H243635   1.427   3.091   5.222 -0.4414 -0.2891 -1.4814
 7382TIP3   OH243636   2.114   2.732  16.317  0.7793 -0.2201 -0.6565
 7382TIP3    H143637   2.132   2.696  16.230 -0.6440 -2.4345 -0.1246
 7382TIP3    H243638   2.025   2.767  16.311  1.1291  0.7553 -0.3881
 7383TIP3   OH243639   2.576   4.143  14.409  0.1217  0.4383 -0.0585
 7383TIP3    H143640   2.512   4.143  14.480  1.3628 -1.1351  1.1411
 7383TIP3    H243641   2.539   4.202  14.344 -1.0233  2.0208  1.9118
 7384TIP3   OH243642   2.789   1.409  13.516 -0.9931 -0.2872  0.0078
 7384TIP3    H143643   2.736   1.478  13.556 -0.1410  0.8688 -0.7860
 7384TIP3    H243644   2.725   1.350  13.476 -1.7509 -0.1202  0.9314
 7385TIP3   OH243645   0.540   4.894   2.694 -0.5187 -0.1800 -0.2229
 7385TIP3    H143646   0.511   4.825   2.634 -3.5026  1.7083 -1.2235
 7385TIP3    H243647   0.474   4.964   2.683  2.4292  2.9991  0.4557
 7386TIP3   OH243648   5.394   6.504  11.119 -0.1908  0.0366 -0.3217
 7386TIP3    H143649   5.320   6.479  11.175 -0.2163  0.8425  0.0301
 7386TIP3    H243650   5.455   6.431  11.123  0.4915  0.6650  1.9538
 7387TIP3   OH243651   2.400   0.131   3.741 -0.3717  0.3330  0.3224
 7387TIP3    H143652   2.402   0.093   3.829 -1.2271  0.1022  0.2450
 7387TIP3    H243653   2.492   0.151   3.722  0.0001 -0.9910  0.6688
 7388TIP3   OH243654   3.069   0.533  16.751 -0.1933 -0.4146 -0.2713
 7388TIP3    H143655   3.003   0.517  16.683 -0.0483  0.8951 -0.7479
 7388TIP3    H243656   3.127   0.599  16.713  1.1312 -1.1972  0.3246
 7389TIP3   OH243657   1.480   5.393   5.133  0.7110 -0.0348 -0.5307
 7389TIP3    H143658   1.558   5.446   5.121  0.9830 -0.2627  0.1977
 7389TIP3    H243659   1.500   5.336   5.208  0.0299 -0.4229 -0.6319
 7390TIP3   OH243660   0.254   4.170   2.278 -0.2821  0.2356 -0.4099
 7390TIP3    H143661   0.169   4.195   2.241 -0.3557  0.1835 -0.2783
 7390TIP3    H243662   0.235   4.094   2.333  0.1554 -0.9680 -1.8744
 7391TIP3   OH243663   4.102   4.952   2.602  0.2058  0.2883 -0.1945
 7391TIP3    H143664   4.107   4.971   2.696 -0.0358  1.0373 -0.3205
 7391TIP3    H243665   4.120   5.036   2.560  2.2376 -0.4219 -0.8652
 7392TIP3   OH243666   1.989   5.980   2.439 -0.0960 -0.7563  0.5296
 7392TIP3    H143667   2.021   6.059   2.396  0.6184 -0.2214  1.9998
 7392TIP3    H243668   1.968   5.921   2.366 -0.1270  0.5636 -0.5808
 7393TIP3   OH243669   4.270   3.466  12.703  0.2385 -0.1314 -0.1098
 7393TIP3    H143670   4.299   3.381  12.737 -0.2780  0.0310  0.7701
 7393TIP3    H243671   4.232   3.510  12.779  1.0488  1.1410 -0.4106
 7394TIP3   OH243672   5.959   4.665  12.253  0.6028  0.0327  0.0016
 7394TIP3    H143673   5.948   4.749  12.208 -0.4641 -0.1933 -0.2065
 7394TIP3    H243674   5.965   4.600  12.183 -0.4733 -0.2568  0.1518
 7395TIP3   OH243675   1.322   3.177   5.642  0.2888 -0.2902  0.4727
 7395TIP3    H143676   1.410   3.213   5.655 -0.8476  3.4539 -0.9502
 7395TIP3    H243677   1.266   3.253   5.627 -2.8370 -2.6175 -0.9583
 7396TIP3   OH243678   2.085   2.674   0.638  0.3865  0.4463  0.0522
 7396TIP3    H143679   2.010   2.630   0.599  0.2951  0.3018  0.3919
 7396TIP3    H243680   2.109   2.620   0.713  1.1917  0.1662 -0.3860
 7397TIP3   OH243681   1.967   3.141  14.289  0.3473 -0.0790 -0.2302
 7397TIP3    H143682   1.983   3.095  14.371  0.6175 -0.1658 -0.3312
 7397TIP3    H243683   1.998   3.081  14.221  2.4669  1.0100 -0.2921
 7398TIP3   OH243684   2.545   6.331   1.733 -0.5478  0.1372 -0.6201
 7398TIP3    H143685   2.617   6.298   1.679 -0.2917  0.1068 -0.2603
 7398TIP3    H243686   2.575   6.416   1.763 -0.4962 -0.0465 -0.1456
 7399TIP3   OH243687   4.526   5.207   5.257 -0.0274  0.4342  0.1425
 7399TIP3    H143688   4.611   5.185   5.219  0.2955  0.8704  0.6060
 7399TIP3    H243689   4.536   5.297   5.288 -1.0102  0.8924 -0.7947
 7400TIP3   OH243690   2.143   6.521   1.387  0.2058 -0.0453 -0.1576
 7400TIP3    H143691   2.125   6.543   1.296 -1.8047  1.4262  0.5281
 7400TIP3    H243692   2.079   6.453   1.409  0.1044  0.2082  0.3704
 7401TIP3   OH243693   5.937   4.924   3.569  0.3377 -0.0402  0.0128
 7401TIP3    H143694   5.928   4.895   3.660  0.4414  0.5353  0.2124
 7401TIP3    H243695   5.848   4.938   3.539  0.3190  0.1794  0.1656
 7402TIP3   OH243696   1.764   1.053   5.469  0.4379 -0.8594 -0.1489
 7402TIP3    H143697   1.748   1.088   5.381 -1.3198  2.0159  1.1729
 7402TIP3    H243698   1.685   1.073   5.518  1.7402 -1.4760  2.3783
 7403TIP3   OH243699   4.938   1.344  12.292  0.0330 -0.2096  0.0499
 7403TIP3    H143700   4.994   1.317  12.365  0.8255  0.9180 -0.1137
 7403TIP3    H243701   4.854   1.365  12.332  0.2944 -0.1203  0.5604
 7404TIP3   OH243702   6.550   0.834   1.457 -0.1777 -0.1340 -0.3554
 7404TIP3    H143703   6.621   0.814   1.396  1.2789 -0.7960  1.4461
 7404TIP3    H243704   6.536   0.753   1.505 -0.4829  0.6602  0.9465
 7405TIP3   OH243705   6.671   6.708  15.053  0.3149 -0.4111  0.6100
 7405TIP3    H143706   6.682   6.771  14.982  0.7239 -1.0323  0.1106
 7405TIP3    H243707   6.724   6.633  15.027 -1.1413 -1.4640  0.5996
 7406TIP3   OH243708   5.705   0.422   1.174  0.1005 -0.1099 -0.3103
 7406TIP3    H143709   5.619   0.397   1.143  0.0248 -0.0911 -0.1197
 7406TIP3    H243710   5.724   0.360   1.245  0.4365 -0.4012 -0.6448
 7407TIP3   OH243711   0.275   4.064  13.547 -0.1169 -0.0118 -0.2589
 7407TIP3    H143712   0.193   4.107  13.520 -0.8611  0.0565  1.8894
 7407TIP3    H243713   0.283   3.990  13.487 -0.3642  1.3909 -2.1534
 7408TIP3   OH243714   4.306   2.678  14.850  0.1689 -0.7243 -0.4718
 7408TIP3    H143715   4.394   2.652  14.823  0.3396 -0.0415 -0.5869
 7408TIP3    H243716   4.254   2.598  14.840  0.8674 -1.2565  0.0412
 7409TIP3   OH243717   2.994   1.043   2.286 -0.2599 -0.0231  0.1251
 7409TIP3    H143718   3.040   1.124   2.261 -0.5422 -0.4623 -1.9828
 7409TIP3    H243719   3.057   0.995   2.338 -0.0156  1.4475  1.2633
 7410TIP3   OH243720   6.051   2.777   3.408 -0.1088  0.1677 -0.3110
 7410TIP3    H143721   6.008   2.696   3.378 -1.4174  0.7156  0.0210
 7410TIP3    H243722   6.069   2.826   3.327 -0.3815  0.0735 -0.4291
 7411TIP3   OH243723   3.883   6.275   1.997 -0.9227 -0.1680 -0.4825
 7411TIP3    H143724   3.914   6.235   1.916 -1.4451  0.6917 -1.1213
 7411TIP3    H243725   3.905   6.367   1.988 -1.1999 -0.0212  0.2579
 7412TIP3   OH243726   3.944   1.907  16.727  0.5537 -0.0128 -0.0323
 7412TIP3    H143727   3.917   1.828  16.680  0.8400  0.6823 -1.4244
 7412TIP3    H243728   4.040   1.902  16.726  0.5599 -0.1201  0.7347
 7413TIP3   OH243729   6.776   3.108   0.381  0.8747  0.3657  0.8100
 7413TIP3    H143730   6.767   3.069   0.294 -1.7298  1.7391  0.3594
 7413TIP3    H243731   6.749   3.038   0.441 -0.5652  0.3909  0.2396
 7414TIP3   OH243732   3.095   1.090   0.955 -0.1864  0.1144  0.0992
 7414TIP3    H143733   3.099   1.168   0.899 -0.2097 -0.2483 -0.4121
 7414TIP3    H243734   3.150   1.112   1.031 -1.8909  1.4785  1.0280
 7415TIP3   OH243735   5.348   6.257  11.773 -0.3189  0.0699 -0.2772
 7415TIP3    H143736   5.278   6.254  11.708 -1.3216 -2.3564  0.7932
 7415TIP3    H243737   5.305   6.292  11.851  0.4596  1.3911 -0.4167
 7416TIP3   OH243738   6.511   0.023   4.639  0.2351 -0.0257 -0.5684
 7416TIP3    H143739   6.462   0.080   4.699 -0.9398  0.4890 -1.9641
 7416TIP3    H243740   6.550  -0.043   4.696 -0.3336  0.7993  0.8364
 7417TIP3   OH243741   3.034   4.780   3.916  0.2189  0.6070 -0.9782
 7417TIP3    H143742   3.102   4.806   3.978 -0.9879 -0.0257  0.6684
 7417TIP3    H243743   2.954   4.775   3.968 -0.1820 -3.7410 -1.5820
 7418TIP3   OH243744   1.667   2.061   4.060 -0.4255 -0.5873 -0.1397
 7418TIP3    H143745   1.695   2.014   3.982  0.5282 -1.1468  0.5173
 7418TIP3    H243746   1.622   2.138   4.027 -0.8578 -1.2901 -1.2352
 7419TIP3   OH243747   0.844   1.105   5.110 -0.4214  0.2431 -0.2437
 7419TIP3    H143748   0.923   1.057   5.133 -0.7535 -0.8533 -1.3085
 7419TIP3    H243749   0.774   1.060   5.156 -0.7393 -0.3494 -1.2752
 7420TIP3   OH243750   2.306   4.670  13.188  0.3058  0.1109 -0.0990
 7420TIP3    H143751   2.391   4.627  13.200  0.3313  0.3072  0.4654
 7420TIP3    H243752   2.318   4.758  13.222 -0.1845  0.0720  0.1941
 7421TIP3   OH243753   2.522   4.107  13.934  0.1959  0.0585 -0.4201
 7421TIP3    H143754   2.509   4.041  13.866  1.5968 -0.9608  0.2577
 7421TIP3    H243755   2.463   4.082  14.005  0.4116 -0.2136 -0.3370
 7422TIP3   OH243756   1.138   3.929  14.208  0.8330  0.3709  0.2293
 7422TIP3    H143757   1.149   3.991  14.279 -0.1132 -1.2417  1.8657
 7422TIP3    H243758   1.045   3.906  14.210  0.6393  0.7104 -1.9435
 7423TIP3   OH243759   5.000   5.967  13.371  0.1961  0.0284 -0.3751
 7423TIP3    H143760   5.016   6.009  13.455  2.5389 -1.0554 -0.1925
 7423TIP3    H243761   4.929   5.905  13.387  0.2450  0.2321  0.6445
 7424TIP3   OH243762   4.617   5.213   4.229 -0.3931  0.2072  0.0264
 7424TIP3    H143763   4.705   5.248   4.243  0.6027 -1.0055 -2.5869
 7424TIP3    H243764   4.612   5.138   4.288  0.2737  0.3642  0.3014
 7425TIP3   OH243765   4.147   4.117   6.720 -0.2291 -0.2158  0.1792
 7425TIP3    H143766   4.203   4.187   6.755 -1.5014  1.4103 -0.8887
 7425TIP3    H243767   4.156   4.125   6.625 -2.4234  0.2532 -0.0292
 7426TIP3   OH243768   3.040   4.319   4.211 -0.5376  0.5790 -0.0148
 7426TIP3    H143769   3.023   4.406   4.245  0.1768  0.2669  1.1829
 7426TIP3    H243770   3.042   4.331   4.116  1.2559  2.2110  0.1583
 7427TIP3   OH243771   1.626   4.196  12.647 -0.0101 -0.2164 -0.2303
 7427TIP3    H143772   1.580   4.118  12.615 -0.1387 -0.2555  0.0509
 7427TIP3    H243773   1.686   4.164  12.714  1.0969 -0.2915 -1.2286
 7428TIP3   OH243774   2.085   3.012  12.186 -0.3114  0.2613 -0.6926
 7428TIP3    H143775   2.006   3.002  12.134 -0.7385 -0.4453  0.0766
 7428TIP3    H243776   2.101   2.925  12.223 -0.7759  1.0003  1.4037
 7429TIP3   OH243777   3.774   5.379   2.562  0.3162  0.1956  0.0247
 7429TIP3    H143778   3.784   5.377   2.657  0.7884  2.1617  0.0482
 7429TIP3    H243779   3.863   5.376   2.528  0.1434 -0.6191 -0.3764
 7430TIP3   OH243780   2.721   5.095  14.127 -0.0284  0.3794 -0.0514
 7430TIP3    H143781   2.760   5.117  14.212 -0.0600 -0.1830  0.1135
 7430TIP3    H243782   2.659   5.165  14.111 -0.8659 -0.0971  0.9467
 7431TIP3   OH243783   6.139   2.435  11.445 -0.2426 -0.0024  0.6278
 7431TIP3    H143784   6.167   2.472  11.361 -0.0960 -2.1476 -0.3591
 7431TIP3    H243785   6.045   2.452  11.449 -0.0039  1.3541  0.7275
 7432TIP3   OH243786   1.721   5.996   1.213  0.3209  0.3544  0.2873
 7432TIP3    H143787   1.634   5.972   1.244  0.3430 -2.0558 -1.2643
 7432TIP3    H243788   1.760   6.043   1.287 -1.7765  0.2921  1.5272
 7433TIP3   OH243789   1.571   5.902   5.349 -0.1617  0.7777 -0.1983
 7433TIP3    H143790   1.662   5.883   5.368  0.3981  3.4901  0.2640
 7433TIP3    H243791   1.523   5.876   5.428  0.2160 -0.4854 -0.3743
 7434TIP3   OH243792   4.451   4.604   2.914  0.1869 -0.1143 -0.1308
 7434TIP3    H143793   4.363   4.624   2.946  0.1071 -1.6262  0.6908
 7434TIP3    H243794   4.451   4.509   2.901  0.9268  0.1500 -2.6039
 7435TIP3   OH243795   1.857   0.638  13.067  0.0815  0.6372  0.2794
 7435TIP3    H143796   1.796   0.633  12.993  2.0043 -1.3961 -1.3170
 7435TIP3    H243797   1.838   0.560  13.118  3.4273 -2.0429 -2.1594
 7436TIP3   OH243798   3.400   3.886  15.270  0.8117 -0.5480  0.3955
 7436TIP3    H143799   3.366   3.801  15.298  0.7246  0.0955  2.3282
 7436TIP3    H243800   3.388   3.886  15.175  0.4010 -2.5041  0.4084
 7437TIP3   OH243801   2.945   5.953  14.865  0.1731  0.1979 -0.0831
 7437TIP3    H143802   2.851   5.935  14.867  0.2907 -0.5771  2.5326
 7437TIP3    H243803   2.953   6.044  14.893  0.2431 -0.1846  1.1844
 7438TIP3   OH243804   2.390   5.793   3.705 -0.0892 -0.3540  0.0162
 7438TIP3    H143805   2.305   5.778   3.748  0.6844 -1.8749  1.0907
 7438TIP3    H243806   2.441   5.840   3.771 -0.3420  1.3646 -0.9512
 7439TIP3   OH243807   0.048   6.505   3.743  0.2915  0.1850 -0.0922
 7439TIP3    H143808   0.003   6.421   3.739 -0.5573  0.6486 -0.7831
 7439TIP3    H243809   0.139   6.485   3.723 -0.0774 -0.4645 -1.2238
 7440TIP3   OH243810   4.372   0.982   3.113  0.3080 -0.0015  0.1816
 7440TIP3    H143811   4.356   0.895   3.149 -1.6455  0.1760 -0.1940
 7440TIP3    H243812   4.440   0.968   3.047 -0.1179 -1.2835 -0.0052
 7441TIP3   OH243813   6.425   4.582  16.491  0.9285 -0.7136 -0.0473
 7441TIP3    H143814   6.471   4.638  16.429  1.3599 -0.9412  0.0603
 7441TIP3    H243815   6.423   4.633  16.572 -0.2432 -0.1292 -0.4176
 7442TIP3   OH243816   6.611   6.352   0.426  0.7639  0.3363 -0.4219
 7442TIP3    H143817   6.677   6.336   0.494 -0.2209 -1.7010  0.0979
 7442TIP3    H243818   6.653   6.416   0.368  3.6818 -1.6831 -0.7443
 7443TIP3   OH243819   2.476   1.040  13.630 -0.6358  0.3870  0.4075
 7443TIP3    H143820   2.516   0.965  13.586 -0.6077  0.2294  0.6962
 7443TIP3    H243821   2.382   1.019  13.633 -0.3683 -0.8531  2.7333
 7444TIP3   OH243822   6.109   4.508   3.873 -0.0259 -0.6290  0.2822
 7444TIP3    H143823   6.157   4.590   3.863  1.1847 -1.2365  0.9033
 7444TIP3    H243824   6.116   4.487   3.966 -0.2002 -1.5075  0.1101
 7445TIP3   OH243825   6.471   3.718   2.915 -0.1917  0.1051 -0.2878
 7445TIP3    H143826   6.538   3.687   2.854 -0.8371 -1.1297 -0.4194
 7445TIP3    H243827   6.506   3.699   3.002 -0.2662 -0.3506 -0.3522
 7446TIP3   OH243828   3.551   6.048  12.001 -0.8386 -0.1382  0.1557
 7446TIP3    H143829   3.584   5.974  11.951 -0.7827  0.0696 -0.1165
 7446TIP3    H243830   3.459   6.055  11.976 -0.7773  0.0482 -0.0193
 7447TIP3   OH243831   3.639   3.033   5.505  0.1443  0.4375 -0.2471
 7447TIP3    H143832   3.639   2.997   5.594 -1.8165  0.4716 -0.1847
 7447TIP3    H243833   3.732   3.041   5.482  0.8140  2.3586  2.5585
 7448TIP3   OH243834   5.235   5.676  15.559 -0.3879 -0.2885 -0.1317
 7448TIP3    H143835   5.199   5.648  15.475  2.1899  1.4790 -1.9552
 7448TIP3    H243836   5.313   5.622  15.571 -0.5196 -0.2591  0.9543
 7449TIP3   OH243837   5.441   2.103  17.041 -0.4392 -0.1221  0.2770
 7449TIP3    H143838   5.522   2.071  17.001 -0.5127  1.8584 -1.6567
 7449TIP3    H243839   5.372   2.070  16.983 -1.0092 -1.3078  1.5898
 7450TIP3   OH243840   0.770   3.654  14.096  0.5436  0.1722  0.3327
 7450TIP3    H143841   0.803   3.718  14.160 -0.5044  1.3637 -0.2669
 7450TIP3    H243842   0.839   3.647  14.031  1.2690 -0.4157  1.1355
 7451TIP3   OH243843   3.059   2.572   4.593  0.0010  0.0269 -0.3156
 7451TIP3    H143844   3.013   2.489   4.601  0.1951 -0.2120 -1.5844
 7451TIP3    H243845   3.035   2.605   4.506  1.5464  0.2977 -0.6667
 7452TIP3   OH243846   1.657   0.105   1.754 -0.2506  0.0090  0.1564
 7452TIP3    H143847   1.709   0.181   1.729  0.2084 -0.1857  0.4997
 7452TIP3    H243848   1.572   0.141   1.778  0.0183  0.4401  0.4813
 7453TIP3   OH243849   4.906   2.832   3.735 -0.1693  0.3704  0.7731
 7453TIP3    H143850   4.919   2.852   3.642  0.4169  1.7635  1.1281
 7453TIP3    H243851   4.827   2.880   3.759  2.8821  5.4367  2.3848
 7454TIP3   OH243852   4.794   5.076  16.289 -0.2758  0.1588 -0.3082
 7454TIP3    H143853   4.810   5.063  16.195  0.1568  0.0254 -0.2197
 7454TIP3    H243854   4.700   5.091  16.296 -0.2088  0.8357 -0.8339
 7455TIP3   OH243855   5.908   5.639  17.289 -0.3748 -0.3224 -0.4643
 7455TIP3    H143856   5.817   5.610  17.287 -1.2907  2.2183  0.1772
 7455TIP3    H243857   5.942   5.607  17.373 -0.8636 -0.7545 -0.4254
 7456TIP3   OH243858   5.812   5.671  16.880  0.1769 -0.3380 -0.3087
 7456TIP3    H143859   5.799   5.582  16.913  1.6774 -0.3793  0.2151
 7456TIP3    H243860   5.748   5.680  16.809 -0.9109 -1.3560  0.5173
 7457TIP3   OH243861   4.070   1.916  13.754 -0.0954 -0.1145 -0.6732
 7457TIP3    H143862   4.019   1.975  13.698 -2.1138 -0.9288  0.2078
 7457TIP3    H243863   4.160   1.947  13.745 -0.9587  2.7151 -0.7461
 7458TIP3   OH243864   3.137   2.647  14.911 -0.1668 -0.1011  0.6337
 7458TIP3    H143865   3.143   2.695  14.828  1.5611 -0.2950  0.6161
 7458TIP3    H243866   3.061   2.685  14.955  0.1225  1.4447 -0.1387
 7459TIP3   OH243867   2.214   2.949  12.445 -0.2852  0.0583  0.5678
 7459TIP3    H143868   2.162   2.995  12.511  1.3276 -0.3313  2.2175
 7459TIP3    H243869   2.294   3.002  12.438  0.3069 -0.8601  0.2460
 7460TIP3   OH243870   2.771   3.484  16.401  0.2719  0.0651  0.4347
 7460TIP3    H143871   2.715   3.463  16.477  0.7094 -2.6264  0.1217
 7460TIP3    H243872   2.843   3.534  16.438 -0.0935 -0.2517  1.6412
 7461TIP3   OH243873   5.624   4.279  16.497  0.3681  0.0694 -0.6146
 7461TIP3    H143874   5.600   4.360  16.453 -0.1807 -0.3131 -1.0400
 7461TIP3    H243875   5.719   4.276  16.495  0.4109  0.9055 -0.2169
 7462TIP3   OH243876   5.683   6.358   3.844  0.0776  0.0661  0.5251
 7462TIP3    H143877   5.727   6.423   3.898  0.4119 -0.4306  0.8630
 7462TIP3    H243878   5.671   6.283   3.902  0.6168 -0.5520 -0.1411
 7463TIP3   OH243879   2.588   2.055  17.192  0.3356  0.2999 -0.1515
 7463TIP3    H143880   2.536   1.981  17.160  0.7744 -0.1439  0.1461
 7463TIP3    H243881   2.566   2.061  17.285  0.9363  0.0027  0.0129
 7464TIP3   OH243882   0.370   5.237   0.599 -0.5145  0.1162 -0.1299
 7464TIP3    H143883   0.431   5.226   0.672  2.0403 -2.1643 -2.3649
 7464TIP3    H243884   0.301   5.173   0.616  0.4516 -0.9381 -0.0262
 7465TIP3   OH243885   3.479   3.408   4.002  0.3026  0.5368  0.2543
 7465TIP3    H143886   3.386   3.391   4.018 -0.0214  3.0337  1.5788
 7465TIP3    H243887   3.480   3.472   3.931  0.9279  1.1701  0.8174
 7466TIP3   OH243888   4.920   0.781   0.181  0.0281  0.1240 -0.3426
 7466TIP3    H143889   4.908   0.868   0.219  2.2689  0.7055 -0.8138
 7466TIP3    H243890   4.906   0.721   0.254 -0.0048  0.9642  0.3563
 7467TIP3   OH243891   6.303   3.824   1.788 -0.3376 -0.1174  0.6830
 7467TIP3    H143892   6.256   3.754   1.834 -0.1680 -1.9807 -1.7520
 7467TIP3    H243893   6.265   3.824   1.701 -0.5255  3.1422  0.6776
 7468TIP3   OH243894   1.658   6.532  15.881 -0.3878 -0.4888  0.1342
 7468TIP3    H143895   1.572   6.551  15.917 -0.0854 -0.7991  1.0440
 7468TIP3    H243896   1.654   6.566  15.792 -1.4603 -0.5363  0.1483
 7469TIP3   OH243897   3.337   1.298  14.505  0.2029  0.5650  0.1550
 7469TIP3    H143898   3.427   1.293  14.537  0.5939  0.4330 -0.9501
 7469TIP3    H243899   3.298   1.370  14.556  1.9090  2.9086 -1.6463
 7470TIP3   OH243900   5.266   5.880  14.071  0.0932 -0.0956  0.1740
 7470TIP3    H143901   5.361   5.866  14.070 -0.0931 -1.7893 -1.6798
 7470TIP3    H243902   5.234   5.823  14.140  0.2775 -1.1980 -0.6183
 7471TIP3   OH243903   6.053   2.487  15.083 -0.1495 -0.1358 -0.0315
 7471TIP3    H143904   6.055   2.510  15.175  1.9669  1.6285 -0.4339
 7471TIP3    H243905   6.052   2.571  15.037  0.8244 -0.9355 -1.6109
 7472TIP3   OH243906   3.578   2.237  16.567 -0.5121 -0.3212 -0.2128
 7472TIP3    H143907   3.521   2.275  16.634  0.0869 -0.6052  0.4737
 7472TIP3    H243908   3.641   2.185  16.616 -0.3808 -0.9633 -1.0411
 7473TIP3   OH243909   5.959   6.519   1.026  0.7369 -0.4663 -0.4669
 7473TIP3    H143910   5.893   6.578   0.989  0.7854  1.2925  1.9820
 7473TIP3    H243911   6.042   6.558   1.000  0.7721 -0.2094  0.0187
 7474TIP3   OH243912   1.968   5.682   6.091  0.0745  0.1783  0.3538
 7474TIP3    H143913   1.938   5.696   6.001 -0.9334  0.3434  0.6966
 7474TIP3    H243914   1.929   5.754   6.140 -0.4694 -0.6412  1.1478
 7475TIP3   OH243915   4.279   2.425  15.897 -0.3159 -0.5975  0.5925
 7475TIP3    H143916   4.188   2.422  15.868  0.3484 -2.6895 -1.6380
 7475TIP3    H243917   4.313   2.507  15.861 -0.6772 -1.0575 -0.8551
 7476TIP3   OH243918   2.508   6.005   5.272  0.0438  0.0783  0.2130
 7476TIP3    H143919   2.430   6.026   5.221  0.5390  0.5327 -0.3688
 7476TIP3    H243920   2.479   6.009   5.363 -0.4913  0.7544  0.0204
 7477TIP3   OH243921   6.192   6.764   3.269 -0.0589 -0.6497  0.0963
 7477TIP3    H143922   6.268   6.817   3.291 -0.2393 -0.5222  0.4218
 7477TIP3    H243923   6.206   6.738   3.178 -0.6655  1.1664 -0.5450
 7478TIP3   OH243924   1.480   6.711  15.367 -0.6351  0.2044  0.1220
 7478TIP3    H143925   1.454   6.759  15.288 -1.7288  0.4191  0.5841
 7478TIP3    H243926   1.571   6.686  15.352 -0.6406  0.7751 -0.9413
 7479TIP3   OH243927   4.876   1.111  14.009  0.1812 -0.1694  0.1551
 7479TIP3    H143928   4.820   1.186  14.028  2.6959  2.3251 -1.5230
 7479TIP3    H243929   4.829   1.063  13.941 -1.1085  0.2888  0.6817
 7480TIP3   OH243930   6.415   6.082   5.797 -0.7867 -0.2250  0.3129
 7480TIP3    H143931   6.400   6.001   5.844 -1.5885  0.3295  1.0440
 7480TIP3    H243932   6.330   6.127   5.799 -0.2143  0.8830  0.4059
 7481TIP3   OH243933   6.182   4.623  15.307  0.2394 -0.2838  0.0605
 7481TIP3    H143934   6.182   4.685  15.380  3.1379  1.5602 -1.2972
 7481TIP3    H243935   6.161   4.539  15.347  2.2537  0.5265  3.1812
 7482TIP3   OH243936   4.816   1.807  15.040 -0.3474  0.2597  0.1690
 7482TIP3    H143937   4.804   1.716  15.068  2.6924  0.4494  2.7098
 7482TIP3    H243938   4.868   1.800  14.960  2.0442 -0.3624  1.6722
 7483TIP3   OH243939   2.896   5.760  15.842  0.6189 -0.0710 -0.2130
 7483TIP3    H143940   2.893   5.698  15.769 -0.7524 -0.6270  0.2814
 7483TIP3    H243941   2.855   5.839  15.807  2.2281  0.5536 -0.7947
 7484TIP3   OH243942   0.624   0.058   2.080 -0.2488 -0.0017 -0.2715
 7484TIP3    H143943   0.626   0.076   2.174  0.4294 -0.4729 -0.1835
 7484TIP3    H243944   0.531   0.045   2.060 -0.2311 -3.4515  1.0823
 7485TIP3   OH243945   0.743   6.185   3.226  0.0100  0.1607  0.0653
 7485TIP3    H143946   0.759   6.105   3.177 -0.7115 -1.0697  1.7080
 7485TIP3    H243947   0.768   6.163   3.316  0.7745  2.1370  0.3818
 7486TIP3   OH243948   2.962   4.173  11.000  0.1973 -0.1522  0.2159
 7486TIP3    H143949   3.048   4.215  10.993  0.7154 -0.6627  2.5242
 7486TIP3    H243950   2.983   4.082  11.022 -0.9307 -0.2723  0.8310
 7487TIP3   OH243951   0.317   0.810   2.881  0.0369  0.0038  0.3575
 7487TIP3    H143952   0.373   0.839   2.809  1.6194 -0.5070  1.3555
 7487TIP3    H243953   0.302   0.717   2.864  1.1075 -0.3183  1.1165
 7488TIP3   OH243954   0.090   5.258   5.726  0.3198  0.1586  0.3727
 7488TIP3    H143955   0.005   5.301   5.716  0.3963 -0.2629 -2.9549
 7488TIP3    H243956   0.143   5.322   5.776 -0.8650  2.0429 -0.6579
 7489TIP3   OH243957   5.195   4.012  11.674  0.4684 -0.3083  0.7270
 7489TIP3    H143958   5.273   4.049  11.716  0.2892 -1.6935  2.3468
 7489TIP3    H243959   5.130   4.082  11.677  1.3517  0.5645  0.1389
 7490TIP3   OH243960   6.062   2.229  15.324  0.2758 -0.0737  0.2895
 7490TIP3    H143961   5.970   2.234  15.300 -0.0014 -0.8400  1.1354
 7490TIP3    H243962   6.061   2.219  15.420  1.2478  0.3961  0.3581
 7491TIP3   OH243963   1.605   4.528  15.835 -0.0138 -0.1449  0.0081
 7491TIP3    H143964   1.681   4.525  15.777 -0.3297 -1.7355 -0.3803
 7491TIP3    H243965   1.530   4.525  15.776 -0.3453 -0.7309  0.4543
 7492TIP3   OH243966   0.786   3.891  15.706 -0.2738  0.2116 -0.3562
 7492TIP3    H143967   0.881   3.886  15.696 -0.1078  0.0561  1.0916
 7492TIP3    H243968   0.753   3.817  15.655  0.5025 -0.6646  0.3831
 7493TIP3   OH243969   4.156   6.067   4.178  0.2123 -0.5964 -0.1358
 7493TIP3    H143970   4.112   6.151   4.171  1.7202  0.2059 -0.5574
 7493TIP3    H243971   4.086   6.004   4.192 -0.9350  0.7447  0.3824
 7494TIP3   OH243972   4.549   2.156   1.638  0.7988 -0.2024  0.4354
 7494TIP3    H143973   4.520   2.236   1.681 -0.6464  0.5684 -1.7866
 7494TIP3    H243974   4.469   2.104   1.627  1.1244 -0.4299 -1.1064
 7495TIP3   OH243975   4.864   4.973   2.823 -0.0582  0.3859 -0.6173
 7495TIP3    H143976   4.946   4.958   2.777 -0.9193 -0.3511 -1.9895
 7495TIP3    H243977   4.835   4.886   2.851  0.4088  0.8089  1.3397
 7496TIP3   OH243978   3.645   5.462   2.328  0.9893 -0.0508  0.5358
 7496TIP3    H143979   3.737   5.436   2.321  0.8856 -0.7400  1.5216
 7496TIP3    H243980   3.638   5.500   2.416  0.4975  0.7346  0.1701
 7497TIP3   OH243981   4.155   2.712   5.955 -0.3334  0.1367 -0.0594
 7497TIP3    H143982   4.173   2.805   5.947 -1.1089  0.4579  1.5351
 7497TIP3    H243983   4.144   2.697   6.049 -0.2036 -1.5715 -0.2746
 7498TIP3   OH243984   4.535   4.953  11.925  0.6762  0.5483 -0.1998
 7498TIP3    H143985   4.583   4.955  11.842  1.4322  0.9506  0.2347
 7498TIP3    H243986   4.443   4.941  11.899  1.0591 -0.8397 -1.0176
 7499TIP3   OH243987   6.485   1.627  13.262  0.0449  0.1756 -0.2452
 7499TIP3    H143988   6.555   1.615  13.325  0.4710  0.3044 -0.6885
 7499TIP3    H243989   6.449   1.539  13.249  0.4280  0.0333 -0.3593
 7500TIP3   OH243990   5.527   1.399  12.225  0.6476 -0.1254 -0.2602
 7500TIP3    H143991   5.512   1.484  12.184  1.7893  1.1389  1.8078
 7500TIP3    H243992   5.620   1.397  12.244  0.6486 -1.8554 -0.2378
 7501TIP3   OH243993   1.654   6.578   0.328 -0.1644  0.1837 -0.0527
 7501TIP3    H143994   1.657   6.635   0.404 -0.9188  0.8038 -0.4677
 7501TIP3    H243995   1.625   6.493   0.361 -1.6360  0.7593  0.1950
 7502TIP3   OH243996   1.814   1.369  13.283  0.6061  0.5716 -0.4772
 7502TIP3    H143997   1.753   1.437  13.253  0.8703  1.3991  0.7823
 7502TIP3    H243998   1.868   1.351  13.206  0.5018  1.7570 -0.8594
 7503TIP3   OH243999   2.821   0.843  13.700 -0.7261  0.2028 -0.0407
 7503TIP3    H144000   2.757   0.904  13.662 -0.7847  0.7140  0.8657
 7503TIP3    H244001   2.775   0.759  13.700 -0.6494  0.1338 -1.2897
 7504TIP3   OH244002   5.290   4.951  13.795 -1.0394 -0.2437  0.1384
 7504TIP3    H144003   5.223   5.017  13.778 -0.7285 -0.1477 -0.8064
 7504TIP3    H244004   5.301   4.906  13.711 -0.3418 -0.6459  0.4347
 7505TIP3   OH244005   5.676   3.220  15.365  0.2550 -0.7653  0.0085
 7505TIP3    H144006   5.678   3.218  15.269  0.7155  1.5997 -0.1020
 7505TIP3    H244007   5.763   3.251  15.391  1.2486 -4.2338  1.4515
 7506TIP3   OH244008   0.472   6.053   6.051 -0.3583  0.0314  0.0932
 7506TIP3    H144009   0.448   5.992   6.121  0.5651 -0.5868 -0.1073
 7506TIP3    H244010   0.415   6.129   6.064 -1.8394 -1.0402  0.0957
 7507TIP3   OH244011   2.745   2.951   3.117  0.0524 -0.0680  0.1521
 7507TIP3    H144012   2.755   3.026   3.176 -0.6885 -1.0677  1.6143
 7507TIP3    H244013   2.830   2.908   3.119 -0.2175 -0.5867  1.2304
 7508TIP3   OH244014   0.723   0.336  13.223 -0.3114  0.4474 -0.0667
 7508TIP3    H144015   0.655   0.391  13.263 -0.7404 -0.3987  0.3889
 7508TIP3    H244016   0.733   0.371  13.134 -0.0611  1.7097  0.4381
 7509TIP3   OH244017   3.815   3.133   5.088  0.3424 -0.1941  0.1493
 7509TIP3    H144018   3.745   3.189   5.121 -0.0630  0.3408 -1.4992
 7509TIP3    H244019   3.783   3.104   5.002  1.5659 -1.0612 -0.0350
 7510TIP3   OH244020   2.702   5.938   1.061  0.5645 -0.0882  0.4469
 7510TIP3    H144021   2.788   5.950   1.101  0.8595  0.1143 -0.2208
 7510TIP3    H244022   2.663   6.025   1.060  1.2350  0.2386 -1.1569
 7511TIP3   OH244023   3.466   0.134   5.239 -0.0864 -0.1478 -0.3124
 7511TIP3    H144024   3.421   0.214   5.211 -3.4977 -1.0108  2.0860
 7511TIP3    H244025   3.517   0.161   5.316  0.3098  0.0254 -0.6258
 7512TIP3   OH244026   6.660   5.431  12.041 -0.3769 -0.3623  0.2943
 7512TIP3    H144027   6.580   5.394  12.078 -1.2316 -0.5581 -1.6525
 7512TIP3    H244028   6.638   5.452  11.950  1.8828 -0.7768 -0.4212
 7513TIP3   OH244029   2.754   4.041  16.292 -0.0955  0.1197 -0.3829
 7513TIP3    H144030   2.743   3.946  16.292  0.1011  0.0954 -0.3309
 7513TIP3    H244031   2.689   4.073  16.354  2.5924 -0.3455  2.9976
 7514TIP3   OH244032   4.989   3.374  11.990 -0.1331 -0.3419 -0.6091
 7514TIP3    H144033   4.961   3.309  12.053 -0.4822 -0.0171 -0.4259
 7514TIP3    H244034   4.929   3.447  12.001  0.6541  0.2890 -0.3491
 7515TIP3   OH244035   5.974   5.894   1.579 -0.4244 -0.0941 -0.4682
 7515TIP3    H144036   6.007   5.975   1.618 -1.4688 -0.6771  1.8073
 7515TIP3    H244037   5.897   5.922   1.529  0.2476  0.5218 -1.1881
 7516TIP3   OH244038   6.186   1.588   3.609  0.5274  0.0166  0.2321
 7516TIP3    H144039   6.111   1.542   3.571  1.2173 -0.0509 -1.1070
 7516TIP3    H244040   6.179   1.571   3.703 -1.4352  0.4650  0.2327
 7517TIP3   OH244041   5.760   2.774  15.762 -0.2299 -0.4920  0.1195
 7517TIP3    H144042   5.696   2.757  15.831  1.5592 -1.2815  1.6786
 7517TIP3    H244043   5.828   2.826  15.805 -0.3945  1.4887 -1.8244
 7518TIP3   OH244044   6.622   3.213   5.898  0.2239  0.2033 -0.2750
 7518TIP3    H144045   6.707   3.171   5.909  0.5294  0.0308 -2.7743
 7518TIP3    H244046   6.558   3.143   5.908  0.4031  0.1790  0.7825
 7519TIP3   OH244047   5.392   1.849  12.883 -0.4514  0.3568 -0.4826
 7519TIP3    H144048   5.299   1.832  12.896 -0.5317  0.6853 -0.6324
 7519TIP3    H244049   5.421   1.781  12.823 -0.0674 -1.2372  1.4001
 7520TIP3   OH244050   5.359   2.407  11.839  0.0609  0.0841  0.1979
 7520TIP3    H144051   5.376   2.463  11.763 -0.0733  2.0587  1.5531
 7520TIP3    H244052   5.445   2.392  11.878 -0.0848  0.7512  0.7806
 7521TIP3   OH244053   2.765   6.618   0.003 -0.1644 -0.1124  0.1723
 7521TIP3    H144054   2.716   6.686  -0.044  1.1794 -0.5797 -2.0357
 7521TIP3    H244055   2.752   6.539  -0.048 -0.9580 -1.3797  2.2205
 7522TIP3   OH244056   2.387   4.051   5.680 -0.0383  0.1234  0.2640
 7522TIP3    H144057   2.317   4.012   5.733 -0.6259 -1.7617 -1.7817
 7522TIP3    H244058   2.420   3.980   5.626  0.6671  1.8716 -1.7716
 7523TIP3   OH244059   6.306   5.183  16.259  0.1845  0.2542 -0.1087
 7523TIP3    H144060   6.392   5.213  16.288 -0.5153  1.2229  1.0658
 7523TIP3    H244061   6.309   5.088  16.270  0.6634  0.3973  1.2104
 7524TIP3   OH244062   2.792   6.697  14.525  0.1344  0.1344  0.4170
 7524TIP3    H144063   2.737   6.636  14.475 -0.5063  1.0704 -0.0564
 7524TIP3    H244064   2.820   6.762  14.461  3.0472 -1.0753  0.3146
 7525TIP3   OH244065   5.614   1.823   6.711 -0.2214 -0.3644 -0.4271
 7525TIP3    H144066   5.522   1.814   6.687 -0.2367 -1.8959  0.1013
 7525TIP3    H244067   5.615   1.898   6.770 -1.6980 -2.0928  2.0168
 7526TIP3   OH244068   6.727   4.326   4.175  0.0639  0.1517 -0.3449
 7526TIP3    H144069   6.708   4.419   4.182 -0.2961  0.2042 -1.7859
 7526TIP3    H244070   6.762   4.314   4.087 -1.9904 -1.3938 -1.0365
 7527TIP3   OH244071   3.431   1.623   5.516  0.2966  0.0162  0.8234
 7527TIP3    H144072   3.384   1.639   5.435 -1.2427 -0.7635  1.5330
 7527TIP3    H244073   3.363   1.609   5.582  1.4688 -2.5402  1.6126
 7528TIP3   OH244074   5.864   0.464  16.293 -0.1713  0.3898 -0.3453
 7528TIP3    H144075   5.905   0.530  16.349 -0.7748 -1.0968  2.0102
 7528TIP3    H244076   5.770   0.472  16.311 -0.2037 -1.5485  0.5879
 7529TIP3   OH244077   0.132   3.558   0.548 -0.1906 -0.0222  0.3221
 7529TIP3    H144078   0.079   3.604   0.484  0.8944 -0.2349 -0.7584
 7529TIP3    H244079   0.101   3.467   0.544  0.5090 -0.2328 -0.6095
 7530TIP3   OH244080   6.781   3.066   6.525 -0.3387  0.4074  0.0422
 7530TIP3    H144081   6.864   3.050   6.569 -0.4309 -1.2582 -0.3296
 7530TIP3    H244082   6.720   3.088   6.596  0.7541  3.5247  0.1657
 7531TIP3   OH244083   4.708   4.395  17.157 -0.1227  0.6314  0.5538
 7531TIP3    H144084   4.713   4.488  17.134  0.5819  0.5248  0.2786
 7531TIP3    H244085   4.797   4.372  17.184 -0.4776  0.2439  1.4440
 7532TIP3   OH244086   0.663   3.343   1.292  0.1556  0.1948  0.1899
 7532TIP3    H144087   0.618   3.375   1.214  1.8361  1.0776 -0.4653
 7532TIP3    H244088   0.658   3.415   1.354  1.7861  0.8560 -0.3867
 7533TIP3   OH244089   5.131   3.045  15.027  0.0209 -0.2355  0.4593
 7533TIP3    H144090   5.073   3.112  15.063 -0.3592 -0.2186 -0.1745
 7533TIP3    H244091   5.204   3.093  14.988 -0.7360 -0.1128 -0.8730
 7534TIP3   OH244092   4.856   6.770  17.255  0.2590  0.1703 -0.1581
 7534TIP3    H144093   4.807   6.847  17.284  1.4414  0.7476  0.3860
 7534TIP3    H244094   4.887   6.729  17.336  2.4336  1.0207 -0.4957
 7535TIP3   OH244095   4.464   2.725   0.171  0.2060 -0.0989  0.0673
 7535TIP3    H144096   4.547   2.772   0.162 -0.7210  1.4835 -0.7614
 7535TIP3    H244097   4.489   2.635   0.188  2.1589 -0.1357 -2.3932
 7536TIP3   OH244098   3.761   2.680   0.816 -0.3817 -0.2437 -0.4864
 7536TIP3    H144099   3.685   2.700   0.762 -0.9770 -0.3883  0.2745
 7536TIP3    H244100   3.726   2.625   0.886  0.3082  0.1992  0.2178
 7537TIP3   OH244101   2.400   4.623  10.908  0.5728  0.5186 -0.4016
 7537TIP3    H144102   2.485   4.635  10.866  1.1928  0.5522  0.8080
 7537TIP3    H244103   2.341   4.681  10.860  1.0781  0.0270 -1.6572
 7538TIP3   OH244104   1.455   0.571  12.376 -0.3130  0.1865 -0.5976
 7538TIP3    H144105   1.461   0.578  12.471 -0.1711 -2.3155 -0.3781
 7538TIP3    H244106   1.384   0.510  12.360 -0.4348  0.6796 -2.1314
 7539TIP3   OH244107   3.116   2.796  16.019  0.0625 -0.1386 -0.0561
 7539TIP3    H144108   3.094   2.716  15.971 -2.1057 -0.2999  1.1122
 7539TIP3    H244109   3.132   2.861  15.950 -0.5352 -0.9774 -1.0162
 7540TIP3   OH244110   0.147   4.556   0.153  0.3212 -0.3684 -0.5747
 7540TIP3    H144111   0.205   4.491   0.112  1.2308 -1.7615  2.6522
 7540TIP3    H244112   0.059   4.525   0.133  0.7387 -1.4221 -0.8636
 7541TIP3   OH244113   5.359   5.293   5.407  0.1493 -0.3573  0.8359
 7541TIP3    H144114   5.407   5.220   5.446  0.6767 -0.7851 -0.5567
 7541TIP3    H244115   5.420   5.367   5.408  1.4022 -1.2067 -2.0246
 7542TIP3   OH244116   5.817   2.730  17.253 -0.1207 -0.5115  0.1562
 7542TIP3    H144117   5.739   2.779  17.278 -0.2171 -0.7531  0.3294
 7542TIP3    H244118   5.784   2.644  17.227 -0.1791  0.1307 -2.0972
 7543TIP3   OH244119   4.264   2.441   2.840 -0.1608 -0.0894 -0.4727
 7543TIP3    H144120   4.299   2.366   2.888  0.2302  0.6143  0.3661
 7543TIP3    H244121   4.340   2.483   2.800 -0.2177  0.5605  0.0815
 7544TIP3   OH244122   4.851   5.579  15.481  0.8547  0.1661  0.2841
 7544TIP3    H144123   4.844   5.669  15.511 -2.5878  0.1756 -0.1755
 7544TIP3    H244124   4.866   5.528  15.561 -2.0763  0.7551  1.3188
 7545TIP3   OH244125   3.579   3.349  16.375  0.1270  0.1184  0.2909
 7545TIP3    H144126   3.648   3.396  16.330  0.7841  0.8007  1.9281
 7545TIP3    H244127   3.613   3.260  16.386 -0.6798 -0.5162 -1.8587
 7546TIP3   OH244128   3.215   2.060   2.625  0.1757  0.5245  0.3638
 7546TIP3    H144129   3.156   1.992   2.657  1.9275 -2.6343 -2.4684
 7546TIP3    H244130   3.159   2.119   2.574 -0.9193 -0.8470 -0.0653
 7547TIP3   OH244131   6.118   2.484   2.079 -0.5243 -0.3099 -0.1186
 7547TIP3    H144132   6.106   2.403   2.127 -0.6729  0.2340  0.7928
 7547TIP3    H244133   6.205   2.515   2.104 -0.1737 -0.5355 -1.0121
 7548TIP3   OH244134   2.237   3.125   4.326  0.5544 -0.3465 -0.0974
 7548TIP3    H144135   2.255   3.207   4.281 -0.1030  1.5970  2.9289
 7548TIP3    H244136   2.143   3.112   4.316  0.6773 -0.8897 -0.6974
 7549TIP3   OH244137   4.644   1.817   4.858 -0.1755  0.6045  0.1921
 7549TIP3    H144138   4.565   1.774   4.828  0.0842  0.5199 -0.3897
 7549TIP3    H244139   4.635   1.907   4.828 -0.2576  0.7085  0.5255
 7550TIP3   OH244140   6.418   2.189   4.426 -0.6894  0.1957 -0.0250
 7550TIP3    H144141   6.499   2.219   4.465 -0.3544 -0.6223 -0.0760
 7550TIP3    H244142   6.407   2.244   4.348 -0.5087  0.7134  0.3078
 7551TIP3   OH244143   6.530   4.246  14.321 -0.4543  0.4779  0.3296
 7551TIP3    H144144   6.458   4.183  14.327 -2.5586  2.5993 -0.9359
 7551TIP3    H244145   6.587   4.211  14.252 -2.1904  0.4725 -1.1615
 7552TIP3   OH244146   0.645   6.333  14.982 -0.0103  0.2507 -0.3964
 7552TIP3    H144147   0.679   6.374  15.062 -2.8078 -0.7129  1.4421
 7552TIP3    H244148   0.599   6.404  14.937 -2.0800 -0.0186  1.1332
 7553TIP3   OH244149   4.145   5.295   2.217 -0.3445 -0.2526 -0.0371
 7553TIP3    H144150   4.186   5.209   2.202  0.4610 -0.0023  0.6554
 7553TIP3    H244151   4.214   5.358   2.200 -0.9862  0.2896 -0.7245
 7554TIP3   OH244152   0.649   0.793   1.045 -0.2032  0.3020  0.0941
 7554TIP3    H144153   0.596   0.716   1.067  1.2041 -0.5855  0.5321
 7554TIP3    H244154   0.735   0.774   1.083 -0.0053  2.4143  0.8477
 7555TIP3   OH244155   4.051   5.263  12.928  0.2807  0.0891 -0.8638
 7555TIP3    H144156   4.012   5.259  12.841 -1.1565 -0.7048 -0.2173
 7555TIP3    H244157   4.032   5.352  12.959  1.3315  0.5880 -1.5537
 7556TIP3   OH244158   6.612   4.450  10.825 -0.3607  0.0558  0.0464
 7556TIP3    H144159   6.570   4.462  10.740  0.9969 -0.2622 -0.7003
 7556TIP3    H244160   6.682   4.387  10.809 -0.2567 -0.2357  1.4696
 7557TIP3   OH244161   1.401   4.450  12.722  0.0774 -0.5479 -0.4909
 7557TIP3    H144162   1.342   4.522  12.744  0.5243 -0.0091 -1.0306
 7557TIP3    H244163   1.346   4.371  12.728 -0.4510 -0.1479 -0.0534
 7558TIP3   OH244164   4.814   5.278  12.856  0.1491  0.0511 -0.1346
 7558TIP3    H144165   4.849   5.245  12.773  1.3627 -0.1994  0.4510
 7558TIP3    H244166   4.720   5.261  12.851  0.3104 -0.6333 -1.1567
 7559TIP3   OH244167   1.365   2.584  15.026 -0.4396  0.0859 -0.4306
 7559TIP3    H144168   1.382   2.658  15.083 -1.8532  0.0824  0.0255
 7559TIP3    H244169   1.365   2.508  15.084 -1.0395 -0.0217 -0.5665
 7560TIP3   OH244170   3.451   1.444   4.496  0.3632  0.1437 -0.1141
 7560TIP3    H144171   3.400   1.368   4.469 -1.2053  1.5303 -1.2788
 7560TIP3    H244172   3.412   1.471   4.579  0.1777  0.3437 -0.2670
 7561TIP3   OH244173   1.307   4.716  15.849 -0.0470  0.0749  0.3375
 7561TIP3    H144174   1.337   4.723  15.758 -0.3543  1.3720  0.3132
 7561TIP3    H244175   1.216   4.686  15.841 -0.5583  1.6089  0.1206
 7562TIP3   OH244176   1.545   4.929  14.292  0.5830 -0.3672  0.0994
 7562TIP3    H144177   1.459   4.939  14.333  0.5438 -2.2161  0.5880
 7562TIP3    H244178   1.582   5.017  14.290 -0.9692  0.3294  0.6583
 7563TIP3   OH244179   2.486   2.601  13.448 -0.0531 -0.0133  0.5807
 7563TIP3    H144180   2.513   2.682  13.492 -0.4834  0.1066  0.6338
 7563TIP3    H244181   2.436   2.553  13.515 -0.4059  0.0065  0.3324
 7564TIP3   OH244182   1.086   1.746  14.170  0.1583  0.4906  0.0099
 7564TIP3    H144183   1.160   1.806  14.184  0.7669 -0.4538  1.0209
 7564TIP3    H244184   1.100   1.713  14.081  0.0441  1.5172 -0.4043
 7565TIP3   OH244185   0.034   5.623  13.613 -0.4121  0.0846  0.4950
 7565TIP3    H144186  -0.007   5.615  13.699 -1.0998  0.8162  0.2466
 7565TIP3    H244187   0.086   5.543  13.603 -1.0382 -0.4237  1.2139
 7566TIP3   OH244188   1.052   0.662  14.812  0.8309  0.5680 -0.3426
 7566TIP3    H144189   0.966   0.631  14.786  0.5262 -0.1649  1.4148
 7566TIP3    H244190   1.104   0.659  14.731 -0.4000 -0.3023 -1.1381
 7567TIP3   OH244191   1.166   0.631   0.361 -0.2770 -0.4135  0.3374
 7567TIP3    H144192   1.097   0.600   0.419 -0.7842 -1.0451 -0.5972
 7567TIP3    H244193   1.131   0.619   0.273 -0.3964  2.4951 -0.1150
 7568TIP3   OH244194   5.471   2.362   3.459  0.2390  0.2066  0.3202
 7568TIP3    H144195   5.407   2.326   3.398 -0.9016  0.9824  0.9945
 7568TIP3    H244196   5.505   2.440   3.415 -1.3642  1.3754  1.0322
 7569TIP3   OH244197   0.159   5.240   6.506  0.3083 -0.2288  0.0353
 7569TIP3    H144198   0.176   5.327   6.470 -0.0422 -0.5442 -0.9167
 7569TIP3    H244199   0.165   5.252   6.601 -0.5441  1.0047 -0.0448
 7570TIP3   OH244200   1.600   0.857  12.797 -0.0856  0.1881  0.0594
 7570TIP3    H144201   1.677   0.843  12.852 -0.6752 -2.3146  0.3693
 7570TIP3    H244202   1.532   0.887  12.857 -0.7700 -2.6754  0.8931
 7571TIP3   OH244203   3.049   2.477   1.970 -0.5132  0.9933 -0.2360
 7571TIP3    H144204   3.040   2.384   1.950  1.1207  0.6913  0.2072
 7571TIP3    H244205   3.020   2.522   1.891 -1.0151  0.1027 -0.5753
 7572TIP3   OH244206   5.685   3.985   1.082 -0.0133  0.1740  0.3806
 7572TIP3    H144207   5.762   4.032   1.113 -1.0030  1.5501  0.8945
 7572TIP3    H244208   5.689   3.900   1.127 -0.9056  1.7382  3.7603
 7573TIP3   OH244209   2.081   1.180  13.685 -0.2155  0.2461  0.6450
 7573TIP3    H144210   2.114   1.266  13.708  2.3548 -0.8289  1.2635
 7573TIP3    H244211   2.036   1.149  13.764  2.2781 -0.4896  1.8820
 7574TIP3   OH244212   6.001   0.192   5.230  0.5290  0.1936  0.4179
 7574TIP3    H144213   6.057   0.259   5.190 -3.6237  4.0930  0.3330
 7574TIP3    H244214   5.950   0.157   5.157 -1.4173  1.4047  1.1236
 7575TIP3   OH244215   3.587   2.561  16.708 -0.1248  0.0850 -0.6078
 7575TIP3    H144216   3.618   2.650  16.726 -0.8447  0.2538 -0.1854
 7575TIP3    H244217   3.536   2.569  16.628 -0.2638  0.0671 -0.5205
 7576TIP3   OH244218   1.017   6.326  15.434  0.1979  0.2268 -0.3830
 7576TIP3    H144219   1.036   6.247  15.483 -2.0567  0.3171  0.7618
 7576TIP3    H244220   0.967   6.381  15.495 -0.1496  1.6075 -1.8387
 7577TIP3   OH244221   6.071   5.629   0.551 -0.1837 -0.5417 -0.2112
 7577TIP3    H144222   6.109   5.582   0.626 -2.3567 -1.7488  0.2156
 7577TIP3    H244223   6.098   5.578   0.475 -0.5303 -1.1168  0.0437
 7578TIP3   OH244224   5.435   5.648   0.346  0.1135 -0.2234 -0.3706
 7578TIP3    H144225   5.466   5.689   0.265 -1.1479  1.5100 -0.0192
 7578TIP3    H244226   5.473   5.560   0.344  1.1656  0.2260 -2.2044
 7579TIP3   OH244227   6.242   3.305   6.323 -0.1514  0.6283  0.3540
 7579TIP3    H144228   6.182   3.356   6.269  1.3263  1.7886 -0.2507
 7579TIP3    H244229   6.246   3.352   6.406 -2.8093 -1.4200  1.8106
 7580TIP3   OH244230   4.481   0.670  15.414 -0.0014  0.6444 -0.5170
 7580TIP3    H144231   4.445   0.673  15.503 -0.2244 -0.3309 -0.5613
 7580TIP3    H244232   4.404   0.677  15.357  0.3155  3.8612 -0.7159
 7581TIP3   OH244233   0.849   5.426  10.354 -0.3237  0.0536  0.2682
 7581TIP3    H144234   0.880   5.355  10.298  1.1419  1.6424 -1.0093
 7581TIP3    H244235   0.822   5.495  10.293 -0.8277  0.9682  1.4900
 7582TIP3   OH244236   1.089   1.979  14.899 -0.1496  0.3897  0.3829
 7582TIP3    H144237   1.077   2.054  14.840  0.3359 -0.9994 -1.5677
 7582TIP3    H244238   1.115   1.907  14.841 -0.2851 -1.2149  2.2382
 7583TIP3   OH244239   1.205   6.511   1.394 -0.8012  0.0671 -0.6535
 7583TIP3    H144240   1.208   6.510   1.298 -0.9053  0.4908 -0.6658
 7583TIP3    H244241   1.171   6.425   1.418 -1.2217  0.1221 -1.0228
 7584TIP3   OH244242   0.383   1.977   0.069 -0.0436 -0.1491 -0.3906
 7584TIP3    H144243   0.390   1.882   0.063 -0.9365 -0.1892 -1.1007
 7584TIP3    H244244   0.455   2.011   0.016 -0.6837 -0.4595 -1.5037
 7585TIP3   OH244245   0.448   1.109  15.240  0.2293  0.2950 -0.7137
 7585TIP3    H144246   0.481   1.179  15.184  1.8260 -0.8007 -1.2305
 7585TIP3    H244247   0.467   1.139  15.329 -0.8797  1.3544 -0.8234
 7586TIP3   OH244248   0.032   1.044  14.842 -0.2957 -0.2002  0.3941
 7586TIP3    H144249   0.029   1.135  14.812 -1.1303 -0.2534  0.2815
 7586TIP3    H244250  -0.043   1.003  14.799  0.9021 -1.3037 -0.7069
 7587TIP3   OH244251   0.093   6.182  14.371  0.3443 -0.0500 -0.0530
 7587TIP3    H144252   0.145   6.193  14.291  2.4023 -3.7204  0.5767
 7587TIP3    H244253   0.072   6.089  14.375 -1.4310  0.3275  2.6925
 7588TIP3   OH244254   0.606   0.858  12.246 -0.1282 -0.8273  0.0179
 7588TIP3    H144255   0.595   0.916  12.172 -0.4797 -1.7937 -0.7091
 7588TIP3    H244256   0.638   0.776  12.208 -1.3139 -1.6818  0.7952
 7589TIP3   OH244257   0.902   0.475  11.587 -0.4759 -0.2331  0.0104
 7589TIP3    H144258   0.825   0.421  11.572 -0.4417  0.0659 -1.3723
 7589TIP3    H244259   0.869   0.552  11.632 -1.0441 -0.0025 -0.7765
 7590TIP3   OH244260   4.449   3.637   4.424 -1.0437 -0.4032 -0.1872
 7590TIP3    H144261   4.523   3.643   4.364  0.0214  0.8356  1.1729
 7590TIP3    H244262   4.420   3.546   4.418  0.7544 -0.9887 -0.5859
 7591TIP3   OH244263   6.000   4.118   5.658  0.6844 -0.3985  0.0930
 7591TIP3    H144264   5.983   4.200   5.611 -0.3044 -1.7723 -2.1121
 7591TIP3    H244265   6.096   4.115   5.666  0.8154  0.4523 -0.8345
 7592TIP3   OH244266   5.249   1.077   4.319  0.3663 -0.2290  0.2097
 7592TIP3    H144267   5.189   1.051   4.389 -1.1396 -0.8200 -1.2261
 7592TIP3    H244268   5.191   1.102   4.246  1.8338 -1.8908 -1.6323
 7593TIP3   OH244269   5.222   5.978   5.823 -0.7663  0.4448  0.0250
 7593TIP3    H144270   5.177   5.941   5.899  2.1683 -0.6491  1.4098
 7593TIP3    H244271   5.192   6.068   5.819 -3.0723 -0.2066  0.7335
 7594TIP3   OH244272   1.984   2.899  15.614  0.4231  0.2449 -0.0689
 7594TIP3    H144273   1.976   2.949  15.695  1.1993 -2.0220  1.5011
 7594TIP3    H244274   1.896   2.867  15.597  0.1613  1.1279 -0.4129
 7595TIP3   OH244275   4.340   2.114   3.454 -0.2377 -0.2846  0.5438
 7595TIP3    H144276   4.307   2.129   3.542 -0.0073  3.0913  0.2213
 7595TIP3    H244277   4.288   2.173   3.399 -0.0520 -1.9330 -1.5314
 7596TIP3   OH244278   6.200   5.879  16.723  0.3443 -0.2471  0.1715
 7596TIP3    H144279   6.201   5.798  16.773 -0.7480  0.6256  1.6726
 7596TIP3    H244280   6.108   5.903  16.717  0.5898  0.5185 -0.8916
 7597TIP3   OH244281   5.809   5.121  16.932  0.0557  0.6546 -0.1927
 7597TIP3    H144282   5.737   5.064  16.957 -1.0047  2.3921  0.9626
 7597TIP3    H244283   5.882   5.062  16.914 -1.4376 -1.1113 -0.7035
 7598TIP3   OH244284   6.126   6.749  16.218 -0.4222  0.2605 -0.9533
 7598TIP3    H144285   6.132   6.827  16.272 -0.0650  1.0969 -2.1672
 7598TIP3    H244286   6.171   6.681  16.268  1.0291  1.3343 -0.7501
 7599TIP3   OH244287   4.380   6.524   5.071 -0.0112 -0.0215  0.1361
 7599TIP3    H144288   4.333   6.552   4.994  1.0800 -0.2002 -0.6211
 7599TIP3    H244289   4.459   6.481   5.037  0.7639  0.3848  1.3412
 7600TIP3   OH244290   6.312   3.807   0.969 -0.5227  0.1381 -0.0771
 7600TIP3    H144291   6.336   3.817   0.877  1.0950  2.9949  0.5180
 7600TIP3    H244292   6.247   3.875   0.984  1.3997  1.7676  1.4576
 7601TIP3   OH244293   0.087   0.779  15.946 -0.7067  0.2462 -0.4745
 7601TIP3    H144294   0.008   0.775  16.000  0.5128  3.4591  1.9043
 7601TIP3    H244295   0.143   0.709  15.980 -0.8582  0.7675  0.9191
 7602TIP3   OH244296   2.729   0.306  12.706 -0.1909 -0.4499 -0.2230
 7602TIP3    H144297   2.695   0.388  12.670  0.5438 -0.2026 -0.3782
 7602TIP3    H244298   2.729   0.246  12.631  0.9302 -0.0631 -0.5464
 7603TIP3   OH244299   1.125   0.716   5.548  0.7417 -0.1012  0.2098
 7603TIP3    H144300   1.143   0.810   5.540 -0.4171  0.1311  0.2311
 7603TIP3    H244301   1.207   0.674   5.522  0.3875  0.8389 -2.8074
 7604TIP3   OH244302   3.140   6.655   2.378 -0.2396  0.0375  0.3967
 7604TIP3    H144303   3.111   6.722   2.316 -2.5469  1.8186  3.1631
 7604TIP3    H244304   3.209   6.697   2.429  0.1480 -0.6529  0.4573
 7605TIP3   OH244305   6.233   5.957  10.939 -0.2261 -0.5039  0.3682
 7605TIP3    H144306   6.168   5.894  10.969 -0.8669  0.0723  0.2146
 7605TIP3    H244307   6.292   5.906  10.883 -1.3183 -0.7697 -0.5813
 7606TIP3   OH244308   4.232   4.461  14.039 -0.6030 -0.3315 -0.5462
 7606TIP3    H144309   4.165   4.504  14.091 -0.5455 -0.4603 -0.3654
 7606TIP3    H244310   4.309   4.518  14.047 -0.1521 -1.0694  0.6835
 7607TIP3   OH244311   6.356   5.527  12.096  0.1223  0.0021 -0.7661
 7607TIP3    H144312   6.290   5.521  12.026 -0.4957 -0.9331 -0.1334
 7607TIP3    H244313   6.381   5.436  12.112  1.8361  0.3551 -1.2132
 7608TIP3   OH244314   1.082   5.546  11.119 -0.1033 -0.0876 -0.3800
 7608TIP3    H144315   1.003   5.492  11.119  1.2497 -2.2008 -0.4835
 7608TIP3    H244316   1.127   5.523  11.038  0.2545  1.6900 -0.7249
 7609TIP3   OH244317   5.667   4.908   3.460 -0.1404  0.3922 -0.1399
 7609TIP3    H144318   5.590   4.884   3.512  0.1385  1.4462  0.8111
 7609TIP3    H244319   5.714   4.826   3.446 -1.0401 -0.1481 -0.0780
 7610TIP3   OH244320   2.108   4.121   5.415  0.1061  0.3041  0.1453
 7610TIP3    H144321   2.026   4.072   5.411  1.1679 -1.5137 -0.4795
 7610TIP3    H244322   2.136   4.128   5.323  1.8372 -1.2530  0.5117
 7611TIP3   OH244323   2.836   3.337  12.119  0.0829 -0.1394  0.0982
 7611TIP3    H144324   2.743   3.337  12.144 -0.5521  0.7651 -2.0012
 7611TIP3    H244325   2.864   3.247  12.132  0.0849  0.2695  4.4701
 7612TIP3   OH244326   2.315   6.218   1.605 -0.1536  0.6219  0.0812
 7612TIP3    H144327   2.391   6.275   1.616 -0.0526  0.5656 -0.3249
 7612TIP3    H244328   2.302   6.213   1.511 -0.3759  0.2497  0.1304
 7613TIP3   OH244329   2.944   4.066  11.956 -0.2318 -0.0000 -0.0401
 7613TIP3    H144330   2.942   4.063  11.860 -1.7020 -2.2311 -0.0024
 7613TIP3    H244331   2.977   3.981  11.983 -0.5772  0.3015  1.4463
 7614TIP3   OH244332   4.155   6.210   6.342  0.0082  0.3636  0.0171
 7614TIP3    H144333   4.207   6.139   6.305 -0.1487  0.2215  0.0686
 7614TIP3    H244334   4.194   6.225   6.428 -1.0109 -0.8187  0.7263
 7615TIP3   OH244335   0.002   0.079  12.003  0.0780  0.1548 -0.1964
 7615TIP3    H144336   0.082   0.078  12.056 -0.1466 -1.7404  0.2013
 7615TIP3    H244337   0.033   0.073  11.913  0.4121  0.0513 -0.0769
 7616TIP3   OH244338   4.011   2.766  16.399 -0.2118  0.9339  0.1929
 7616TIP3    H144339   3.928   2.813  16.407 -1.1270 -0.6513  0.3213
 7616TIP3    H244340   4.065   2.822  16.342 -1.2628  2.1012  0.3093
 7617TIP3   OH244341   0.228   5.019   2.384  0.4580  0.3332 -0.0512
 7617TIP3    H144342   0.156   4.962   2.413 -1.0614  1.0090 -2.3070
 7617TIP3    H244343   0.267   4.972   2.310  0.8001  1.0786 -0.3463
 7618TIP3   OH244344   4.666   6.425   0.298 -0.1538 -0.3740 -0.1213
 7618TIP3    H144345   4.667   6.331   0.279  0.7564 -1.0992  2.9354
 7618TIP3    H244346   4.757   6.445   0.322 -0.8075  0.6720  1.6708
 7619TIP3   OH244347   0.324   5.656  15.457  0.4969  0.4643 -0.2090
 7619TIP3    H144348   0.285   5.569  15.446  0.0152  0.7278 -0.5969
 7619TIP3    H244349   0.288   5.687  15.540  1.7496 -0.2640  0.6439
 7620TIP3   OH244350   0.148   3.114   1.382 -0.2372 -0.2102  0.2825
 7620TIP3    H144351   0.101   3.039   1.347  0.5265  0.1580 -1.6133
 7620TIP3    H244352   0.213   3.136   1.316  0.8075  0.9830  1.6208
 7621TIP3   OH244353   2.097   1.137   5.397  0.2720  0.4041  0.9699
 7621TIP3    H144354   2.034   1.090   5.341 -2.2537  0.2420  3.7086
 7621TIP3    H244355   2.060   1.225   5.406  1.4033  0.8611  1.2674
 7622TIP3   OH244356   1.063   6.250   5.251 -0.4011 -0.0496 -0.9250
 7622TIP3    H144357   1.128   6.246   5.321 -0.7992  3.0560 -0.2473
 7622TIP3    H244358   1.077   6.169   5.201  2.7808 -0.3363  0.1968
 7623TIP3   OH244359   5.919   1.729  17.145  0.2859 -0.3395 -0.3995
 7623TIP3    H144360   5.878   1.771  17.221  1.5340 -0.6395  0.4656
 7623TIP3    H244361   5.862   1.656  17.124 -0.1911 -0.1198  0.1016
 7624TIP3   OH244362   3.666   5.446  13.311  0.1679 -0.4162 -0.7598
 7624TIP3    H144363   3.702   5.520  13.262 -0.1976 -1.1470 -2.1947
 7624TIP3    H244364   3.717   5.371  13.282 -0.2148 -0.9002 -0.1954
 7625TIP3   OH244365   3.574   4.775   1.517 -0.0239 -0.0663  0.3107
 7625TIP3    H144366   3.530   4.851   1.556  0.9213  1.0065 -0.6372
 7625TIP3    H244367   3.602   4.722   1.592 -0.3874  0.6999  1.0038
 7626TIP3   OH244368   1.531   5.327   6.314 -0.1575  0.4025  0.0743
 7626TIP3    H144369   1.571   5.402   6.269 -1.5095  1.0064 -0.1602
 7626TIP3    H244370   1.585   5.252   6.288  0.8935  1.2056 -0.1190
 7627TIP3   OH244371   0.339   4.980  10.416  0.7954 -0.1114 -0.1903
 7627TIP3    H144372   0.299   4.949  10.497 -2.5639 -0.5362 -1.8142
 7627TIP3    H244373   0.390   5.057  10.441 -1.5976  0.8456  2.1030
 7628TIP3   OH244374   6.408   0.089   4.966  0.4520  0.1248 -0.0457
 7628TIP3    H144375   6.498   0.121   4.957 -0.0898  1.2784 -2.1081
 7628TIP3    H244376   6.359   0.139   4.901 -1.8393  0.0350  1.5085
 7629TIP3   OH244377   1.392   0.984   5.644  0.6462 -0.3279 -0.1752
 7629TIP3    H144378   1.390   0.932   5.724  0.3792 -2.3254 -1.4056
 7629TIP3    H244379   1.438   1.064   5.668  0.0801 -0.6225  2.0880
 7630TIP3   OH244380   4.964   3.277   5.054  0.3332  0.2421  0.3487
 7630TIP3    H144381   5.057   3.291   5.070  0.2374 -0.7175  1.8936
 7630TIP3    H244382   4.922   3.357   5.085  0.4931 -0.0918  1.4651
 7631TIP3   OH244383   5.933   3.728   1.124  0.2701 -0.1573  0.1670
 7631TIP3    H144384   5.970   3.772   1.047  0.9332 -0.4630  0.3020
 7631TIP3    H244385   5.946   3.635   1.107 -2.3307 -0.4435 -0.7336
 7632TIP3   OH244386   2.949   4.817  17.185  0.6803 -0.2523 -0.3646
 7632TIP3    H144387   2.917   4.905  17.165 -1.5435 -1.2223 -1.2819
 7632TIP3    H244388   2.920   4.763  17.112  1.7198 -1.8468  0.3434
 7633TIP3   OH244389   6.411   5.775  16.079 -0.2340  0.4188 -0.1320
 7633TIP3    H144390   6.496   5.752  16.116 -0.8340 -2.4396 -0.3126
 7633TIP3    H244391   6.423   5.765  15.985 -0.6405  0.4458 -0.1877
 7634TIP3   OH244392   0.378   4.841  12.188 -0.7016  0.5205 -0.3353
 7634TIP3    H144393   0.355   4.759  12.144  2.0910  0.1269 -1.2713
 7634TIP3    H244394   0.319   4.906  12.149 -0.6801 -0.4510 -2.1108
 7635TIP3   OH244395   0.300   3.882   5.714  0.1708  0.1441  0.1924
 7635TIP3    H144396   0.242   3.876   5.639 -0.3258 -2.2330  0.6862
 7635TIP3    H244397   0.364   3.812   5.702  0.4405  0.0878  1.6675
 7636TIP3   OH244398   4.962   5.361   6.091  0.1665  0.8820 -0.0667
 7636TIP3    H144399   4.903   5.376   6.165  2.2072  0.4286  1.7637
 7636TIP3    H244400   5.015   5.440   6.087  1.2288  0.1881  0.0833
 7637TIP3   OH244401   0.368   5.489   5.225 -0.3383  0.1847 -0.0238
 7637TIP3    H144402   0.369   5.447   5.139  1.5453 -0.0309  0.0751
 7637TIP3    H244403   0.294   5.449   5.270 -0.4074 -0.8232 -0.9888
 7638TIP3   OH244404   5.777   3.370   1.795 -0.4751 -0.1340  0.3228
 7638TIP3    H144405   5.691   3.342   1.825 -0.0567 -0.5330  1.2128
 7638TIP3    H244406   5.837   3.341   1.865  0.4096 -0.1216 -0.4074
 7639TIP3   OH244407   2.007   3.931  15.988  0.2779 -0.3460 -0.3914
 7639TIP3    H144408   2.084   3.966  15.943  0.4152 -0.0523  0.0717
 7639TIP3    H244409   1.950   4.007  16.001 -0.3458 -0.6542 -1.2259
 7640TIP3   OH244410   5.052   2.197  15.702  0.4822 -0.2476  0.1844
 7640TIP3    H144411   5.017   2.248  15.775  2.6187  0.9863  0.4363
 7640TIP3    H244412   5.147   2.204  15.712  0.8276 -1.2580 -1.8988
 7641TIP3   OH244413   5.579   0.648   2.718  0.8861 -0.6038  0.5291
 7641TIP3    H144414   5.527   0.723   2.749  1.9001  0.5566 -0.4513
 7641TIP3    H244415   5.669   0.677   2.727  1.2648 -1.0819 -1.3695
 7642TIP3   OH244416   0.261   6.599   3.209 -0.4913 -0.2276 -0.1844
 7642TIP3    H144417   0.194   6.662   3.183  0.9931  0.4033 -2.8850
 7642TIP3    H244418   0.243   6.521   3.156 -1.2813 -1.5428  1.8764
 7643TIP3   OH244419   1.653   4.647   3.594 -0.0820 -0.6559  0.2605
 7643TIP3    H144420   1.663   4.612   3.683 -0.4227 -1.6097 -0.0734
 7643TIP3    H244421   1.692   4.580   3.537 -0.4090 -0.3229 -0.3614
 7644TIP3   OH244422   3.911   1.711   1.631 -0.0022  0.4127 -0.3704
 7644TIP3    H144423   3.924   1.780   1.696  1.1269 -0.1602  0.0307
 7644TIP3    H244424   3.867   1.641   1.680  0.3670  0.1885 -0.3610
 7645TIP3   OH244425   2.449   6.803   2.036 -0.1500  0.6666  0.5237
 7645TIP3    H144426   2.401   6.756   1.968  0.2440  0.3626  0.4521
 7645TIP3    H244427   2.381   6.839   2.094 -0.4608 -1.3946  1.5357
 7646TIP3   OH244428   6.636   0.870  11.156 -0.0706  0.4502 -0.3731
 7646TIP3    H144429   6.697   0.801  11.131  0.9566  1.2424 -0.1115
 7646TIP3    H244430   6.555   0.823  11.179 -0.4550 -0.4417 -3.1548
 7647TIP3   OH244431   6.289   0.447   1.608  0.1473  0.2729 -0.1226
 7647TIP3    H144432   6.363   0.498   1.640  0.5475 -0.0884 -0.4600
 7647TIP3    H244433   6.247   0.414   1.688  0.0051  0.9555  0.0882
 7648TIP3   OH244434   6.100   0.671   0.476  0.2865  0.5455  0.0525
 7648TIP3    H144435   6.043   0.720   0.534 -0.3689 -0.0546 -0.0841
 7648TIP3    H244436   6.187   0.676   0.517 -0.0424  0.6784  0.7327
 7649TIP3   OH244437   0.287   4.178   1.625  0.4833 -0.0178  0.3627
 7649TIP3    H144438   0.312   4.124   1.550  0.2218 -0.1916  0.4006
 7649TIP3    H244439   0.255   4.259   1.586  1.0935  0.2067  0.3123
 7650TIP3   OH244440   5.869   4.966  14.005 -0.3826  0.4743  0.3491
 7650TIP3    H144441   5.810   4.985  13.932 -0.6463  0.5932  0.5923
 7650TIP3    H244442   5.886   5.051  14.046 -1.6721  0.2079  1.5136
 7651TIP3   OH244443   2.270   6.203   2.575  0.4144 -0.6570 -0.0956
 7651TIP3    H144444   2.252   6.296   2.566 -1.0455 -0.9839 -0.9462
 7651TIP3    H244445   2.213   6.174   2.646  1.2951 -0.8098  0.5685
 7652TIP3   OH244446   0.919   2.922  10.547 -0.0075  0.0666 -0.4712
 7652TIP3    H144447   0.976   2.850  10.519  0.2868  0.1945 -0.2094
 7652TIP3    H244448   0.840   2.878  10.578  0.7601 -0.2654  1.1377
 7653TIP3   OH244449   6.505   0.083   2.388  0.7712  0.3382 -0.1838
 7653TIP3    H144450   6.544   0.016   2.444  1.1906  0.2160 -0.6165
 7653TIP3    H244451   6.527   0.166   2.430 -0.6270  0.1882  0.9215
 7654TIP3   OH244452   2.243   4.734   4.700  0.2680  0.2853  0.2859
 7654TIP3    H144453   2.159   4.778   4.713 -0.5913 -1.5445  1.4103
 7654TIP3    H244454   2.221   4.656   4.648  1.7296  1.1078 -1.6607
 7655TIP3   OH244455   1.932   6.199  15.778 -0.3697  0.7553  0.0951
 7655TIP3    H144456   1.998   6.234  15.837 -0.9131  1.9898  0.0059
 7655TIP3    H244457   1.970   6.118  15.744  1.1597  1.5219 -0.0854
 7656TIP3   OH244458   4.957   2.416   1.298 -0.5714  0.2889  0.4257
 7656TIP3    H144459   4.873   2.461   1.283 -0.7180 -0.6029 -1.8630
 7656TIP3    H244460   4.958   2.346   1.231  1.1165 -0.9843  1.7137
 7657TIP3   OH244461   4.307   2.772  11.322 -0.3724  0.0793  0.0518
 7657TIP3    H144462   4.394   2.791  11.357  0.3629 -1.8042 -0.6557
 7657TIP3    H244463   4.296   2.835  11.250  0.0550  0.8515  0.6480
 7658TIP3   OH244464   4.726   6.259   0.625  0.1960  0.8565  0.0065
 7658TIP3    H144465   4.640   6.280   0.660 -0.4505 -2.1126  0.4354
 7658TIP3    H244466   4.784   6.259   0.701  0.6830  3.0429 -0.3086
 7659TIP3   OH244467   3.926   6.155   4.495 -0.5577 -0.0069  0.3326
 7659TIP3    H144468   3.905   6.127   4.405 -0.8134 -2.8308  1.1716
 7659TIP3    H244469   4.007   6.205   4.486 -1.0865  0.5711 -1.5810
 7660TIP3   OH244470   3.055   4.959  12.445  0.4797 -0.2841 -0.0517
 7660TIP3    H144471   2.997   5.035  12.454 -0.3364 -1.0064  0.9305
 7660TIP3    H244472   3.079   4.959  12.352 -0.5442  0.4210 -0.3397
 7661TIP3   OH244473   3.373   6.192   3.038  0.0318 -0.3019  0.2594
 7661TIP3    H144474   3.450   6.164   3.087  0.5464 -1.0846 -0.9377
 7661TIP3    H244475   3.364   6.285   3.057  2.2416  0.1820 -0.8270
 7662TIP3   OH244476   3.549   4.165   1.785  0.8744  0.2602  0.6050
 7662TIP3    H144477   3.593   4.092   1.743  2.8101  0.5117  2.0403
 7662TIP3    H244478   3.619   4.227   1.806  0.2087 -0.0084  4.4197
 7663TIP3   OH244479   0.123   2.954  12.391 -0.3897  0.5079 -0.5646
 7663TIP3    H144480   0.062   2.893  12.350 -0.8075  0.4635  0.1012
 7663TIP3    H244481   0.114   2.937  12.485  1.9597 -0.7697 -0.4801
 7664TIP3   OH244482   3.966   2.055   2.287  0.2204  0.3513 -0.2362
 7664TIP3    H144483   3.967   2.063   2.192  0.3093  0.1190 -0.2555
 7664TIP3    H244484   4.057   2.073   2.313  0.0785  0.9337 -0.1527
 7665TIP3   OH244485   6.150   2.184   1.029 -0.2057  0.0422  0.1722
 7665TIP3    H144486   6.094   2.112   1.000  1.1124 -0.7083 -0.6097
 7665TIP3    H244487   6.111   2.263   0.991 -0.8798 -0.4310 -0.1189
 7666TIP3   OH244488   3.307   0.419  12.179 -0.6015 -0.0161  0.1828
 7666TIP3    H144489   3.229   0.374  12.214 -2.0278  2.4038  0.3208
 7666TIP3    H244490   3.296   0.414  12.084 -1.5172  1.1995  0.2014
 7667TIP3   OH244491   6.527   0.295   0.933 -0.2022 -0.2746  0.4623
 7667TIP3    H144492   6.490   0.381   0.951  0.3439  0.1604 -0.4513
 7667TIP3    H244493   6.532   0.290   0.838  1.6138 -0.5056  0.5228
 7668TIP3   OH244494   4.335   4.758   6.126 -0.0211 -0.8746  0.0717
 7668TIP3    H144495   4.369   4.686   6.179  0.9207 -2.5464 -2.6412
 7668TIP3    H244496   4.356   4.734   6.036 -3.0649  0.9624 -1.2789
 7669TIP3   OH244497   4.125   2.790  13.034 -0.3379  0.1959 -0.0873
 7669TIP3    H144498   4.176   2.709  13.030 -0.1160  0.3527 -2.7691
 7669TIP3    H244499   4.042   2.768  12.993 -0.2926  1.2768 -0.8071
 7670TIP3   OH244500   5.755   2.966   4.054 -0.2276  0.6431 -0.1715
 7670TIP3    H144501   5.830   2.907   4.039 -0.3394  0.0169  1.5557
 7670TIP3    H244502   5.682   2.924   4.008 -0.0274  0.0609  0.0311
 7671TIP3   OH244503   2.466   6.567  14.472 -0.3266 -0.4253 -0.0617
 7671TIP3    H144504   2.385   6.515  14.466  0.8951 -2.4266 -0.2645
 7671TIP3    H244505   2.527   6.522  14.412  1.0320  0.8399  0.3259
 7672TIP3   OH244506   4.217   3.391  15.553  0.2391 -0.3302  0.2926
 7672TIP3    H144507   4.280   3.337  15.601 -1.6910 -2.7192  0.3817
 7672TIP3    H244508   4.199   3.340  15.474 -0.7614  0.8132 -0.2385
 7673TIP3   OH244509   1.734   3.026   1.995  0.1375 -0.0226 -0.2472
 7673TIP3    H144510   1.759   3.114   1.968  0.6705  0.2375  1.0004
 7673TIP3    H244511   1.815   2.975   1.990 -0.2646 -0.5876 -1.4227
 7674TIP3   OH244512   0.240   2.852  15.072  0.4404  0.1026 -1.0218
 7674TIP3    H144513   0.290   2.806  15.140  0.4247  2.8718  1.0251
 7674TIP3    H244514   0.219   2.784  15.008  2.4576 -2.1944  0.5634
 7675TIP3   OH244515   2.751   5.207  11.675 -0.0597 -1.0137  0.4445
 7675TIP3    H144516   2.713   5.120  11.685 -1.6015 -0.8000 -2.3688
 7675TIP3    H244517   2.685   5.266  11.711 -1.0673 -0.8445 -1.5076
 7676TIP3   OH244518   1.180   6.300  12.606 -0.4967 -0.3601  0.3385
 7676TIP3    H144519   1.257   6.288  12.550  0.3143 -0.7639  1.5046
 7676TIP3    H244520   1.137   6.378  12.570  0.4925 -0.0833 -0.2943
 7677TIP3   OH244521   4.444   4.631  13.997 -0.3102  0.1714 -0.1436
 7677TIP3    H144522   4.436   4.696  14.067  1.1330  0.9531 -0.6780
 7677TIP3    H244523   4.440   4.682  13.916  2.1702 -0.1889 -0.5695
 7678TIP3   OH244524   6.774   6.458  15.676 -0.4879  0.4665  0.3591
 7678TIP3    H144525   6.845   6.522  15.671  0.0281 -0.0204  1.1277
 7678TIP3    H244526   6.782   6.420  15.764  0.6126 -2.2130 -0.7898
 7679TIP3   OH244527   1.353   0.396   5.906  0.1253  0.3556 -0.2574
 7679TIP3    H144528   1.367   0.458   5.977  0.8280  0.6889 -0.6844
 7679TIP3    H244529   1.281   0.341   5.937 -0.4258  1.2972  0.1821
 7680TIP3   OH244530   1.473   5.437   2.681  0.6593  0.1549  0.4109
 7680TIP3    H144531   1.487   5.430   2.775 -0.4803 -2.8422  0.4724
 7680TIP3    H244532   1.556   5.410   2.642 -0.3902 -4.1825  0.7118
 7681TIP3   OH244533   4.598   0.373  16.875 -0.1143  0.0316 -0.1901
 7681TIP3    H144534   4.609   0.331  16.789 -1.3635  2.2341 -1.4969
 7681TIP3    H244535   4.667   0.334  16.929  0.8886 -1.2346 -2.2475
 7682TIP3   OH244536   0.574   5.344  15.653  0.7934  0.5503  0.2145
 7682TIP3    H144537   0.568   5.369  15.745  3.3281  1.0396  0.3159
 7682TIP3    H244538   0.607   5.423  15.609  0.0310  0.1917 -1.0463
 7683TIP3   OH244539   5.471   2.513  13.004 -0.3366  0.5193 -0.3587
 7683TIP3    H144540   5.497   2.473  13.087 -0.9823 -0.2838 -0.5238
 7683TIP3    H244541   5.522   2.466  12.938  1.2440  2.1177 -0.3355
 7684TIP3   OH244542   3.807   6.214   0.511 -0.4113  0.0495  0.2445
 7684TIP3    H144543   3.848   6.139   0.554 -0.6895  0.5650  1.4801
 7684TIP3    H244544   3.879   6.258   0.466 -0.1188 -0.5561  0.1091
 7685TIP3   OH244545   5.011   3.693   0.952  0.2076  0.2661  0.6541
 7685TIP3    H144546   5.097   3.710   0.914 -0.4737 -0.9592 -1.6004
 7685TIP3    H244547   4.952   3.753   0.906 -0.5593 -0.8763  0.1199
 7686TIP3   OH244548   4.322   0.241  14.211 -0.6470  0.3374 -0.1092
 7686TIP3    H144549   4.369   0.324  14.212 -0.0925  0.0652 -1.7463
 7686TIP3    H244550   4.350   0.197  14.131  1.1965 -2.6847  1.9649
 7687TIP3   OH244551   2.423   0.677   3.057  0.3120  0.4198 -0.2680
 7687TIP3    H144552   2.356   0.708   3.117 -1.9196 -0.8844 -1.9008
 7687TIP3    H244553   2.465   0.756   3.024 -1.1180  1.3520  0.0674
 7688TIP3   OH244554   1.741   2.582  15.970 -0.3418 -0.1765  0.3435
 7688TIP3    H144555   1.804   2.512  15.988 -0.9457 -0.3599  1.8954
 7688TIP3    H244556   1.679   2.578  16.043 -0.9238  1.3799 -0.0197
 7689TIP3   OH244557   0.422   4.262  15.550  0.3571  0.7483 -0.0322
 7689TIP3    H144558   0.451   4.178  15.586 -0.0176 -0.1983 -1.8283
 7689TIP3    H244559   0.503   4.304  15.521  0.5861  1.2196  1.2004
 7690TIP3   OH244560   1.030   6.615  11.019  0.2560 -0.2137 -0.0986
 7690TIP3    H144561   0.969   6.683  10.992 -0.7114 -0.9152  0.2583
 7690TIP3    H244562   1.042   6.561  10.940 -0.8141 -0.9616  0.2222
 7691TIP3   OH244563   6.041   0.406   4.228 -0.1051  0.2957  0.3901
 7691TIP3    H144564   6.057   0.411   4.133 -2.8413  1.6153 -0.1311
 7691TIP3    H244565   6.098   0.472   4.266  0.9510 -0.1761 -0.3117
 7692TIP3   OH244566   0.822   4.872   0.274  0.0165 -0.0382 -0.1675
 7692TIP3    H144567   0.831   4.823   0.192 -1.2260  0.6777 -0.7717
 7692TIP3    H244568   0.800   4.961   0.246  2.3021  0.9389  0.8962
 7693TIP3   OH244569   6.250   4.386   4.095  0.1373  0.5179  0.3264
 7693TIP3    H144570   6.312   4.458   4.083  0.2446  0.2270 -0.9447
 7693TIP3    H244571   6.297   4.308   4.068 -0.0903 -0.0128  1.3871
 7694TIP3   OH244572   5.772   3.351   0.300 -0.1456  0.8898  0.1376
 7694TIP3    H144573   5.839   3.409   0.262 -0.5302  1.0469 -0.3049
 7694TIP3    H244574   5.720   3.322   0.225 -0.0232  0.0447  0.3665
 7695TIP3   OH244575   1.670   5.678   3.531  0.3115 -0.3815  0.1800
 7695TIP3    H144576   1.599   5.712   3.477 -3.2785 -2.4272  3.1124
 7695TIP3    H244577   1.687   5.591   3.495  1.9345  0.3460 -0.9144
 7696TIP3   OH244578   2.206   4.404   0.529 -0.0447  0.5615 -0.1237
 7696TIP3    H144579   2.245   4.356   0.456 -1.9820  0.2467 -1.0325
 7696TIP3    H244580   2.214   4.496   0.505  0.0364  0.4920 -0.3630
 7697TIP3   OH244581   6.567   0.978   4.455 -0.3100 -0.2813 -0.3322
 7697TIP3    H144582   6.623   1.055   4.450 -1.7750  0.7733 -1.3280
 7697TIP3    H244583   6.480   1.010   4.428 -1.0372 -2.1963 -0.3874
 7698TIP3   OH244584   5.733   2.505  14.674 -0.2717 -0.1208 -0.4355
 7698TIP3    H144585   5.822   2.501  14.638 -0.2271 -1.2128 -0.2235
 7698TIP3    H244586   5.738   2.573  14.741  0.1496  0.5058 -1.0782
 7699TIP3   OH244587   5.661   2.236  13.255  0.6013 -0.1861  0.4752
 7699TIP3    H144588   5.618   2.319  13.275  1.7275  0.6064 -0.2248
 7699TIP3    H244589   5.629   2.213  13.168 -1.0578 -1.4388  1.3584
 7700TIP3   OH244590   0.481   4.443   5.542 -0.1221  0.3039  0.0303
 7700TIP3    H144591   0.514   4.499   5.472 -1.0838 -0.0140 -0.6927
 7700TIP3    H244592   0.542   4.458   5.615  0.9246  0.6073 -0.8724
 7701TIP3   OH244593   3.935   4.238   2.438 -0.4229  0.0932  0.1813
 7701TIP3    H144594   3.948   4.259   2.345 -0.7209 -0.0746  0.0997
 7701TIP3    H244595   3.994   4.165   2.454  0.1534  0.5746  0.3067
 7702TIP3   OH244596   2.862   0.843  16.713  1.0978 -0.0484  0.3401
 7702TIP3    H144597   2.781   0.815  16.672  1.3541  0.0725 -0.2522
 7702TIP3    H244598   2.877   0.780  16.783  1.0049 -0.6420 -0.1689
 7703TIP3   OH244599   3.862   0.520  12.140 -0.6569  0.2059 -0.4422
 7703TIP3    H144600   3.897   0.576  12.071  1.0753  1.4029  1.2763
 7703TIP3    H244601   3.928   0.452  12.151 -0.8456  0.1014  0.0966
 7704TIP3   OH244602   3.648   3.293   4.181  0.4594 -0.7919 -0.2415
 7704TIP3    H144603   3.590   3.335   4.117 -0.5401 -1.6635  0.0439
 7704TIP3    H244604   3.589   3.240   4.235  1.4462 -1.1028  0.5697
 7705TIP3   OH244605   4.433   5.396   5.638  0.0080  0.1826 -0.2002
 7705TIP3    H144606   4.490   5.451   5.692  0.9875 -0.0321 -0.9773
 7705TIP3    H244607   4.363   5.454   5.610  0.7259  0.8921 -0.5526
 7706TIP3   OH244608   2.732   4.277  11.197  0.0850  0.0414 -0.0841
 7706TIP3    H144609   2.757   4.240  11.282  1.5604  2.8743  0.8425
 7706TIP3    H244610   2.710   4.368  11.216 -0.7663  0.4272 -2.5794
 7707TIP3   OH244611   5.727   2.356  16.938  0.0763 -0.3962  1.0209
 7707TIP3    H144612   5.673   2.394  16.868  2.3101 -0.4537 -0.8439
 7707TIP3    H244613   5.694   2.396  17.018 -2.5126 -0.2092 -0.0387
 7708TIP3   OH244614   0.273   1.088   5.343 -0.4140  0.2292  1.0709
 7708TIP3    H144615   0.198   1.039   5.377 -0.2487 -1.3974 -0.7605
 7708TIP3    H244616   0.348   1.030   5.356  0.0812  0.7153  0.4498
 7709TIP3   OH244617   4.664   0.065  16.125 -0.2678  0.3960 -0.0534
 7709TIP3    H144618   4.627  -0.021  16.142  1.5765  0.0318  2.7437
 7709TIP3    H244619   4.726   0.051  16.053 -0.2879 -0.5135  0.0990
 7710TIP3   OH244620   2.461   0.924  15.951 -0.2819  0.3719 -0.2173
 7710TIP3    H144621   2.522   0.861  15.913 -0.9008 -0.3720  0.0120
 7710TIP3    H244622   2.412   0.958  15.876 -1.1837 -0.7563 -0.1689
 7711TIP3   OH244623   2.162   2.048   6.255 -0.3494  0.3312 -0.2610
 7711TIP3    H144624   2.145   2.142   6.241 -1.4142  0.2705  0.5060
 7711TIP3    H244625   2.075   2.008   6.251  0.0032 -0.5014  0.3196
 7712TIP3   OH244626   1.054   2.850   1.513  0.4490  0.0892  0.3174
 7712TIP3    H144627   1.056   2.937   1.552 -1.8359  1.7689 -2.8784
 7712TIP3    H244628   1.111   2.857   1.436 -1.0838 -0.6482 -0.9402
 7713TIP3   OH244629   1.925   4.465  16.159 -0.0338  0.5577 -0.2359
 7713TIP3    H144630   1.838   4.474  16.197 -0.8194  0.7971 -1.9857
 7713TIP3    H244631   1.984   4.496  16.227 -1.3522  1.0633  0.7329
 7714TIP3   OH244632   1.076   6.602  12.558 -0.4377 -0.5434 -0.1450
 7714TIP3    H144633   1.166   6.601  12.525 -0.0715 -2.1355  0.8310
 7714TIP3    H244634   1.024   6.565  12.487 -0.5216  1.2868 -1.1072
 7715TIP3   OH244635   5.393   4.862  15.539 -0.3448  0.0381 -0.1155
 7715TIP3    H144636   5.444   4.837  15.462  0.7616  2.6419 -0.2972
 7715TIP3    H244637   5.357   4.948  15.518 -2.1332 -0.2896  1.3294
 7716TIP3   OH244638   5.924   0.070  13.699 -0.0523 -0.0510  0.2070
 7716TIP3    H144639   5.877   0.002  13.651 -1.4156  0.9130  0.1212
 7716TIP3    H244640   5.980   0.023  13.760 -0.3140 -1.2493 -0.4596
 7717TIP3   OH244641   3.960   0.860  11.584 -0.3072 -0.3277 -0.5141
 7717TIP3    H144642   3.947   0.772  11.619 -0.9522 -0.7014 -1.6409
 7717TIP3    H244643   3.987   0.846  11.493 -1.6985  0.6481 -1.1040
 7718TIP3   OH244644   4.546   1.902  11.472  0.1356  0.2406  0.0718
 7718TIP3    H144645   4.541   1.904  11.376  2.3877  0.4382 -0.0981
 7718TIP3    H244646   4.534   1.993  11.498  0.2981  0.3089 -0.0857
 7719TIP3   OH244647   2.688   0.238  12.335 -0.0504 -0.0933  0.0649
 7719TIP3    H144648   2.600   0.270  12.357  1.5129  3.7226  1.7578
 7719TIP3    H244649   2.686   0.145  12.354 -3.1316  0.2616  2.1736
 7720TIP3   OH244650   0.861   4.714  11.169  0.1934 -0.2584 -0.5179
 7720TIP3    H144651   0.917   4.790  11.190  0.5402 -1.0732  1.9220
 7720TIP3    H244652   0.889   4.687  11.082  1.1562  1.4670 -0.8014
 7721TIP3   OH244653   4.567   1.921   0.710 -0.2222  0.1884  0.3538
 7721TIP3    H144654   4.618   1.959   0.782 -1.3421  1.8344  0.3432
 7721TIP3    H244655   4.500   1.987   0.691 -0.9749 -0.9359 -1.1061
 7722TIP3   OH244656   3.687   0.610   4.249 -0.0441 -0.1503  0.4081
 7722TIP3    H144657   3.617   0.590   4.311 -0.0477  1.9539  1.1326
 7722TIP3    H244658   3.663   0.694   4.211  0.4955 -0.8824 -1.7140
 7723TIP3   OH244659   4.171   4.348   0.921 -0.2950  0.1106 -0.4249
 7723TIP3    H144660   4.101   4.357   0.857  0.5933  1.4577 -1.2536
 7723TIP3    H244661   4.251   4.347   0.868  0.4237  0.6614  0.6297
 7724TIP3   OH244662   1.317   3.780  16.256 -0.2463 -0.2827  0.1529
 7724TIP3    H144663   1.336   3.835  16.332 -0.1104  1.2383 -0.9313
 7724TIP3    H244664   1.350   3.693  16.280  2.5638  0.8482  0.6777
 7725TIP3   OH244665   4.168   6.186  11.975 -1.0602  0.0764  0.2788
 7725TIP3    H144666   4.084   6.232  11.971  0.2655  2.7144  0.4145
 7725TIP3    H244667   4.228   6.242  11.926  0.4221 -2.3018 -0.7577
 7726TIP3   OH244668   5.994   2.091   3.447 -0.6035  0.2326 -0.0672
 7726TIP3    H144669   5.977   1.997   3.443  1.1192 -0.1036 -0.2756
 7726TIP3    H244670   5.945   2.121   3.523 -1.4350 -0.7575 -0.1876
 7727TIP3   OH244671   0.358   1.541  10.726 -0.2699  0.3533 -0.0885
 7727TIP3    H144672   0.323   1.617  10.771 -0.7787  0.8128 -1.2175
 7727TIP3    H244673   0.322   1.547  10.637 -0.5508 -1.3510 -0.1288
 7728TIP3   OH244674   6.358   4.771  11.760  0.1548  0.0844 -0.5268
 7728TIP3    H144675   6.424   4.702  11.770 -2.0799 -2.2654 -0.8556
 7728TIP3    H244676   6.408   4.849  11.735  2.9536 -1.0534  0.9917
 7729TIP3   OH244677   5.315   1.758  16.356  0.0556 -0.4475 -0.1957
 7729TIP3    H144678   5.228   1.788  16.379  0.3577 -0.0328  0.4548
 7729TIP3    H244679   5.313   1.663  16.373 -0.3585 -0.4914 -0.4921
 7730TIP3   OH244680   3.205   2.049   5.963 -0.3739  0.3160  0.7026
 7730TIP3    H144681   3.123   2.062   6.011 -0.6449  0.4273  0.2101
 7730TIP3    H244682   3.267   2.017   6.030 -1.4663 -2.2247  0.5890
 7731TIP3   OH244683   2.890   4.110  16.848 -0.3072  0.2768 -0.2971
 7731TIP3    H144684   2.879   4.085  16.756 -0.4832 -1.9101  0.2447
 7731TIP3    H244685   2.980   4.143  16.853 -0.4954  1.0050 -1.3468
 7732TIP3   OH244686   4.556   5.143   3.903 -0.3199  0.2982  0.0015
 7732TIP3    H144687   4.639   5.187   3.923 -0.7350  1.4655 -0.7289
 7732TIP3    H244688   4.523   5.188   3.825 -0.3705 -1.8560 -1.3238
 7733TIP3   OH244689   0.184   6.149   0.321 -0.0048 -0.2457  0.5713
 7733TIP3    H144690   0.118   6.092   0.360 -1.7031  0.3053 -1.3290
 7733TIP3    H244691   0.157   6.238   0.343  2.1827 -0.0246  2.8214
 7734TIP3   OH244692   5.727   5.498  11.929  0.0871  0.1964 -0.1240
 7734TIP3    H144693   5.739   5.419  11.983 -1.6785  0.3365  0.5451
 7734TIP3    H244694   5.675   5.556  11.984  3.0399  2.7472  0.2275
 7735TIP3   OH244695   3.058   0.869   0.753 -0.7828 -0.0119  0.1400
 7735TIP3    H144696   3.097   0.790   0.791 -1.8844 -0.6887 -0.0916
 7735TIP3    H244697   3.082   0.939   0.813  0.5721 -0.4347  0.1280
 7736TIP3   OH244698   4.461   4.789   2.505 -0.1481 -0.2877  0.1409
 7736TIP3    H144699   4.475   4.748   2.591  0.2604  0.7199  0.5721
 7736TIP3    H244700   4.478   4.882   2.520  0.3409 -0.1513 -1.1271
 7737TIP3   OH244701   6.251   1.624  15.133  0.1247  0.3393  0.0218
 7737TIP3    H144702   6.168   1.593  15.095  0.1294  1.3125 -0.8196
 7737TIP3    H244703   6.224   1.687  15.200  0.1591 -0.3602  0.7087
 7738TIP3   OH244704   0.396   2.603  16.223  0.3594 -0.3402  0.2907
 7738TIP3    H144705   0.357   2.686  16.195  1.6767  0.2882  0.2937
 7738TIP3    H244706   0.356   2.586  16.308 -1.4440 -0.7653 -0.5794
 7739TIP3   OH244707   6.310   6.451   1.630 -0.1556 -0.0154 -0.2736
 7739TIP3    H144708   6.401   6.454   1.659 -0.5287  2.4294  0.9336
 7739TIP3    H244709   6.296   6.360   1.601  2.1468 -0.8872  1.1316
 7740TIP3   OH244710   4.429   1.585  15.659  0.0754  0.1205 -0.3467
 7740TIP3    H144711   4.496   1.633  15.708 -1.2644  2.5347 -0.6712
 7740TIP3    H244712   4.394   1.522  15.722 -0.3261  1.8599  1.3010
 7741TIP3   OH244713   1.942   5.230  15.469 -0.1869  0.0736  0.4309
 7741TIP3    H144714   1.867   5.171  15.465 -0.0609 -0.0252 -1.9215
 7741TIP3    H244715   1.931   5.278  15.552 -1.2361 -1.9615  1.5395
 7742TIP3   OH244716   2.871   2.094   4.257 -0.0552  0.2196  0.5289
 7742TIP3    H144717   2.945   2.049   4.215 -0.8913 -1.1440  0.4605
 7742TIP3    H244718   2.884   2.080   4.350  0.4906  1.1564  0.6040
 7743TIP3   OH244719   2.805   3.165  14.885  0.4369  0.2065 -0.0919
 7743TIP3    H144720   2.874   3.202  14.941  1.2277 -0.6849 -0.4524
 7743TIP3    H244721   2.814   3.211  14.802  0.7001 -0.0151 -0.1868
 7744TIP3   OH244722   2.530   0.835  13.999 -0.7185 -0.1613  0.3930
 7744TIP3    H144723   2.505   0.927  13.991  0.4591  0.0884 -0.8613
 7744TIP3    H244724   2.498   0.793  13.919  1.7185 -0.0570 -0.7251
 7745TIP3   OH244725   0.577   1.333   2.680  0.3510 -0.1793 -0.0949
 7745TIP3    H144726   0.567   1.271   2.607 -1.3358 -1.4262  1.1321
 7745TIP3    H244727   0.567   1.419   2.639 -0.7993 -0.8547 -1.3146
 7746TIP3   OH244728   2.886   5.869  16.596  0.3255 -0.5479 -0.2463
 7746TIP3    H144729   2.922   5.947  16.554  0.4041 -0.2428  0.3709
 7746TIP3    H244730   2.918   5.874  16.687 -1.7340  0.0542  0.5000
 7747TIP3   OH244731   3.694   5.692   0.783  0.1794  0.4531  0.1290
 7747TIP3    H144732   3.662   5.696   0.873  0.1945  3.0693  0.1058
 7747TIP3    H244733   3.748   5.613   0.780  0.6298  0.5767  2.5882
 7748TIP3   OH244734   1.862   2.586   3.196  0.0509 -0.2971 -0.2620
 7748TIP3    H144735   1.905   2.669   3.174  0.3074 -0.1598  0.7106
 7748TIP3    H244736   1.908   2.521   3.143  0.0206  0.1446 -0.8371
 7749TIP3   OH244737   1.753   6.384   5.901 -0.7305 -0.4931 -0.5625
 7749TIP3    H144738   1.716   6.312   5.952 -0.9485 -0.6142 -0.8842
 7749TIP3    H244739   1.711   6.377   5.815  0.5943 -1.1087 -1.1990
 7750TIP3   OH244740   2.341   1.254   2.875 -0.2150 -0.7411 -0.2772
 7750TIP3    H144741   2.384   1.322   2.823  0.6817 -0.4876  0.7573
 7750TIP3    H244742   2.371   1.269   2.964 -1.7702 -1.1347  0.3407
 7751TIP3   OH244743   6.714   0.608  11.853 -0.3860  0.4305 -0.2483
 7751TIP3    H144744   6.679   0.618  11.764  1.4107  0.2431 -1.0135
 7751TIP3    H244745   6.649   0.651  11.909 -1.2921  1.0393 -1.7061
 7752TIP3   OH244746   0.232   0.230   1.394  0.6617 -0.1238 -0.0745
 7752TIP3    H144747   0.217   0.177   1.472  0.9564  1.7172  1.3047
 7752TIP3    H244748   0.324   0.213   1.371  0.2517 -1.5402 -0.7419
 7753TIP3   OH244749   3.952   0.823  14.427 -0.4031 -0.3178 -0.1272
 7753TIP3    H144750   4.034   0.844  14.383 -0.2034  1.4346  0.9867
 7753TIP3    H244751   3.972   0.746  14.481  0.8589  0.7519  0.9869
 7754TIP3   OH244752   2.785   1.909  14.317 -0.0385  0.3896 -0.7012
 7754TIP3    H144753   2.831   1.990  14.298 -0.7086  1.3050  1.3621
 7754TIP3    H244754   2.836   1.842  14.271  1.4713  1.7485 -1.1115
 7755TIP3   OH244755   2.772   6.168  15.319 -0.2805  0.5472 -0.2648
 7755TIP3    H144756   2.744   6.259  15.312 -0.1223  0.8004  1.6458
 7755TIP3    H244757   2.867   6.172  15.326 -0.2552  0.2220 -0.4154
 7756TIP3   OH244758   5.626   6.368   1.319 -0.5873 -0.3230 -0.1308
 7756TIP3    H144759   5.544   6.339   1.280 -1.1450  2.7546 -1.5274
 7756TIP3    H244760   5.603   6.392   1.409 -0.9640 -0.5621 -0.1633
 7757TIP3   OH244761   0.787   6.327  12.693  0.1607 -0.2824  0.2477
 7757TIP3    H144762   0.801   6.237  12.661  0.2504 -0.5785  1.0844
 7757TIP3    H244763   0.856   6.340  12.757 -1.8577 -0.8935  2.7076
 7758TIP3   OH244764   3.452   0.718   5.460  0.3078  0.2821 -0.2852
 7758TIP3    H144765   3.387   0.788   5.446  0.9911  0.7796 -1.0528
 7758TIP3    H244766   3.511   0.725   5.385  1.3521 -0.0569  0.4917
 7759TIP3   OH244767   6.134   1.493   1.246 -0.0560  0.0532  0.3381
 7759TIP3    H144768   6.179   1.575   1.267  0.9712 -0.0732 -1.2522
 7759TIP3    H244769   6.200   1.440   1.202 -1.1752 -1.0053 -0.1107
 7760TIP3   OH244770   2.442   6.450  12.156  0.0768  0.0838 -0.1108
 7760TIP3    H144771   2.395   6.367  12.141  0.0253 -0.5043  2.7225
 7760TIP3    H244772   2.381   6.502  12.208  0.9618  0.9987  0.0243
 7761TIP3   OH244773   1.603   3.545  16.706 -0.0032  0.2525 -0.2320
 7761TIP3    H144774   1.570   3.622  16.660  0.7327  0.6462 -0.1332
 7761TIP3    H244775   1.525   3.497  16.732 -0.5556  1.7990  1.1297
 7762TIP3   OH244776   0.903   2.401   3.818  0.4238 -0.6932  0.6003
 7762TIP3    H144777   0.989   2.429   3.849  1.3051 -0.4579 -1.8546
 7762TIP3    H244778   0.895   2.439   3.730 -1.8540 -1.3812  0.4333
 7763TIP3   OH244779   6.531   2.035   5.052 -0.3642 -0.4618  0.5216
 7763TIP3    H144780   6.610   2.011   5.100 -1.4979 -1.6004  1.9449
 7763TIP3    H244781   6.492   2.105   5.104  0.2857  0.9558 -0.8314
 7764TIP3   OH244782   3.194   0.250  14.989 -0.2128 -0.0374 -0.1000
 7764TIP3    H144783   3.185   0.253  14.894 -1.4572 -0.4633 -0.0228
 7764TIP3    H244784   3.264   0.187  15.004 -1.6453 -1.8743 -0.7173
 7765TIP3   OH244785   5.544   2.855   1.043 -0.0193 -0.4259  0.4525
 7765TIP3    H144786   5.517   2.885   1.130  0.7420 -1.4221  1.0610
 7765TIP3    H244787   5.639   2.843   1.050  0.0035 -0.8877 -0.3963
 7766TIP3   OH244788   6.567   1.938  11.999  0.2225  0.0193 -0.3200
 7766TIP3    H144789   6.517   1.984  11.932  1.3727  0.0551 -1.1792
 7766TIP3    H244790   6.625   2.004  12.036 -0.2527 -0.0518  0.5751
 7767TIP3   OH244791   6.087   4.368  13.730 -0.0466 -1.1277  0.4877
 7767TIP3    H144792   6.145   4.325  13.667  0.2927  0.7560 -0.5482
 7767TIP3    H244793   6.033   4.427  13.678 -3.3316 -3.1272  1.3564
 7768TIP3   OH244794   3.600   4.949  12.443 -0.4618 -0.1723 -0.2528
 7768TIP3    H144795   3.535   4.953  12.513  0.2775  1.6898  0.3829
 7768TIP3    H244796   3.548   4.954  12.363 -1.1173  2.4225  0.2513
 7769TIP3   OH244797   2.659   2.514   3.889  0.3386 -0.6869 -0.1498
 7769TIP3    H144798   2.692   2.566   3.963  1.8933 -1.5823 -0.1531
 7769TIP3    H244799   2.565   2.507   3.904  0.7466 -1.9913  2.5595
 7770TIP3   OH244800   3.808   4.694   6.081 -0.0483 -1.2243  0.2747
 7770TIP3    H144801   3.825   4.642   6.160 -1.2776 -1.1438  0.6039
 7770TIP3    H244802   3.801   4.629   6.011  1.2287 -1.2840  0.1810
 7771TIP3   OH244803   5.177   5.891  16.023  0.6944 -0.8527  0.1519
 7771TIP3    H144804   5.125   5.959  15.980  1.7727 -0.8236 -1.1933
 7771TIP3    H244805   5.242   5.939  16.075  0.2752 -0.8783  0.7046
 7772TIP3   OH244806   1.609   1.666   0.764  0.1664  0.0984 -0.1728
 7772TIP3    H144807   1.515   1.649   0.760  0.4076 -1.7374  1.0592
 7772TIP3    H244808   1.640   1.656   0.674 -0.9325  1.7429 -0.7821
 7773TIP3   OH244809   0.507   6.337  14.263 -0.3592  0.3228  0.7804
 7773TIP3    H144810   0.475   6.402  14.326 -0.1780 -0.0787  1.2855
 7773TIP3    H244811   0.602   6.336  14.275 -0.3124  0.3118  0.4286
 7774TIP3   OH244812   5.627   0.334  14.784 -0.0811  0.0867  0.2422
 7774TIP3    H144813   5.722   0.341  14.779 -0.2355  3.5638 -0.4285
 7774TIP3    H244814   5.610   0.274  14.856  2.6084 -0.0885  0.8052
 7775TIP3   OH244815   5.069   4.038   0.792  0.1515 -0.4500  0.0550
 7775TIP3    H144816   5.055   4.091   0.714 -1.5398 -0.3822  0.3658
 7775TIP3    H244817   5.092   4.100   0.861 -2.4268  0.0464  0.5695
 7776TIP3   OH244818   3.634   4.903   3.361 -0.2939  0.3339 -0.0639
 7776TIP3    H144819   3.702   4.868   3.305 -1.5983 -2.5421 -0.0330
 7776TIP3    H244820   3.664   4.885   3.450 -0.8430 -0.5617 -0.0417
 7777TIP3   OH244821   0.569   5.985  12.175 -0.8840  0.5932  0.3369
 7777TIP3    H144822   0.560   6.062  12.119 -0.2241 -0.4575 -1.3055
 7777TIP3    H244823   0.653   5.947  12.149 -0.2184  0.4333  2.5750
 7778TIP3   OH244824   3.755   2.442  12.370  0.0111  0.2422 -0.0977
 7778TIP3    H144825   3.815   2.435  12.444  1.9322  0.0672 -1.5933
 7778TIP3    H244826   3.747   2.353  12.336  0.1823  0.5079 -0.8573
 7779TIP3   OH244827   1.750   6.662  15.344 -0.1139  0.4450  0.0064
 7779TIP3    H144828   1.809   6.638  15.415  1.5469 -1.4265 -1.8564
 7779TIP3    H244829   1.770   6.754  15.326  1.2004  0.2592  0.3961
 7780TIP3   OH244830   1.753   6.644  13.363  0.2421  0.2453 -0.2549
 7780TIP3    H144831   1.673   6.593  13.376  0.4338 -0.0003 -0.0239
 7780TIP3    H244832   1.747   6.677  13.274 -1.6316  2.8341  0.7208
 7781TIP3   OH244833   0.046   1.103  12.758 -0.0941  0.2168  0.3760
 7781TIP3    H144834  -0.039   1.086  12.800  0.5077  0.1436  1.6093
 7781TIP3    H244835   0.042   1.196  12.735 -1.1952 -0.1786 -1.2635
 7782TIP3   OH244836   5.481   2.168   3.833  0.1589 -0.0724  0.4280
 7782TIP3    H144837   5.428   2.153   3.912 -0.5283  1.0687  0.2064
 7782TIP3    H244838   5.536   2.243   3.856  2.4026 -1.7698  0.9822
 7783TIP3   OH244839   1.715   4.863  13.169 -0.2218 -0.4030 -0.3551
 7783TIP3    H144840   1.805   4.861  13.135 -0.1248 -2.0710 -0.0830
 7783TIP3    H244841   1.696   4.956  13.180  1.1714  0.0166 -1.2044
 7784TIP3   OH244842   0.912   5.676   4.393  0.2217  0.5464 -0.1013
 7784TIP3    H144843   0.834   5.659   4.445 -0.1435 -0.1653 -0.8742
 7784TIP3    H244844   0.890   5.648   4.305  0.8235  1.7817 -0.6696
 7785TIP3   OH244845   6.333   1.990   0.523 -0.5547  0.3643 -0.0132
 7785TIP3    H144846   6.276   2.036   0.462 -0.8328 -0.3556 -0.2984
 7785TIP3    H244847   6.274   1.946   0.583 -0.2992 -0.1955 -0.1684
 7786TIP3   OH244848   3.536   3.615   4.860 -0.4100 -1.1011 -0.1315
 7786TIP3    H144849   3.506   3.702   4.831 -2.0820 -2.1986 -1.8942
 7786TIP3    H244850   3.615   3.599   4.808 -0.6565 -1.0297 -0.5356
 7787TIP3   OH244851   2.806   3.192  15.420 -0.3696  0.7775  0.0017
 7787TIP3    H144852   2.816   3.107  15.463 -0.5666  0.7790  0.0507
 7787TIP3    H244853   2.712   3.205  15.414 -0.3482  0.6187 -0.7519
 7788TIP3   OH244854   2.652   5.161   4.185 -0.1056  0.0929 -0.7084
 7788TIP3    H144855   2.695   5.089   4.230 -1.3211  0.5150  1.2223
 7788TIP3    H244856   2.613   5.120   4.108  1.6334 -0.7250 -1.2117
 7789TIP3   OH244857   0.566   0.704   4.493 -0.3013 -0.7278  0.4193
 7789TIP3    H144858   0.600   0.780   4.540 -2.1919  0.0185  0.6902
 7789TIP3    H244859   0.600   0.713   4.404  1.7218 -1.1022  1.1059
 7790TIP3   OH244860   1.323   4.546   4.298 -0.6548  1.4284  0.2147
 7790TIP3    H144861   1.282   4.550   4.384 -2.4076 -0.9097 -0.4034
 7790TIP3    H244862   1.371   4.463   4.298  0.6662  2.1476 -0.5551
 7791TIP3   OH244863   0.993   2.506   5.396  0.2902 -0.0247 -0.4548
 7791TIP3    H144864   0.980   2.569   5.325  1.0202  1.7611  0.9125
 7791TIP3    H244865   1.044   2.554   5.461 -1.5828 -1.1076  1.9523
 7792TIP3   OH244866   5.668   0.336   0.642 -0.0498 -0.8095 -0.2117
 7792TIP3    H144867   5.718   0.411   0.674 -1.0859 -0.5528  0.8921
 7792TIP3    H244868   5.723   0.260   0.664  0.6227 -0.4376 -0.5709
 7793TIP3   OH244869   3.316   1.109   0.197 -0.3920  0.4927 -0.0412
 7793TIP3    H144870   3.313   1.131   0.290  0.5570  1.7663 -0.2791
 7793TIP3    H244871   3.226   1.088   0.174 -0.7089  0.5681  1.0717
 7794TIP3   OH244872   1.612   3.508  12.946  0.4402 -0.2716 -0.5186
 7794TIP3    H144873   1.627   3.477  13.035 -5.5256  0.4960  1.2035
 7794TIP3    H244874   1.552   3.444  12.908  0.6326  0.8664 -2.9763
 7795TIP3   OH244875   2.852   0.458   6.715  0.1790 -0.1903  0.3310
 7795TIP3    H144876   2.945   0.462   6.693  0.2137  0.2546  0.5489
 7795TIP3    H244877   2.811   0.424   6.636  0.4817 -0.0251  0.0970
 7796TIP3   OH244878   2.541   1.172   0.130 -0.3370 -0.5970  0.2894
 7796TIP3    H144879   2.599   1.116   0.077  1.5080  3.3730 -2.3733
 7796TIP3    H244880   2.475   1.203   0.068  0.1895  1.9984  0.9353
 7797TIP3   OH244881   6.001   0.375   0.602 -0.3259  0.1987 -0.0099
 7797TIP3    H144882   5.981   0.329   0.521  0.1006  0.6542 -0.3796
 7797TIP3    H244883   6.068   0.439   0.578  2.9606 -2.3600  1.4639
 7798TIP3   OH244884   0.224   3.746  16.309 -0.2637  0.1429  0.1331
 7798TIP3    H144885   0.200   3.816  16.247  1.1678 -0.3231 -1.0022
 7798TIP3    H244886   0.291   3.785  16.365 -0.1525 -0.0350  0.1250
 7799TIP3   OH244887   3.480   3.834   4.339  0.1063  0.7614  0.8302
 7799TIP3    H144888   3.434   3.838   4.423 -1.2120  0.5982  0.1385
 7799TIP3    H244889   3.494   3.741   4.323  0.2494  0.7865  0.8027
 7800TIP3   OH244890   3.137   0.844   3.750  0.1400 -0.0438  0.0327
 7800TIP3    H144891   3.116   0.927   3.794 -2.3005 -1.3113  1.4924
 7800TIP3    H244892   3.142   0.780   3.821  0.7693 -1.3758 -1.1572
 7801TIP3   OH244893   1.660   6.161   3.861  0.0132 -0.3496  0.2941
 7801TIP3    H144894   1.640   6.209   3.781  0.9888 -1.5169 -0.6727
 7801TIP3    H244895   1.637   6.070   3.842  0.9651 -0.7705  1.0836
 7802TIP3   OH244896   3.084   0.415   1.778  0.0620  0.1122 -0.2641
 7802TIP3    H144897   3.083   0.320   1.763 -1.2274 -0.2174  1.5358
 7802TIP3    H244898   3.034   0.452   1.706 -1.1566 -0.8051  0.0880
 7803TIP3   OH244899   2.105   1.535  13.216 -0.5975  0.2489 -0.2688
 7803TIP3    H144900   2.190   1.576  13.204 -0.7365  0.8549  0.7252
 7803TIP3    H244901   2.081   1.555  13.306 -0.4062 -2.5250  0.5012
 7804TIP3   OH244902   1.786   2.450   0.712  0.2536 -0.2212 -0.0651
 7804TIP3    H144903   1.851   2.422   0.648 -2.1790  0.2369 -2.9565
 7804TIP3    H244904   1.731   2.374   0.726  0.9004 -0.3940  1.7841
 7805TIP3   OH244905   2.474   5.227   1.872 -0.5149 -0.0645 -0.2988
 7805TIP3    H144906   2.393   5.179   1.852 -0.0702 -1.5744  1.2407
 7805TIP3    H244907   2.465   5.310   1.825 -2.5011 -0.6027 -0.9750
 7806TIP3   OH244908   5.063   6.461  14.210  0.4055 -0.5975  0.6804
 7806TIP3    H144909   5.087   6.456  14.303 -0.6990 -0.5457  0.9872
 7806TIP3    H244910   4.975   6.422  14.206 -0.5143  1.4252  0.0380
 7807TIP3   OH244911   3.152   3.293   5.180  0.4128  0.0181 -0.0766
 7807TIP3    H144912   3.065   3.284   5.218  0.7472  1.4032  1.1218
 7807TIP3    H244913   3.207   3.234   5.232  0.2297 -0.7351 -0.7280
 7808TIP3   OH244914   5.602   0.553  14.063  0.5713  0.0343 -0.5163
 7808TIP3    H144915   5.569   0.485  14.123 -1.9777  1.5400 -0.0426
 7808TIP3    H244916   5.692   0.528  14.046  0.8484 -1.5167  2.4729
 7809TIP3   OH244917   0.758   2.943   1.846 -0.1851 -0.4819 -0.7179
 7809TIP3    H144918   0.841   2.989   1.840 -0.7710  0.6050 -0.8091
 7809TIP3    H244919   0.692   3.012   1.851 -1.3002 -1.2391 -3.0572
 7810TIP3   OH244920   5.787   3.665  12.496  0.5694 -0.3011  0.6706
 7810TIP3    H144921   5.849   3.592  12.487  1.3531  0.5420 -1.4716
 7810TIP3    H244922   5.721   3.649  12.429  0.6092  0.8013  0.3507
 7811TIP3   OH244923   2.049   2.000   1.113 -0.3472 -0.2275 -0.2354
 7811TIP3    H144924   1.972   2.050   1.084  0.6628  1.8193  0.4308
 7811TIP3    H244925   2.024   1.966   1.199 -1.2253 -1.3618 -0.9078
 7812TIP3   OH244926   0.110   0.566  12.842 -0.4830 -0.1348 -0.3473
 7812TIP3    H144927   0.089   0.631  12.908  1.2313  0.1263  0.0054
 7812TIP3    H244928   0.169   0.611  12.781 -0.6230 -0.8782 -1.0569
 7813TIP3   OH244929   3.040   2.877   0.588  0.2167 -0.3511 -0.1877
 7813TIP3    H144930   3.059   2.821   0.513 -1.4638  1.6948 -2.2990
 7813TIP3    H244931   2.950   2.906   0.574 -0.2223  0.0418  2.7424
 7814TIP3   OH244932   0.630   5.541   2.125 -0.2601 -0.0787 -0.0695
 7814TIP3    H144933   0.711   5.546   2.176  1.0597  0.5334 -2.1181
 7814TIP3    H244934   0.581   5.469   2.164  0.8495  0.1097  1.7790
 7815TIP3   OH244935   4.606   6.446  16.725 -0.3798  0.0732  0.9890
 7815TIP3    H144936   4.556   6.527  16.731 -2.3962 -1.1176  1.3088
 7815TIP3    H244937   4.592   6.416  16.635  1.3291  0.6142  0.4976
 7816TIP3   OH244938   4.011   2.630   0.941  0.2025 -0.2586 -0.0116
 7816TIP3    H144939   3.946   2.676   0.888 -1.3410 -0.4041  1.6573
 7816TIP3    H244940   4.090   2.684   0.935 -0.6483  0.9642 -0.5681
 7817TIP3   OH244941   3.998   1.063   0.352 -0.1081 -0.3465 -0.2807
 7817TIP3    H144942   3.924   1.071   0.413 -0.5154 -1.0957 -0.6689
 7817TIP3    H244943   4.075   1.066   0.409 -0.3888  1.2890  0.0519
 7818TIP3   OH244944   4.695   4.309  13.748 -0.0982  0.1269  0.3669
 7818TIP3    H144945   4.655   4.228  13.780 -1.5571  0.9080  0.6036
 7818TIP3    H244946   4.668   4.375  13.812 -1.6114  1.3952 -1.4932
 7819TIP3   OH244947   1.486   5.984  12.414  0.7421 -0.6914 -0.6062
 7819TIP3    H144948   1.444   6.068  12.398 -0.2516 -1.2553 -1.1000
 7819TIP3    H244949   1.557   5.979  12.350  0.3694 -0.5162 -1.0332
 7820TIP3   OH244950   5.744   4.928  16.516 -0.0724  0.1410 -0.1511
 7820TIP3    H144951   5.686   4.853  16.530  1.0792 -0.5724  1.1467
 7820TIP3    H244952   5.691   4.992  16.469 -1.6620 -0.7640  0.3423
 7821TIP3   OH244953   2.667   4.098   4.601  0.2121 -0.2535 -0.0422
 7821TIP3    H144954   2.572   4.103   4.596  0.0084 -1.1229  2.0162
 7821TIP3    H244955   2.686   4.008   4.625  1.3395  0.5099  2.2863
 7822TIP3   OH244956   0.911   1.455   5.903 -0.7116 -0.0918 -0.7498
 7822TIP3    H144957   0.852   1.490   5.970  2.2892  0.7693  1.6180
 7822TIP3    H244958   0.921   1.528   5.841 -0.2006  0.6591  0.1944
 7823TIP3   OH244959   4.418   4.718  13.562 -0.5514  0.2722 -0.0359
 7823TIP3    H144960   4.389   4.696  13.474  0.0084 -1.2489  0.1212
 7823TIP3    H244961   4.494   4.663  13.577  1.2052  2.6471  0.3324
 7824TIP3   OH244962   1.825   0.840  16.002 -0.1263 -0.0515 -0.5459
 7824TIP3    H144963   1.860   0.850  16.091  1.1909 -0.3319 -1.0229
 7824TIP3    H244964   1.730   0.847  16.014 -0.1003 -1.6686  1.1166
 7825TIP3   OH244965   4.876   4.983  11.749 -0.1906  0.0836 -0.3035
 7825TIP3    H144966   4.808   5.030  11.701  2.2931  3.4195 -0.8914
 7825TIP3    H244967   4.954   4.991  11.695  1.1366 -2.1255  1.1229
 7826TIP3   OH244968   1.470   3.402   0.134 -0.2929 -0.1011  0.3419
 7826TIP3    H144969   1.410   3.330   0.152  0.0209 -0.7817 -1.1489
 7826TIP3    H244970   1.413   3.476   0.111 -0.7616 -1.5768 -4.2774
 7827TIP3   OH244971   1.472   4.263  15.258  0.8642  0.5668 -0.6648
 7827TIP3    H144972   1.476   4.289  15.350  0.2573  1.9377 -0.9980
 7827TIP3    H244973   1.451   4.170  15.260  0.9281  0.5636  0.5821
 7828TIP3   OH244974   3.604   5.192  14.643 -0.0051 -0.0757  0.2222
 7828TIP3    H144975   3.652   5.112  14.622 -2.0478 -0.8374 -2.1761
 7828TIP3    H244976   3.634   5.256  14.578  0.2551  0.5353  0.9307
 7829TIP3   OH244977   5.229   6.307   5.336 -0.1241  0.6541  0.4435
 7829TIP3    H144978   5.160   6.292   5.270  2.5379 -0.2284 -2.3725
 7829TIP3    H244979   5.246   6.401   5.331  0.0198  0.6025 -0.0898
 7830TIP3   OH244980   2.017   6.629   3.524 -0.2171 -0.6012  0.1718
 7830TIP3    H144981   2.047   6.582   3.446 -0.5329 -2.1353  0.9505
 7830TIP3    H244982   2.096   6.668   3.561 -0.1507  0.7652 -1.2690
 7831TIP3   OH244983   5.332   3.184  11.792 -0.0369  0.5187 -0.6707
 7831TIP3    H144984   5.330   3.252  11.859  2.2074  1.7373 -1.7399
 7831TIP3    H244985   5.386   3.114  11.831  0.3096  0.7365 -0.7511
 7832TIP3   OH244986   4.137   6.207  16.401  0.4709  0.1041  0.3468
 7832TIP3    H144987   4.132   6.128  16.347  3.0430 -1.2028  1.8208
 7832TIP3    H244988   4.228   6.237  16.391  0.7173  0.4612  3.0047
 7833TIP3   OH244989   1.897   3.016  16.230  0.7127 -0.1530 -0.0507
 7833TIP3    H144990   1.854   2.934  16.208 -1.3691  0.6623  0.7216
 7833TIP3    H244991   1.906   3.014  16.326  0.0215  0.7760  0.0473
 7834TIP3   OH244992   0.916   6.485  13.227  0.2149  0.9129 -0.4891
 7834TIP3    H144993   0.868   6.453  13.304  0.4932  2.0876  0.2077
 7834TIP3    H244994   0.976   6.415  13.205  0.3333  0.6621  0.5599
 7835TIP3   OH244995   0.705   3.495  11.743  0.4199  0.4203 -0.3910
 7835TIP3    H144996   0.667   3.484  11.656  0.7932 -0.2981 -0.4794
 7835TIP3    H244997   0.774   3.428  11.747 -0.8878 -0.9367  1.1727
 7836TIP3   OH244998   2.129   1.944   4.667 -0.1909  0.2504  0.5280
 7836TIP3    H144999   2.062   1.905   4.612  1.3250  0.3285 -1.4824
 7836TIP3    H245000   2.143   2.031   4.630  0.5641  0.4869  1.3139
 7837TIP3   OH245001   2.906   6.319   5.617 -0.4350  0.3080  0.8659
 7837TIP3    H145002   2.985   6.362   5.585  0.0037 -1.5916 -0.7885
 7837TIP3    H245003   2.834   6.370   5.580 -0.0376  1.8781  2.1484
 7838TIP3   OH245004   0.329   1.200  16.817  0.0730  0.0853  0.0527
 7838TIP3    H145005   0.361   1.196  16.727 -0.3055 -0.7548 -0.0538
 7838TIP3    H245006   0.277   1.281  16.820 -1.8549 -1.0292 -1.1689
 7839TIP3   OH245007   5.968   2.345  16.680 -0.3787 -0.0860 -0.2886
 7839TIP3    H145008   6.009   2.425  16.645 -1.1173  0.7188  0.6431
 7839TIP3    H245009   5.875   2.357  16.664 -0.5103 -0.7185 -0.0291
 7840TIP3   OH245010   2.313   3.294  11.638  0.0300  0.1663 -0.1183
 7840TIP3    H145011   2.328   3.389  11.631 -0.3622  0.1569 -1.2821
 7840TIP3    H245012   2.227   3.286  11.679 -0.5463  0.3448 -1.2666
 7841TIP3   OH245013   2.632   3.893  16.839  0.3931 -0.2047  0.4046
 7841TIP3    H145014   2.673   3.810  16.864  1.2483 -0.1630 -0.7692
 7841TIP3    H245015   2.622   3.886  16.744 -2.6080 -0.3342  0.6329
 7842TIP3   OH245016   1.566   2.563  16.186 -0.1827 -0.3320  0.1373
 7842TIP3    H145017   1.502   2.626  16.154  1.8848  2.4071  1.0196
 7842TIP3    H245018   1.563   2.571  16.281  0.3341 -1.3734  0.2561
 7843TIP3   OH245019   5.128   3.028  13.930 -0.6297 -0.7350  0.1149
 7843TIP3    H145020   5.110   3.034  13.836 -0.8995 -2.4098  0.0186
 7843TIP3    H245021   5.090   2.944  13.956  1.2034 -1.2739  1.2898
 7844TIP3   OH245022   3.342   2.455   1.317 -0.0678 -0.5410 -0.1268
 7844TIP3    H145023   3.263   2.403   1.324 -0.3061 -0.1950 -0.2189
 7844TIP3    H245024   3.339   2.493   1.229 -1.0799  1.4918  0.7128
 7845TIP3   OH245025   6.066   5.542  15.650  0.1204  0.1213 -0.1693
 7845TIP3    H145026   5.981   5.544  15.606  0.3491  2.0322 -0.6011
 7845TIP3    H245027   6.108   5.462  15.618 -0.2820  0.7343 -2.3869
 7846TIP3   OH245028   0.333   2.392   4.112 -0.1114 -0.1409  1.2763
 7846TIP3    H145029   0.345   2.370   4.019 -0.6902  0.0884  1.1408
 7846TIP3    H245030   0.420   2.418   4.142 -0.0981  0.7176  0.5472
 7847TIP3   OH245031   0.360   6.666   6.015  0.0259  0.5400  0.4858
 7847TIP3    H145032   0.415   6.722   6.069 -0.2002  1.1953  0.0487
 7847TIP3    H245033   0.307   6.616   6.077 -0.3436  1.3962  0.8740
 7848TIP3   OH245034   2.281   3.940   0.986  0.0787 -0.2839 -0.3112
 7848TIP3    H145035   2.366   3.899   1.003  0.3444 -0.0886 -1.1513
 7848TIP3    H245036   2.248   3.896   0.908  0.9128  1.8829 -1.9823
 7849TIP3   OH245037   2.765   0.523   0.787  0.3935 -0.0069 -0.2560
 7849TIP3    H145038   2.732   0.519   0.877  1.5650 -2.3474  0.1338
 7849TIP3    H245039   2.860   0.511   0.795  0.4388 -0.9828 -1.8283
 7850TIP3   OH245040   1.295   2.067   1.734 -0.3481  0.2867  0.6894
 7850TIP3    H145041   1.347   2.037   1.808 -1.1348 -2.5342  0.2218
 7850TIP3    H245042   1.356   2.062   1.659 -0.7478 -1.3383  0.4339
 7851TIP3   OH245043   0.402   1.465   2.268 -0.3783 -0.8806  0.2758
 7851TIP3    H145044   0.422   1.547   2.223  0.9824 -0.2881  1.8672
 7851TIP3    H245045   0.479   1.410   2.252  0.2401 -0.5670  2.0130
 7852TIP3   OH245046   3.926   4.116  12.784  0.0070  0.4437  0.1606
 7852TIP3    H145047   3.914   4.107  12.879 -1.3641  1.9220  0.1634
 7852TIP3    H245048   3.930   4.210  12.769 -1.8204  0.3063 -1.4611
 7853TIP3   OH245049   5.124   0.171  11.345  0.5217 -0.1965 -0.1926
 7853TIP3    H145050   5.078   0.148  11.264 -1.6463 -1.7680  1.3798
 7853TIP3    H245051   5.201   0.115  11.345  0.1311 -0.7573 -0.8229
 7854TIP3   OH245052   3.451   2.218  11.662  0.2324 -0.6744  0.6282
 7854TIP3    H145053   3.497   2.140  11.633 -2.3601 -2.4605  0.9450
 7854TIP3    H245054   3.469   2.283  11.595 -1.8940 -3.2694 -2.8032
 7855TIP3   OH245055   4.244   5.844   1.972 -0.0857  0.2700 -0.3465
 7855TIP3    H145056   4.264   5.753   1.994 -0.5722 -0.4404 -2.6318
 7855TIP3    H245057   4.327   5.891   1.987  0.1000 -0.4459  1.0952
 7856TIP3   OH245058   4.287   5.522   4.278 -0.3610  0.2756  0.2136
 7856TIP3    H145059   4.359   5.472   4.238 -1.3617 -1.6494  0.6635
 7856TIP3    H245060   4.295   5.609   4.240  1.0818 -0.3917 -1.1757
 7857TIP3   OH245061   3.963   4.329  16.158  0.8721  0.3940 -0.3102
 7857TIP3    H145062   3.877   4.324  16.115  0.6781  1.4336 -0.0672
 7857TIP3    H245063   4.020   4.276  16.102  0.0614 -0.3896 -0.4282
 7858TIP3   OH245064   6.145   3.203   3.186  0.3034 -0.4729  0.3502
 7858TIP3    H145065   6.146   3.207   3.090  0.1071  2.8709  0.3607
 7858TIP3    H245066   6.226   3.245   3.212  0.4188 -1.4762  1.6946
 7859TIP3   OH245067   6.190   3.971   3.231 -0.0311  0.0583 -0.0326
 7859TIP3    H145068   6.212   3.952   3.323 -0.9910 -0.8632  0.0231
 7859TIP3    H245069   6.275   3.974   3.187  0.4753  0.8539  0.9308
 7860TIP3   OH245070   5.920   4.404   4.486  0.2981 -0.3411 -0.5595
 7860TIP3    H145071   5.953   4.356   4.562 -0.5152 -1.3149 -0.8014
 7860TIP3    H245072   5.975   4.374   4.413  1.1819  0.7117 -0.3433
 7861TIP3   OH245073   2.186   1.704   2.869 -0.1360  0.1212  0.4142
 7861TIP3    H145074   2.201   1.725   2.777  2.6489  0.4339  0.8630
 7861TIP3    H245075   2.140   1.620   2.867 -0.7644  0.4707 -1.2454
 7862TIP3   OH245076   5.799   5.370   6.019 -0.2502  0.7606 -0.6293
 7862TIP3    H145077   5.740   5.445   6.029 -0.1252  0.7161  0.6568
 7862TIP3    H245078   5.870   5.387   6.081  0.2597  0.0227 -0.9938
 7863TIP3   OH245079   1.707   5.871   1.964 -0.4643 -0.1694  0.3735
 7863TIP3    H145080   1.623   5.825   1.972 -1.2620  1.2029  0.1445
 7863TIP3    H245081   1.713   5.896   1.872  0.4021 -0.5899  0.3007
 7864TIP3   OH245082   0.617   6.130  11.595 -0.2489  0.0088 -0.7860
 7864TIP3    H145083   0.568   6.150  11.675  0.4315 -0.0448 -0.3487
 7864TIP3    H245084   0.579   6.047  11.564  0.8607 -1.1031  0.6476
 7865TIP3   OH245085   0.065   6.311  15.910 -0.5044  0.4971  0.6410
 7865TIP3    H145086   0.141   6.362  15.936 -0.4326  0.9722 -0.4396
 7865TIP3    H245087   0.016   6.297  15.991  0.4705  0.6000  1.2636
 7866TIP3   OH245088   4.434   0.651   6.031 -0.0300  0.0919 -0.2870
 7866TIP3    H145089   4.451   0.628   5.940  0.4172  0.4255 -0.2898
 7866TIP3    H245090   4.499   0.602   6.081 -0.4355 -0.2867 -0.1209
 7867TIP3   OH245091   2.013   5.073   4.227 -0.6415  0.8572 -0.3396
 7867TIP3    H145092   1.921   5.047   4.225 -0.5324  0.3129  0.5974
 7867TIP3    H245093   2.014   5.157   4.273 -0.5263 -0.0359  1.3912
 7868TIP3   OH245094   5.425   4.294  12.318  0.0185  0.4537  0.3381
 7868TIP3    H145095   5.475   4.282  12.399 -1.8643  1.6431  1.7773
 7868TIP3    H245096   5.461   4.374  12.279  0.5300  0.2128  0.3073
 7869TIP3   OH245097   5.731   4.535   0.366  0.4773  0.0284  0.1282
 7869TIP3    H145098   5.792   4.514   0.437  0.5025 -0.2982  0.0104
 7869TIP3    H245099   5.785   4.534   0.287  0.3177 -0.2935  0.0189
 7870TIP3   OH245100   5.213   3.683  10.969 -0.0545 -0.5828  0.6162
 7870TIP3    H145101   5.154   3.618  11.007  1.0296 -0.5431  2.4901
 7870TIP3    H245102   5.299   3.641  10.971  0.4624  0.4558  0.6991
 7871TIP3   OH245103   6.072   5.531  11.595  0.4588 -0.2424 -0.0077
 7871TIP3    H145104   6.081   5.618  11.556  1.4958 -0.3845 -0.1177
 7871TIP3    H245105   5.990   5.535  11.644  0.1476  0.5790 -0.5708
 7872TIP3   OH245106   4.191   3.689  17.123  0.4602 -0.2270 -0.8872
 7872TIP3    H145107   4.152   3.776  17.132  0.0200 -0.4568 -0.5471
 7872TIP3    H245108   4.285   3.704  17.135  0.1840 -0.1431  1.8791
 7873TIP3   OH245109   3.335   5.438   5.020  0.3099  0.5941  0.3150
 7873TIP3    H145110   3.398   5.412   5.088 -2.0659  2.2218  3.3738
 7873TIP3    H245111   3.260   5.471   5.068 -3.0371 -1.2573 -3.1009
 7874TIP3   OH245112   1.245   1.994  11.997 -0.3329  0.3822  0.2538
 7874TIP3    H145113   1.173   1.951  12.043 -0.6896 -0.3019 -0.8823
 7874TIP3    H245114   1.324   1.970  12.046 -0.4026 -2.3698 -0.7841
 7875TIP3   OH245115   5.859   0.109  13.097  0.5031  0.2408 -0.2493
 7875TIP3    H145116   5.841   0.203  13.102  0.8442  0.2672  0.7562
 7875TIP3    H245117   5.772   0.069  13.087  0.2445  0.6065  0.4373
 7876TIP3   OH245118   5.232   2.668  15.642  0.0126 -1.2140 -0.7438
 7876TIP3    H145119   5.145   2.674  15.603  0.1907 -0.7025 -1.0856
 7876TIP3    H245120   5.289   2.712  15.578 -0.3367  4.2231  2.0684
 7877TIP3   OH245121   2.218   3.504   1.801 -0.2827 -0.2303 -0.3013
 7877TIP3    H145122   2.292   3.452   1.831  0.7781  0.6426 -1.3012
 7877TIP3    H245123   2.204   3.476   1.711  1.6277  2.5061 -1.5748
 7878TIP3   OH245124   0.858   2.743  12.874 -0.6280  0.2858 -0.6831
 7878TIP3    H145125   0.853   2.727  12.968 -2.9058  2.5185 -0.3218
 7878TIP3    H245126   0.951   2.755  12.856 -0.2553  1.1691  1.5523
 7879TIP3   OH245127   6.568   2.694   0.544  1.0342 -0.4045 -0.5428
 7879TIP3    H145128   6.518   2.769   0.576  1.3345 -0.6937  0.6664
 7879TIP3    H245129   6.613   2.726   0.466 -0.2120  0.1518 -1.0633
 7880TIP3   OH245130   3.765   1.648   0.998  0.0628  0.3708 -0.0546
 7880TIP3    H145131   3.710   1.676   1.070  0.6834 -0.1864  0.6460
 7880TIP3    H245132   3.853   1.677   1.022 -0.2358  3.8895 -2.4899
 7881TIP3   OH245133   5.190   6.732  10.302 -0.0459  0.0613  0.5476
 7881TIP3    H145134   5.144   6.656  10.267  0.9988 -0.7563  0.8747
 7881TIP3    H245135   5.283   6.708  10.297  0.2725  1.0843  1.1913
 7882TIP3   OH245136   2.917   0.380  15.588 -0.0801  0.0419 -0.4126
 7882TIP3    H145137   2.849   0.417  15.532  1.5822  2.7167 -0.8948
 7882TIP3    H245138   2.918   0.437  15.665  0.8413 -0.6480  0.1097
 7883TIP3   OH245139   4.441   4.802  16.858 -0.1679  0.4221  0.4776
 7883TIP3    H145140   4.453   4.834  16.768 -1.5386 -0.9489 -0.2534
 7883TIP3    H245141   4.529   4.784  16.889  0.2856 -1.6625 -1.6617
 7884TIP3   OH245142   0.911   2.631   0.850 -0.2829  0.0361  0.2223
 7884TIP3    H145143   0.875   2.542   0.857 -3.4197  0.9104 -2.2789
 7884TIP3    H245144   0.860   2.683   0.912 -1.4101  0.7483 -1.2299
 7885TIP3   OH245145   5.477   2.776   6.030  0.1166  0.3440  0.2711
 7885TIP3    H145146   5.393   2.787   5.985 -0.0628  1.1303  0.7634
 7885TIP3    H245147   5.487   2.857   6.080  1.2771  0.3602  0.0479
 7886TIP3   OH245148   5.640   2.560  11.832  0.0301  0.0108 -0.5625
 7886TIP3    H145149   5.569   2.624  11.839  0.6521  0.5365  1.5355
 7886TIP3    H245150   5.708   2.607  11.783  0.1657  0.6908  0.2516
 7887TIP3   OH245151   4.981   3.675   5.988 -0.1707  0.0923  0.4385
 7887TIP3    H145152   4.982   3.586   5.952 -1.0032 -0.0715  0.7856
 7887TIP3    H245153   5.032   3.668   6.069 -0.2113 -0.0741  0.4518
 7888TIP3   OH245154   5.138   5.249   0.881 -0.6420 -0.5177 -0.0160
 7888TIP3    H145155   5.051   5.219   0.857 -1.1363  1.1454 -0.4040
 7888TIP3    H245156   5.177   5.175   0.927 -2.4237 -1.1318  0.5846
 7889TIP3   OH245157   5.657   5.181   3.394  0.0625 -0.2901 -0.9442
 7889TIP3    H145158   5.604   5.211   3.468  0.5216  1.0892 -1.1320
 7889TIP3    H245159   5.673   5.088   3.411 -0.8926 -0.2947  0.0287
 7890TIP3   OH245160   1.393   4.335  16.931  0.4285  0.1418  0.4715
 7890TIP3    H145161   1.403   4.400  17.000  0.1449  0.9976 -0.2698
 7890TIP3    H245162   1.304   4.300  16.943  0.8376 -0.6564  1.3119
 7891TIP3   OH245163   3.152   4.548   3.735 -0.3651 -0.3657  0.1918
 7891TIP3    H145164   3.216   4.517   3.671 -0.6272 -1.0012  0.2225
 7891TIP3    H245165   3.192   4.624   3.776  0.1024 -0.3844 -0.2326
 7892TIP3   OH245166   4.497   6.435  11.514  0.1823 -0.3551 -0.0092
 7892TIP3    H145167   4.530   6.395  11.434 -1.0226 -1.4377 -0.0003
 7892TIP3    H245168   4.491   6.528  11.493  0.1436 -0.5849 -1.0889
 7893TIP3   OH245169   0.052   3.626   2.337 -0.2205  0.2954 -0.2752
 7893TIP3    H145170  -0.013   3.677   2.289 -0.4889  1.7089  1.4748
 7893TIP3    H245171   0.015   3.617   2.425  0.9812 -0.7681  0.1482
 7894TIP3   OH245172   1.902   1.562  12.123 -0.1118 -0.1039  0.5541
 7894TIP3    H145173   1.874   1.643  12.167 -1.6008  0.2909 -1.0139
 7894TIP3    H245174   1.904   1.585  12.030  1.3168 -1.3726  0.2527
 7895TIP3   OH245175   0.900   1.750  15.066 -0.2430 -0.1619 -0.1931
 7895TIP3    H145176   0.870   1.718  14.981 -0.4041  2.0931 -1.0654
 7895TIP3    H245177   0.841   1.823  15.086  0.2794 -0.1657  1.4953
 7896TIP3   OH245178   2.212   4.480   2.995  0.4397 -0.1461 -0.3772
 7896TIP3    H145179   2.207   4.523   3.080 -1.0978  0.5174 -0.7861
 7896TIP3    H245180   2.244   4.392   3.016 -2.7936 -1.0898  1.3394
 7897TIP3   OH245181   2.937   1.050   5.287 -0.0579 -0.5038  0.5312
 7897TIP3    H145182   3.010   1.056   5.225 -0.3418 -0.5376  0.1852
 7897TIP3    H245183   2.859   1.042   5.231 -0.6520  2.3917  0.8093
 7898TIP3   OH245184   0.053   2.723  12.228 -0.4260 -0.1553 -0.0589
 7898TIP3    H145185   0.029   2.708  12.136  0.8904 -0.5150 -0.3573
 7898TIP3    H245186   0.147   2.711  12.230  0.0122  2.7722  0.7524
 7899TIP3   OH245187   6.074   1.709  13.086  0.4522  0.1297  0.0322
 7899TIP3    H145188   6.102   1.742  13.001  0.5597 -0.5443 -0.2041
 7899TIP3    H245189   6.147   1.728  13.145  0.4885  0.3581 -0.0892
 7900TIP3   OH245190   4.963   3.379   6.218  0.1337 -0.2637 -0.0197
 7900TIP3    H145191   4.998   3.460   6.256 -3.3074  1.4391 -0.1458
 7900TIP3    H245192   5.009   3.371   6.134  2.9227 -0.3588  1.4020
 7901TIP3   OH245193   0.697   5.986   4.820  0.1996 -0.0812  0.0247
 7901TIP3    H145194   0.634   6.055   4.798 -0.7899 -0.5098  1.4101
 7901TIP3    H245195   0.773   6.005   4.765 -0.2044  1.8648  0.0874
 7902TIP3   OH245196   2.135   6.121  14.700 -0.2864  0.4506  0.4274
 7902TIP3    H145197   2.227   6.122  14.673 -0.3747  1.0502  0.1109
 7902TIP3    H245198   2.119   6.209  14.734 -1.2694  1.0648 -1.4378
 7903TIP3   OH245199   1.059   3.543   4.951  0.5418 -0.8968  0.1459
 7903TIP3    H145200   0.981   3.554   5.005  0.0867 -2.0855 -0.2287
 7903TIP3    H245201   1.066   3.448   4.938  1.9896 -0.8071  0.0833
 7904TIP3   OH245202   3.503   0.161   2.877 -0.3647 -1.2919  0.1902
 7904TIP3    H145203   3.436   0.094   2.891 -0.6394 -1.1358 -0.3429
 7904TIP3    H245204   3.467   0.217   2.808 -0.5531 -0.0447  1.2457
 7905TIP3   OH245205   1.474   1.623  14.500  0.1187  0.3145  0.5880
 7905TIP3    H145206   1.435   1.583  14.578  1.2248  0.4988  1.2616
 7905TIP3    H245207   1.475   1.717  14.519 -2.2729  0.7243 -0.8982
 7906TIP3   OH245208   1.244   4.268  11.772  0.3262 -0.4300  0.0010
 7906TIP3    H145209   1.217   4.292  11.684  0.2295 -2.7102 -0.6554
 7906TIP3    H245210   1.167   4.284  11.826 -1.2769 -3.2741 -1.1946
 7907TIP3   OH245211   1.969   2.893   3.920  0.5907 -0.2276  0.1880
 7907TIP3    H145212   1.878   2.884   3.892 -0.0017  0.0920  1.8618
 7907TIP3    H245213   1.995   2.980   3.892 -0.5427  0.7590  2.0154
 7908TIP3   OH245214   0.669   1.532  12.062  0.4677  0.2689  0.2327
 7908TIP3    H145215   0.619   1.560  12.138 -1.8239 -0.0364 -1.0722
 7908TIP3    H245216   0.638   1.588  11.991 -0.0598 -1.7409 -1.2029
 7909TIP3   OH245217   0.382   6.196   3.484 -0.2227 -0.2217 -0.7303
 7909TIP3    H145218   0.433   6.138   3.541 -1.9432 -1.9378 -0.8153
 7909TIP3    H245219   0.403   6.167   3.395 -0.6740 -0.3547 -0.7955
 7910TIP3   OH245220   5.464   5.855  11.974 -0.2309  0.0105 -0.0219
 7910TIP3    H145221   5.408   5.890  12.043  0.4363  0.0916  0.4932
 7910TIP3    H245222   5.461   5.921  11.905 -0.6094  0.1077  0.0864
 7911TIP3   OH245223   1.723   0.202  13.655 -0.2011 -0.3840  0.0112
 7911TIP3    H145224   1.711   0.229  13.564  0.9279 -0.1177 -0.0794
 7911TIP3    H245225   1.699   0.280  13.706  3.0132  0.9238 -0.2512
 7912TIP3   OH245226   0.303   6.797   4.781  0.1961  0.4791  0.1573
 7912TIP3    H145227   0.250   6.876   4.772 -1.1723 -0.3368  0.6340
 7912TIP3    H245228   0.271   6.739   4.712  0.2562 -0.1427  0.6413
 7913TIP3   OH245229   2.915   1.466  12.873  0.0092 -1.0580  0.0308
 7913TIP3    H145230   2.886   1.396  12.932 -0.1830 -0.8088  0.2328
 7913TIP3    H245231   2.941   1.420  12.793  1.2833 -1.4937  0.6812
 7914TIP3   OH245232   2.252   3.528   2.737  0.1596 -0.0644  0.0712
 7914TIP3    H145233   2.244   3.526   2.642 -2.1494  1.0065  0.1678
 7914TIP3    H245234   2.255   3.436   2.763  1.7764 -0.3702 -1.0441
 7915TIP3   OH245235   2.210   3.329  12.866 -0.1884  0.3601  0.2116
 7915TIP3    H145236   2.242   3.239  12.860 -0.0042  0.4352  0.0548
 7915TIP3    H245237   2.276   3.375  12.916 -0.2412  0.4287  0.2179
 7916TIP3   OH245238   3.227   4.324  16.413 -0.0840 -0.5299 -0.2810
 7916TIP3    H145239   3.202   4.244  16.459  1.6846  0.0874  1.9003
 7916TIP3    H245240   3.322   4.317  16.401  0.0420  1.0420 -0.4362
 7917TIP3   OH245241   6.598   0.315  15.549 -0.0621  0.3485 -0.6527
 7917TIP3    H145242   6.565   0.230  15.578 -0.1733  1.1850  1.9142
 7917TIP3    H245243   6.523   0.357  15.506 -0.5805 -0.1084 -0.2014
 7918TIP3   OH245244   0.017   4.358   1.718 -0.4454 -0.4687 -0.0639
 7918TIP3    H145245  -0.034   4.390   1.644 -1.0803 -0.6645  0.2756
 7918TIP3    H245246  -0.047   4.314   1.774 -0.2188  0.7447  1.2240
 7919TIP3   OH245247   1.888   1.527  16.555  0.0052  0.0858 -0.3790
 7919TIP3    H145248   1.875   1.560  16.466 -1.2342  0.2696 -0.1407
 7919TIP3    H245249   1.801   1.528  16.594  0.4036 -0.7908  0.5692
 7920TIP3   OH245250   0.971   4.504   3.696 -0.0752  0.4830  0.2648
 7920TIP3    H145251   1.050   4.463   3.662 -0.8157 -1.1377  0.4059
 7920TIP3    H245252   0.900   4.472   3.640 -0.7413  1.2715  0.6253
 7921TIP3   OH245253   4.162   1.534  13.349  0.2208 -0.2051  0.2474
 7921TIP3    H145254   4.247   1.531  13.393  0.3048 -1.6503  0.0311
 7921TIP3    H245255   4.181   1.510  13.258 -0.1276  1.5714 -0.3496
 7922TIP3   OH245256   0.520   0.946   5.382 -0.1720  0.4238 -0.0063
 7922TIP3    H145257   0.533   0.866   5.433  0.1593  1.3773  1.4573
 7922TIP3    H245258   0.507   0.915   5.292  1.4011 -1.2134  0.2615
 7923TIP3   OH245259   4.137   1.954   3.212 -0.6776 -0.4536 -0.1528
 7923TIP3    H145260   4.160   1.862   3.228 -0.7495 -0.7039 -1.3558
 7923TIP3    H245261   4.163   2.000   3.292 -0.1457 -1.4418  0.2608
 7924TIP3   OH245262   0.451   5.516  11.281 -0.0383  0.0097 -0.3319
 7924TIP3    H145263   0.518   5.476  11.226  0.7443  1.6249 -0.6230
 7924TIP3    H245264   0.446   5.607  11.250 -1.1383  0.3789  0.8426
 7925TIP3   OH245265   3.040   6.449  17.126 -0.1473 -0.1341  0.4895
 7925TIP3    H145266   3.136   6.443  17.123 -0.1412 -0.2227  0.8312
 7925TIP3    H245267   3.012   6.371  17.174 -0.5084 -1.0407 -1.1173
 7926TIP3   OH245268   3.128   5.619  12.812 -0.2490 -0.0651 -0.4695
 7926TIP3    H145269   3.096   5.553  12.751  0.7313  0.1793 -1.2650
 7926TIP3    H245270   3.053   5.636  12.870 -0.7667 -1.2624 -0.7632
 7927TIP3   OH245271   1.154   5.348  16.002  0.1807  0.3492  0.6547
 7927TIP3    H145272   1.091   5.387  16.062 -0.1151  1.3192 -0.2587
 7927TIP3    H245273   1.223   5.414  15.993  0.0052  0.4081 -0.3958
 7928TIP3   OH245274   4.152   3.061  13.072  0.2655  0.1369  0.0747
 7928TIP3    H145275   4.153   2.966  13.085 -2.6269  0.2194  1.8563
 7928TIP3    H245276   4.091   3.075  12.999  2.8770  0.5946 -2.1621
 7929TIP3   OH245277   4.433   2.065   2.290 -0.2770 -0.1020  0.7678
 7929TIP3    H145278   4.512   2.055   2.238 -1.7332 -0.5154 -1.5326
 7929TIP3    H245279   4.369   2.009   2.246 -2.4809  1.9813  1.1262
 7930TIP3   OH245280   3.961   4.486   5.149  0.3701 -0.0226 -0.2685
 7930TIP3    H145281   3.948   4.526   5.062 -2.0603  0.9059  0.4429
 7930TIP3    H245282   3.873   4.479   5.185  1.2606 -1.1634  1.8300
 7931TIP3   OH245283   1.463   4.599  13.672 -0.5980 -0.1467  0.7128
 7931TIP3    H145284   1.460   4.691  13.697  0.8456  0.2391 -0.4155
 7931TIP3    H245285   1.474   4.600  13.577 -2.2959 -1.5175  0.4492
 7932TIP3   OH245286   1.666   4.247   0.993 -0.6393  0.6274 -0.0995
 7932TIP3    H145287   1.644   4.271   0.903 -1.4068  1.3350  0.2621
 7932TIP3    H245288   1.633   4.157   1.001 -0.0134  0.3335 -0.7023
 7933TIP3   OH245289   1.015   4.947  16.575  0.7856 -0.2489 -0.3170
 7933TIP3    H145290   0.957   4.873  16.557  1.3136 -1.1036  1.2076
 7933TIP3    H245291   1.071   4.954  16.498 -1.2901  0.6081 -1.8281
 7934TIP3   OH245292   3.678   5.884  14.446 -0.2555 -0.0302 -0.1622
 7934TIP3    H145293   3.702   5.976  14.451  0.8429 -0.2979 -0.3269
 7934TIP3    H245294   3.757   5.836  14.470 -1.5061 -0.9297  2.5178
 7935TIP3   OH245295   1.864   5.810   1.448 -0.5636  0.0272 -0.0985
 7935TIP3    H145296   1.874   5.879   1.382 -1.0775  0.4524  0.2573
 7935TIP3    H245297   1.828   5.736   1.400  0.9476 -0.3518 -0.6929
 7936TIP3   OH245298   1.848   2.303  11.675 -0.3113 -0.5803  0.1582
 7936TIP3    H145299   1.783   2.269  11.737 -0.3370 -0.1456  0.3805
 7936TIP3    H245300   1.930   2.299  11.724 -0.2733 -0.5583  0.0950
 7937TIP3   OH245301   3.481   2.002  10.743  0.1024  0.3591  0.3325
 7937TIP3    H145302   3.388   1.993  10.767  0.2636  0.1457  0.8968
 7937TIP3    H245303   3.488   1.955  10.660 -0.1683 -0.1967  0.6114
 7938TIP3   OH245304   0.662   1.715  13.157  0.1599 -0.5446  0.4625
 7938TIP3    H145305   0.650   1.785  13.221 -2.6924  0.7483 -1.2904
 7938TIP3    H245306   0.665   1.635  13.208  0.4162  0.6014  2.3240
 7939TIP3   OH245307   1.003   0.749  14.015  0.3171  0.1630 -0.3235
 7939TIP3    H145308   1.025   0.718  13.927  1.6268 -2.3963  0.8042
 7939TIP3    H245309   1.068   0.817  14.033 -1.0003  1.9396 -1.8843
 7940TIP3   OH245310   4.590   4.976   0.376 -0.3536 -0.0011 -0.2575
 7940TIP3    H145311   4.587   4.885   0.346 -1.0366 -0.1572  0.2559
 7940TIP3    H245312   4.641   4.974   0.457 -1.6472 -0.1763  0.5672
 7941TIP3   OH245313   3.000   0.857   1.458  0.6070  0.1345 -0.5435
 7941TIP3    H145314   3.052   0.841   1.537 -1.3254  0.3384  0.8228
 7941TIP3    H245315   2.928   0.913   1.487  0.2593  0.8882 -2.6305
 7942TIP3   OH245316   2.067   6.581   6.293  0.3048 -0.0003  0.3936
 7942TIP3    H145317   2.059   6.622   6.380 -0.3973 -0.6832  0.6604
 7942TIP3    H245318   1.977   6.576   6.261  0.5470  0.0903 -0.3129
 7943TIP3   OH245319   4.542   5.994  12.975 -0.1356  0.0815  0.7135
 7943TIP3    H145320   4.624   6.023  13.015  0.8596 -0.8234 -0.6020
 7943TIP3    H245321   4.552   6.014  12.882 -3.1164  3.8599  0.9381
 7944TIP3   OH245322   2.129   3.783  13.239  0.4283 -0.3100  0.0524
 7944TIP3    H145323   2.082   3.866  13.248 -0.7508 -0.9627  0.1396
 7944TIP3    H245324   2.118   3.760  13.147  0.8043 -0.3413  0.0160
 7945TIP3   OH245325   2.727   1.478  13.884  0.7303 -0.4217  0.6570
 7945TIP3    H145326   2.807   1.506  13.927  0.6500 -0.2068  0.6661
 7945TIP3    H245327   2.715   1.540  13.812  0.6002 -0.4861  0.6231
 7946TIP3   OH245328   2.444   1.341   6.381  0.1243 -0.4129  0.0868
 7946TIP3    H145329   2.360   1.301   6.404  0.5403 -0.6784  1.2074
 7946TIP3    H245330   2.434   1.433   6.405 -0.6349  0.0910 -1.9632
 7947TIP3   OH245331   5.521   6.730   5.403  0.0722  0.1109 -0.2180
 7947TIP3    H145332   5.585   6.798   5.424 -2.2164  1.8494  1.7173
 7947TIP3    H245333   5.512   6.735   5.308  0.5259  2.0200 -0.2077
 7948TIP3   OH245334   4.760   3.884   4.558 -0.0162  0.0843  0.3001
 7948TIP3    H145335   4.816   3.807   4.563  0.1587  0.0817 -1.2986
 7948TIP3    H245336   4.796   3.944   4.623 -0.1316 -1.1419  1.5375
 7949TIP3   OH245337   4.113   5.137  15.945 -0.5080  0.3707 -0.2784
 7949TIP3    H145338   4.173   5.154  15.872  0.1694 -0.4113  0.0779
 7949TIP3    H245339   4.134   5.048  15.972 -2.5630 -0.3564 -0.8375
 7950TIP3   OH245340   5.941   1.704  16.407  0.5611  0.1258 -0.0020
 7950TIP3    H145341   5.925   1.708  16.501 -0.2889  0.8555 -0.1739
 7950TIP3    H245342   5.882   1.636  16.375  0.8743 -0.1461 -0.0081
 7951TIP3   OH245343   2.703   0.129  16.269  0.2000 -0.3980 -0.1906
 7951TIP3    H145344   2.715   0.092  16.182 -0.7071  0.1765 -0.5706
 7951TIP3    H245345   2.710   0.223  16.257 -1.7073 -0.1771  0.0142
 7952TIP3   OH245346   2.586   1.747  15.746  0.3488 -0.0831 -0.3479
 7952TIP3    H145347   2.634   1.719  15.824 -0.7962  1.0981  0.8211
 7952TIP3    H245348   2.542   1.668  15.715  0.6029 -0.5053  0.3588
 7953TIP3   OH245349   4.248   3.725   2.880 -0.5942 -0.3000 -0.2753
 7953TIP3    H145350   4.321   3.761   2.830 -0.9096  1.1051  0.2452
 7953TIP3    H245351   4.250   3.631   2.861 -1.0006  0.2176 -3.2927
 7954TIP3   OH245352   4.141   4.943   0.242 -0.0772  0.2287 -0.2700
 7954TIP3    H145353   4.171   4.852   0.237 -0.6094 -0.0619  1.3031
 7954TIP3    H245354   4.210   4.994   0.199  0.0548 -0.9450 -1.4875
 7955TIP3   OH245355   4.821   6.776   3.802 -0.2176 -0.0167  0.8239
 7955TIP3    H145356   4.854   6.700   3.851 -1.5517  0.3439  2.3781
 7955TIP3    H245357   4.726   6.765   3.803 -0.3512  0.9574 -0.1437
 7956TIP3   OH245358   4.032   5.575   5.943  0.6354  0.2893 -0.6831
 7956TIP3    H145359   3.995   5.596   6.028  0.2365 -0.8947 -0.5494
 7956TIP3    H245360   4.126   5.568   5.958  0.7210  1.3486 -0.6225
 7957TIP3   OH245361   1.780   4.073   0.584  0.3166 -0.0989 -0.4799
 7957TIP3    H145362   1.853   4.132   0.600  0.2139 -0.2209  0.5162
 7957TIP3    H245363   1.819   3.985   0.581  0.1237 -0.2575  0.9562
 7958TIP3   OH245364   3.247   3.070  13.572  0.2479 -0.2693  0.0106
 7958TIP3    H145365   3.207   3.117  13.645  2.3668 -0.2024  1.2209
 7958TIP3    H245366   3.289   2.994  13.613  1.4795 -0.2298 -1.1008
 7959TIP3   OH245367   1.097   3.626  16.609  0.2581 -0.0075  0.3168
 7959TIP3    H145368   1.108   3.644  16.703 -0.8132 -0.0099  0.4524
 7959TIP3    H245369   1.185   3.607  16.578  0.6059 -0.1759  1.3662
 7960TIP3   OH245370   6.703   5.704  11.027  0.2870  0.3203  0.4325
 7960TIP3    H145371   6.735   5.616  11.045  0.0652  0.0255 -0.5542
 7960TIP3    H245372   6.680   5.703  10.934 -3.3067  0.2777  1.1789
 7961TIP3   OH245373   3.874   0.330  15.135 -0.1176 -0.0033  0.0243
 7961TIP3    H145374   3.859   0.420  15.162  1.0717 -0.0900  1.0492
 7961TIP3    H245375   3.800   0.281  15.170 -0.7127  0.5508 -0.4480
 7962TIP3   OH245376   2.147   0.160  17.153 -0.6772  0.2084  0.2206
 7962TIP3    H145377   2.219   0.097  17.152  2.0130  3.0013  0.0386
 7962TIP3    H245378   2.146   0.196  17.064 -0.8279  1.7069  0.8059
 7963TIP3   OH245379   5.958   4.811   0.046  0.0840  0.1423  0.1762
 7963TIP3    H145380   6.026   4.839   0.106 -0.2774  0.1027  0.6102
 7963TIP3    H245381   5.964   4.715   0.045  1.0177  0.1858 -0.9529
 7964TIP3   OH245382   0.006   5.410  16.887 -0.3556  0.0740  0.3275
 7964TIP3    H145383  -0.062   5.410  16.955 -1.7690 -0.3157 -1.0422
 7964TIP3    H245384   0.045   5.497  16.893 -0.1447 -0.0859  1.8971
 7965TIP3   OH245385   6.731   3.431  11.387  0.4322 -0.2843  0.1391
 7965TIP3    H145386   6.685   3.502  11.432  0.5513  0.8647 -1.4774
 7965TIP3    H245387   6.752   3.368  11.457 -2.9605 -0.5664  1.0857
 7966TIP3   OH245388   4.318   3.107   2.658 -0.2323 -0.5439  0.0884
 7966TIP3    H145389   4.239   3.078   2.704 -1.0123  0.7249 -0.4104
 7966TIP3    H245390   4.289   3.124   2.569  0.5197  0.3004 -0.0096
 7967TIP3   OH245391   2.670   4.066  15.553  0.0275 -0.4860 -0.4185
 7967TIP3    H145392   2.713   4.028  15.477  0.9950  3.6336 -2.2363
 7967TIP3    H245393   2.592   4.109  15.518  0.6173  1.7364  0.7769
 7968TIP3   OH245394   6.405   4.085   1.786 -0.1236  0.1876  0.3584
 7968TIP3    H145395   6.353   4.006   1.801  0.7925 -0.7933 -1.3262
 7968TIP3    H245396   6.355   4.155   1.828 -1.7589 -1.0251  0.5279
 7969TIP3   OH245397   1.267   5.558  15.173  0.1372 -0.1518 -0.2087
 7969TIP3    H145398   1.269   5.474  15.219  0.4732 -0.6848 -1.1799
 7969TIP3    H245399   1.306   5.620  15.235  1.8506 -1.1182 -0.2664
 7970TIP3   OH245400   5.910   3.040  15.393 -0.0930  1.0189  0.0116
 7970TIP3    H145401   5.832   3.066  15.442 -1.6444 -1.4925 -0.9343
 7970TIP3    H245402   5.878   2.976  15.330  3.0141 -1.6486  0.8725
 7971TIP3   OH245403   3.467   0.166  13.004  0.7071  0.2332 -0.5547
 7971TIP3    H145404   3.374   0.162  12.983  0.5175  0.0280  0.3019
 7971TIP3    H245405   3.479   0.251  13.047  1.1617  0.8102 -1.7639
 7972TIP3   OH245406   4.239   2.949   1.767  0.5128  0.1590  0.2272
 7972TIP3    H145407   4.156   2.961   1.721  0.4844  0.3759  0.3337
 7972TIP3    H245408   4.304   2.993   1.712  0.8792 -1.6566 -0.8502
 7973TIP3   OH245409   3.393   2.337  14.397  0.1512 -0.7558  0.0654
 7973TIP3    H145410   3.366   2.257  14.444 -0.8698  0.1419  1.0544
 7973TIP3    H245411   3.419   2.398  14.466  0.3255 -0.0024 -0.6512
 7974TIP3   OH245412   2.986   0.370   2.290  0.1361  0.1101  0.0589
 7974TIP3    H145413   2.929   0.444   2.311  1.1296  0.9076  0.0317
 7974TIP3    H245414   3.012   0.385   2.199  0.6506 -0.0627  0.1748
 7975TIP3   OH245415   0.413   4.922   1.971  0.1222  0.3207 -0.2419
 7975TIP3    H145416   0.499   4.962   1.956 -0.3524  1.0547 -1.0689
 7975TIP3    H245417   0.362   4.945   1.894 -0.4603 -1.1137 -0.3127
 7976TIP3   OH245418   4.972   4.533  16.873  0.6465 -0.6131  0.2512
 7976TIP3    H145419   5.048   4.488  16.836  1.1411  0.1301  0.3315
 7976TIP3    H245420   5.009   4.594  16.937 -0.1357 -1.4066  1.5294
 7977TIP3   OH245421   0.808   6.528   1.242  0.1273 -0.0320 -0.8922
 7977TIP3    H145422   0.903   6.528   1.251  0.0630 -0.1459 -0.0737
 7977TIP3    H245423   0.776   6.548   1.330 -0.6587 -2.9357 -0.4015
 7978TIP3   OH245424   5.914   2.918  14.851 -0.4778  0.1469  0.2633
 7978TIP3    H145425   5.962   2.865  14.914  0.8737 -0.5265 -1.2419
 7978TIP3    H245426   5.956   2.899  14.767 -1.5011  1.8134 -0.6901
 7979TIP3   OH245427   0.667   6.309  12.997  0.1729  0.0609 -0.2927
 7979TIP3    H145428   0.668   6.404  13.013  0.7683 -0.0492  0.4222
 7979TIP3    H245429   0.759   6.286  12.984  0.3107 -0.7226  1.6474
 7980TIP3   OH245430   4.124   5.501   4.525  0.1919 -0.1637 -0.0791
 7980TIP3    H145431   4.199   5.496   4.584  0.6208  0.0198 -0.6098
 7980TIP3    H245432   4.161   5.511   4.438 -0.4442 -0.3465 -0.3779
 7981TIP3   OH245433   5.464   5.036   2.717 -0.1059 -0.2154 -0.3725
 7981TIP3    H145434   5.537   5.051   2.657  2.8787 -1.5412  2.5881
 7981TIP3    H245435   5.448   5.121   2.758  1.3255 -0.3134  0.4516
 7982TIP3   OH245436   1.751   4.400   3.537 -0.0363  0.2075 -0.2954
 7982TIP3    H145437   1.804   4.345   3.480 -1.0026 -1.8143  0.6481
 7982TIP3    H245438   1.778   4.376   3.625 -0.6139  1.1520  0.1514
 7983TIP3   OH245439   5.138   3.045   2.258 -0.7902  0.6527 -0.1181
 7983TIP3    H145440   5.175   3.041   2.170  0.5744 -2.3016  0.4529
 7983TIP3    H245441   5.201   3.097   2.308  1.3119 -1.9240  0.1635
 7984TIP3   OH245442   0.555   0.916   2.751  0.1686 -0.6669 -0.4781
 7984TIP3    H145443   0.582   0.860   2.823  0.2694 -0.8440 -0.6519
 7984TIP3    H245444   0.524   0.997   2.793  0.4178 -0.6894 -0.2514
 7985TIP3   OH245445   2.884   1.400   1.241 -0.0795  0.4336  0.0055
 7985TIP3    H145446   2.964   1.365   1.204 -1.2668 -2.1315 -0.3453
 7985TIP3    H245447   2.868   1.347   1.319 -2.2485 -0.2664 -0.8345
 7986TIP3   OH245448   1.907   0.654   4.657 -0.1441 -0.2783 -0.0241
 7986TIP3    H145449   1.908   0.742   4.618 -1.2374 -1.0488 -1.9224
 7986TIP3    H245450   1.815   0.631   4.660  0.2098 -1.9183 -0.8997
 7987TIP3   OH245451   5.594   2.058   5.786 -0.4698 -0.0502 -0.3125
 7987TIP3    H145452   5.524   2.068   5.849 -2.3080 -1.2200 -2.0501
 7987TIP3    H245453   5.570   1.980   5.735  2.0524 -0.4533 -1.0411
 7988TIP3   OH245454   3.602   0.285   4.188  0.1000  0.5357 -0.4101
 7988TIP3    H145455   3.619   0.374   4.159 -0.5542  0.4696 -1.0263
 7988TIP3    H245456   3.668   0.232   4.142 -0.2294  0.5694 -0.9320
 7989TIP3   OH245457   5.112   5.162  17.277 -0.2407 -0.2371  0.3646
 7989TIP3    H145458   5.157   5.246  17.267  0.2674 -0.5349  0.1156
 7989TIP3    H245459   5.180   5.101  17.303 -0.2759 -0.9179 -1.0348
 7990TIP3   OH245460   5.159   5.443   5.013 -0.0540  0.4335 -0.1599
 7990TIP3    H145461   5.176   5.405   4.926  0.0080  0.3664 -0.1191
 7990TIP3    H245462   5.215   5.392   5.072  0.0992  0.6538 -0.1175
 7991TIP3   OH245463   4.255   5.753  14.306 -0.2249  0.9189  0.5941
 7991TIP3    H145464   4.190   5.726  14.241  0.7606  0.3570 -0.1932
 7991TIP3    H245465   4.289   5.670  14.342  1.3989  1.1245 -0.3857
 7992TIP3   OH245466   0.909   2.690   6.336 -0.0392  0.3732 -0.0692
 7992TIP3    H145467   0.955   2.614   6.372 -0.5656  0.0720 -0.0237
 7992TIP3    H245468   0.817   2.675   6.358 -0.3544  0.2535 -1.4180
 7993TIP3   OH245469   4.275   4.875  15.941  0.0774  0.5586 -0.8379
 7993TIP3    H145470   4.339   4.899  15.874  0.9098  1.0124  0.1065
 7993TIP3    H245471   4.270   4.780  15.936  1.6684  0.4258 -0.1724
 7994TIP3   OH245472   3.996   4.798  15.706  0.3595 -0.1630  0.0279
 7994TIP3    H145473   4.070   4.740  15.724  0.4777 -1.3615 -3.5293
 7994TIP3    H245474   4.035   4.874  15.663 -0.2684  0.1341 -0.0302
 7995TIP3   OH245475   5.268   4.292  12.611  0.4662  0.6375 -0.5339
 7995TIP3    H145476   5.178   4.264  12.593  0.3211  0.6873  0.0891
 7995TIP3    H245477   5.319   4.255  12.539  0.3728 -1.6919  0.5108
 7996TIP3   OH245478   5.757   0.129   0.179 -0.3975 -0.3539  0.1405
 7996TIP3    H145479   5.818   0.082   0.123  0.3860  0.0130  0.6630
 7996TIP3    H245480   5.689   0.161   0.119  0.2190 -0.2917 -0.5420
 7997TIP3   OH245481   5.908   2.988   1.965 -0.0528  0.1899 -0.4345
 7997TIP3    H145482   5.961   2.916   2.000  1.5647  1.0784 -0.9861
 7997TIP3    H245483   5.885   2.959   1.877 -0.0115  0.0526 -0.4015
 7998TIP3   OH245484   5.536   4.112  12.945 -0.1442 -0.3258 -0.8338
 7998TIP3    H145485   5.447   4.135  12.920 -0.0254  1.6099  0.3363
 7998TIP3    H245486   5.585   4.111  12.863 -1.3821 -2.4814 -1.6510
 7999TIP3   OH245487   5.710   4.137   3.416 -0.2426 -0.1770  0.3576
 7999TIP3    H145488   5.716   4.041   3.416 -0.2676 -0.1845 -0.3300
 7999TIP3    H245489   5.709   4.160   3.323  2.4391  0.6608  0.4717
 8000TIP3   OH245490   5.420   3.297   2.706 -0.2211 -0.2581 -0.2906
 8000TIP3    H145491   5.478   3.241   2.758  0.0942  1.2689  1.0569
 8000TIP3    H245492   5.376   3.236   2.645  0.5580 -1.8612  0.6953
 8001TIP3   OH245493   3.670   4.081   3.559  0.1646 -0.1967  0.1451
 8001TIP3    H145494   3.715   4.081   3.644 -0.0347 -2.5492  0.3324
 8001TIP3    H245495   3.695   4.164   3.518  0.4087  0.9216  2.4110
 8002TIP3   OH245496   0.299   6.080  11.396  0.1747  0.4902  0.0369
 8002TIP3    H145497   0.279   6.025  11.472 -0.5237  0.2478 -0.3145
 8002TIP3    H245498   0.219   6.131  11.381  0.6268  1.2103  0.0234
 8003TIP3   OH245499   4.447   4.806   3.608 -0.5010 -0.1830 -0.2498
 8003TIP3    H145500   4.533   4.843   3.630 -0.6559  0.4469 -0.6544
 8003TIP3    H245501   4.386   4.878   3.627 -0.6961  0.1996 -2.1712
 8004TIP3   OH245502   5.071   0.706   1.880  0.3642 -0.0567  0.1733
 8004TIP3    H145503   5.004   0.649   1.917 -2.1025  2.9015  0.7397
 8004TIP3    H245504   5.049   0.714   1.788 -1.4518  2.3686  0.6925
 8005TIP3   OH245505   3.956   6.634   3.044  0.4587  0.2847 -0.0560
 8005TIP3    H145506   3.994   6.704   2.992  2.5998 -0.8817 -0.2048
 8005TIP3    H245507   4.005   6.556   3.018 -0.5679 -0.9184  1.4165
 8006TIP3   OH245508   2.088   6.013   2.703  0.0185  0.3996  0.6805
 8006TIP3    H145509   2.048   5.999   2.617 -0.1295  1.0320  0.6405
 8006TIP3    H245510   2.038   5.957   2.762 -3.7602  4.0382  1.4180
 8007TIP3   OH245511   5.985   3.667   4.993  0.4977 -0.1950  0.1349
 8007TIP3    H145512   5.979   3.746   5.048 -0.4262  0.3947 -0.7897
 8007TIP3    H245513   5.901   3.663   4.948  0.2909 -2.0790  0.6347
 8008TIP3   OH245514   3.495   1.925  15.285  0.0160 -0.4465  0.2836
 8008TIP3    H145515   3.403   1.954  15.289 -0.1454 -0.8852 -0.2105
 8008TIP3    H245516   3.509   1.903  15.194  0.3540 -1.2394  0.5252
 8009TIP3   OH245517   6.084   2.008  12.660  0.2395 -0.1716 -0.0095
 8009TIP3    H145518   6.091   2.066  12.736  0.1459 -1.2947  0.8807
 8009TIP3    H245519   6.011   2.044  12.610  2.0644  2.2749 -1.1224
 8010TIP3   OH245520   2.631   2.646  14.618  0.4055  0.1760  0.2613
 8010TIP3    H145521   2.589   2.656  14.703  1.2200  2.0978  0.4939
 8010TIP3    H245522   2.689   2.570  14.628 -1.2800 -1.1193  0.6084
 8011TIP3   OH245523   2.190   1.276   4.667  0.2471  0.1335 -0.3206
 8011TIP3    H145524   2.134   1.270   4.744  0.6606  1.6109  0.1179
 8011TIP3    H245525   2.129   1.287   4.594 -0.1096 -0.4483 -0.1182
 8012TIP3   OH245526   3.744   2.980  15.874  0.3030 -0.3197 -0.3363
 8012TIP3    H145527   3.656   2.969  15.838  0.1359  0.3426 -0.1385
 8012TIP3    H245528   3.791   3.032  15.808  0.8550 -1.4992 -0.9056
 8013TIP3   OH245529   4.876   3.135  15.835  0.0483 -0.4529  0.2979
 8013TIP3    H145530   4.923   3.195  15.892  1.3311 -1.7709  0.6869
 8013TIP3    H245531   4.942   3.101  15.774  0.0870 -3.5202  1.8469
 8014TIP3   OH245532   2.302   1.586  12.972  0.2561 -0.6518 -0.0136
 8014TIP3    H145533   2.286   1.606  12.880 -2.1417  1.5138  0.7394
 8014TIP3    H245534   2.397   1.590  12.982  0.4846  0.2692 -2.1597
 8015TIP3   OH245535   6.065   4.054  11.184 -0.0995  0.3557  0.2590
 8015TIP3    H145536   6.058   4.085  11.094 -0.7359  0.8700  0.4767
 8015TIP3    H245537   6.020   3.970  11.184 -0.3712  0.4992  0.1597
 8016TIP3   OH245538   2.540   2.687   1.257  0.4623  0.1965 -0.5362
 8016TIP3    H145539   2.466   2.747   1.262  0.8675  0.7932 -1.4086
 8016TIP3    H245540   2.501   2.603   1.232 -0.1562 -0.0349  1.0973
 8017TIP3   OH245541   4.391   3.373   3.632  0.3914  0.1928 -0.1345
 8017TIP3    H145542   4.395   3.410   3.544 -0.3717  0.9202  0.1182
 8017TIP3    H245543   4.425   3.284   3.623 -0.7394 -0.1359 -1.3845
 8018TIP3   OH245544   3.103   5.812   4.254  0.0093  0.1277  0.1261
 8018TIP3    H145545   3.150   5.888   4.289  1.1651 -0.4383 -0.1174
 8018TIP3    H245546   3.169   5.742   4.254 -1.0249 -0.8733  0.3386
 8019TIP3   OH245547   0.114   6.383  15.173  0.3063 -0.1759  0.4286
 8019TIP3    H145548   0.182   6.344  15.118  0.7966 -0.2847  1.0935
 8019TIP3    H245549   0.150   6.469  15.198  1.2311 -1.1049  2.5861
 8020TIP3   OH245550   5.989   3.171   0.363 -0.2423 -0.1448 -0.1602
 8020TIP3    H145551   5.964   3.138   0.449 -2.2232 -1.5044 -1.1814
 8020TIP3    H245552   5.922   3.236   0.342  0.1751  0.1159 -0.7068
 8021TIP3   OH245553   3.150   6.307   3.406  0.2434 -0.3465 -0.2020
 8021TIP3    H145554   3.181   6.369   3.341 -0.7872 -0.1404 -0.5148
 8021TIP3    H245555   3.192   6.224   3.383 -0.0354 -0.2539 -1.0864
 8022TIP3   OH245556   0.074   4.642  16.412  0.1254 -0.2257 -0.2656
 8022TIP3    H145557   0.079   4.554  16.374 -0.9193 -0.5625  0.3458
 8022TIP3    H245558   0.037   4.697  16.343  0.1353 -0.4116 -0.4175
 8023TIP3   OH245559   4.254   0.168   1.966  0.8327 -0.0221  0.3530
 8023TIP3    H145560   4.325   0.103   1.970 -0.3903 -1.4764 -0.7730
 8023TIP3    H245561   4.185   0.131   2.021  0.5374  0.9064  0.6251
 8024TIP3   OH245562   2.954   5.195   6.166  1.2144  0.4095  0.1860
 8024TIP3    H145563   3.013   5.179   6.092  2.2326  0.5780  0.9349
 8024TIP3    H245564   2.939   5.109   6.204 -1.8081 -0.1860 -1.9672
 8025TIP3   OH245565   4.560   2.932   5.649 -0.6527 -0.1323  0.7330
 8025TIP3    H145566   4.637   2.961   5.698 -0.1209 -0.9056  0.3732
 8025TIP3    H245567   4.489   2.988   5.680 -0.0998  0.0977  1.6090
 8026TIP3   OH245568   4.122   3.451  13.578  0.0740  0.1320 -0.4628
 8026TIP3    H145569   4.159   3.374  13.620 -0.2832  1.4543  2.5640
 8026TIP3    H245570   4.056   3.417  13.517 -0.3534 -1.9242  1.0711
 8027TIP3   OH245571   1.311   1.980  14.136  0.6366 -0.0268  0.0266
 8027TIP3    H145572   1.235   1.988  14.079  0.2142 -1.6443  0.3085
 8027TIP3    H245573   1.386   1.973  14.077  0.5596  1.2257 -0.2545
 8028TIP3   OH245574   1.564   3.963   3.169 -0.3579  0.0007  0.1039
 8028TIP3    H145575   1.593   3.999   3.252 -1.2720  0.3756  0.2705
 8028TIP3    H245576   1.622   3.888   3.153 -1.2216 -1.1133  1.9034
 8029TIP3   OH245577   4.853   0.550   1.971 -0.0370 -0.4160 -0.8469
 8029TIP3    H145578   4.843   0.546   2.066  1.5316  1.0148 -0.5798
 8029TIP3    H245579   4.830   0.461   1.941 -1.0400 -0.7538  0.7788
 8030TIP3   OH245580   6.614   6.662  10.903  0.2146 -0.4023 -0.0177
 8030TIP3    H145581   6.578   6.749  10.881  1.3012  0.1176  0.1936
 8030TIP3    H245582   6.708   6.671  10.889  0.3322 -1.5948 -0.0983
 8031TIP3   OH245583   6.355   4.078  15.556 -0.2975  0.4341 -0.0209
 8031TIP3    H145584   6.407   4.079  15.637  1.5904 -1.6326 -1.1168
 8031TIP3    H245585   6.361   4.167  15.522 -2.3993  1.8100  2.7799
 8032TIP3   OH245586   4.715   3.556   5.973  0.1226  0.2163 -0.0697
 8032TIP3    H145587   4.775   3.627   5.995  0.0749 -0.5188  2.9354
 8032TIP3    H245588   4.628   3.591   5.991 -0.2393  0.5039 -2.1252
 8033TIP3   OH245589   5.778   4.056   0.844  0.4232 -0.0234  0.3891
 8033TIP3    H145590   5.745   4.017   0.925  0.2881 -0.8880 -0.0685
 8033TIP3    H245591   5.717   4.025   0.776  0.9933  0.0426 -0.1608
 8034TIP3   OH245592   3.104   4.208   0.413  0.2947  0.1660 -0.5696
 8034TIP3    H145593   3.087   4.114   0.418 -0.2002  0.2847  0.2049
 8034TIP3    H245594   3.017   4.248   0.415  0.5331  0.7552  2.3343
 8035TIP3   OH245595   5.321   2.438   2.169 -0.3279 -0.2969  0.5254
 8035TIP3    H145596   5.332   2.411   2.077  0.5573 -0.3861  0.6478
 8035TIP3    H245597   5.305   2.532   2.165 -1.3846 -0.4821  0.2162
 8036TIP3   OH245598   4.294   4.546  15.432 -0.3054 -0.1277 -0.5426
 8036TIP3    H145599   4.250   4.472  15.391 -0.2882 -0.5350  0.1553
 8036TIP3    H245600   4.252   4.555  15.517  0.2799  0.1071 -0.2705
 8037TIP3   OH245601   1.569   1.107   3.214  0.3501 -0.3272 -0.0628
 8037TIP3    H145602   1.540   1.018   3.194 -2.5146  0.4370  0.3173
 8037TIP3    H245603   1.660   1.110   3.183 -0.0997 -2.7588 -1.8980
 8038TIP3   OH245604   5.306   4.210  17.067  0.0848 -0.4122 -0.5385
 8038TIP3    H145605   5.279   4.120  17.082  0.7752 -0.6588 -0.7170
 8038TIP3    H245606   5.396   4.214  17.102  0.4863 -0.1061 -1.5708
 8039TIP3   OH245607   0.984   1.874  12.486 -0.3801  0.1454 -0.2452
 8039TIP3    H145608   0.906   1.848  12.535 -0.2815 -1.5940 -0.9319
 8039TIP3    H245609   0.958   1.954  12.440 -1.6250 -0.1913 -0.1613
 8040TIP3   OH245610   4.861   2.951   0.238 -0.2548 -0.3795 -0.0352
 8040TIP3    H145611   4.949   2.915   0.226  0.4806  1.7255 -1.7016
 8040TIP3    H245612   4.874   3.029   0.291 -1.0398  0.1797 -0.6362
 8041TIP3   OH245613   4.064   0.486   2.312  0.1918  0.0618 -0.0841
 8041TIP3    H145614   4.063   0.572   2.353  1.5482 -0.3757  0.9337
 8041TIP3    H245615   4.064   0.505   2.218 -0.5535  1.1281  0.1058
 8042TIP3   OH245616   0.816   0.221   1.652  0.4428 -0.7991  0.1229
 8042TIP3    H145617   0.779   0.133   1.658  0.3360 -0.8020 -0.5301
 8042TIP3    H245618   0.768   0.272   1.718 -1.2433 -0.6280 -1.1630
 8043TIP3   OH245619   2.813   3.007  15.901 -0.1232  0.1188  0.2268
 8043TIP3    H145620   2.774   3.069  15.840  3.3870  1.3342 -1.0204
 8043TIP3    H245621   2.739   2.958  15.937 -2.6051  1.6091 -2.4968
 8044TIP3   OH245622   4.638   3.634   4.226  0.8928 -0.3000 -0.0435
 8044TIP3    H145623   4.713   3.614   4.170 -0.3666 -1.4555 -1.3759
 8044TIP3    H245624   4.619   3.726   4.207 -0.3186 -0.9872 -2.6134
 8045TIP3   OH245625   0.696   3.610  14.541 -0.0701  0.0219  0.0612
 8045TIP3    H145626   0.672   3.674  14.608 -1.3888 -0.7058  0.3264
 8045TIP3    H245627   0.738   3.539  14.589  2.0862  0.9813 -0.3219
 8046TIP3   OH245628   0.094   0.845  10.902  0.7027 -0.0397 -0.3409
 8046TIP3    H145629   0.027   0.907  10.873 -0.7715 -1.2973  0.2271
 8046TIP3    H245630   0.166   0.858  10.840 -0.3740  0.7883 -1.4940
 8047TIP3   OH245631   5.958   1.696   2.419  0.1914  0.4505 -0.2344
 8047TIP3    H145632   5.893   1.666   2.482 -0.6930 -0.2653 -1.4399
 8047TIP3    H245633   6.034   1.719   2.472 -0.3567 -0.5640  1.0442
 8048TIP3   OH245634   1.346   5.255  11.200  0.0284 -0.7467  0.4690
 8048TIP3    H145635   1.314   5.283  11.286  0.2911 -2.1053  1.0434
 8048TIP3    H245636   1.270   5.263  11.142  0.5140  2.8303  0.0907
 8049TIP3   OH245637   6.586   0.337   2.791 -0.3008  0.1334 -0.1234
 8049TIP3    H145638   6.641   0.349   2.869 -0.7582  1.8039 -0.0223
 8049TIP3    H245639   6.611   0.409   2.733 -0.1689 -0.9322 -1.4215
 8050TIP3   OH245640   4.224   4.839   2.375  0.3842  0.1665  0.4993
 8050TIP3    H145641   4.170   4.876   2.445  1.3510 -0.7911  1.8054
 8050TIP3    H245642   4.296   4.796   2.421  0.8505 -0.8168 -1.0873
 8051TIP3   OH245643   5.092   2.729  17.011 -0.1045 -0.0463 -0.3628
 8051TIP3    H145644   5.054   2.779  17.083 -0.7132  1.8619 -1.9103
 8051TIP3    H245645   5.160   2.676  17.052  0.1958  1.6370  1.4855
 8052TIP3   OH245646   1.167   2.068  15.979  0.2956  0.0606  0.4458
 8052TIP3    H145647   1.087   2.118  15.966 -1.1320 -2.4118 -1.0209
 8052TIP3    H245648   1.215   2.076  15.897 -0.3905 -1.6197 -0.1609
 8053TIP3   OH245649   5.026   0.619  13.382  0.2086 -0.0857  0.2894
 8053TIP3    H145650   4.953   0.585  13.434  2.0602 -4.7415  0.3651
 8053TIP3    H245651   4.993   0.619  13.292 -0.4004 -0.6408  0.4961
 8054TIP3   OH245652   3.338   1.952  15.576 -0.1145 -0.4722 -0.0529
 8054TIP3    H145653   3.372   1.883  15.519 -0.8381 -1.1940  0.3626
 8054TIP3    H245654   3.269   1.994  15.525  0.1627 -0.2081 -0.2150
 8055TIP3   OH245655   2.271   2.978   6.033 -0.1666 -0.7458 -0.4500
 8055TIP3    H145656   2.199   3.029   6.070  0.0508 -1.5322  1.1584
 8055TIP3    H245657   2.343   2.990   6.096  0.4501 -1.5760 -0.9821
 8056TIP3   OH245658   5.467   0.220   4.906 -0.5641  0.1452 -0.2468
 8056TIP3    H145659   5.410   0.240   4.832  0.9611  1.7256 -1.0412
 8056TIP3    H245660   5.436   0.278   4.976 -0.6707  0.1380 -0.2862
 8057TIP3   OH245661   2.370   1.405  10.842  0.4578 -0.0300  0.3579
 8057TIP3    H145662   2.407   1.473  10.898 -0.2177  1.7598 -1.2714
 8057TIP3    H245663   2.275   1.418  10.848  0.3864  0.9650 -2.0172
 8058TIP3   OH245664   6.442   5.283  12.160 -0.5449 -0.4039  0.2864
 8058TIP3    H145665   6.414   5.191  12.150 -2.8946  0.2158  0.5224
 8058TIP3    H245666   6.435   5.299  12.255 -0.0636 -0.0094  0.2540
 8059TIP3   OH245667   2.673   5.728  13.197 -0.0986  0.2929 -0.3008
 8059TIP3    H145668   2.628   5.719  13.113 -1.0049  3.2982 -0.2578
 8059TIP3    H245669   2.609   5.699  13.262 -0.6550  1.0960 -0.4760
 8060TIP3   OH245670   6.382   4.275  13.865 -0.0769  0.1589 -0.4539
 8060TIP3    H145671   6.302   4.323  13.889  0.8573  1.7968 -0.5192
 8060TIP3    H245672   6.351   4.186  13.846 -1.7188  0.4430  0.6652
 8061TIP3   OH245673   2.650   0.692  15.779  0.9470 -0.0112 -0.5197
 8061TIP3    H145674   2.684   0.775  15.813  0.8277 -0.1045 -0.1719
 8061TIP3    H245675   2.600   0.655  15.851  1.0767 -0.4306 -0.6411
 8062TIP3   OH245676   6.715   2.970  12.672  0.6232  0.2283  1.0498
 8062TIP3    H145677   6.681   2.986  12.584  1.8430 -1.4359  0.2287
 8062TIP3    H245678   6.646   3.002  12.730 -0.7395  0.2604 -0.5075
 8063TIP3   OH245679   6.169   4.950   0.191  0.3547  0.6675  0.6773
 8063TIP3    H145680   6.251   4.914   0.226  2.0019  2.6771 -0.8924
 8063TIP3    H245681   6.148   5.023   0.249  0.9418  1.5571 -0.2045
 8064TIP3   OH245682   0.068   6.242  11.134  1.1686 -0.1641 -0.3847
 8064TIP3    H145683   0.047   6.335  11.133  1.2214 -0.1450 -1.9538
 8064TIP3    H245684   0.066   6.218  11.226 -3.0223  0.4543 -0.1024
 8065TIP3   OH245685   0.135   3.768   0.760 -0.4746 -0.4576 -0.0929
 8065TIP3    H145686   0.218   3.814   0.777 -0.3661 -0.4368 -0.6617
 8065TIP3    H245687   0.156   3.705   0.691 -1.1331  0.1613 -0.8815
 8066TIP3   OH245688   3.118   2.629   0.865  0.0017  0.7552 -0.1074
 8066TIP3    H145689   3.193   2.591   0.909 -0.5189  0.4833  0.5558
 8066TIP3    H245690   3.143   2.720   0.849  0.0530  0.9706  1.1078
 8067TIP3   OH245691   4.778   5.857   1.362  1.2266  0.5402  0.2258
 8067TIP3    H145692   4.710   5.798   1.394  1.4005 -0.6353 -1.4304
 8067TIP3    H245693   4.804   5.820   1.278  1.1354  3.1443 -1.0598
 8068TIP3   OH245694   0.156   4.138   6.133 -0.1241 -0.1138  0.1259
 8068TIP3    H145695   0.171   4.232   6.147 -0.4887  0.3816 -2.3269
 8068TIP3    H245696   0.064   4.125   6.158 -0.0126  0.1281  0.6805
 8069TIP3   OH245697   5.524   5.111   5.199 -0.0532 -0.2936  0.2702
 8069TIP3    H145698   5.609   5.097   5.157  0.1133 -0.6621  0.7180
 8069TIP3    H245699   5.544   5.126   5.291 -0.4363  0.2283  0.2735
 8070TIP3   OH245700   4.510   2.595   2.807 -0.2244  0.3462  0.0891
 8070TIP3    H145701   4.528   2.522   2.746  0.4945 -0.6042  1.3947
 8070TIP3    H245702   4.590   2.603   2.859 -0.3735  1.9674  0.1101
 8071TIP3   OH245703   1.081   2.097   1.943  0.2239  0.1052 -0.2466
 8071TIP3    H145704   1.148   2.138   1.887  1.1794  1.6103  1.8457
 8071TIP3    H245705   1.018   2.167   1.961  1.4772  0.6366  2.7788
 8072TIP3   OH245706   5.090   4.437  14.240 -0.4507  0.2470  0.3427
 8072TIP3    H145707   5.059   4.470  14.156 -1.2525  1.0148  0.9255
 8072TIP3    H245708   5.023   4.375  14.268  0.8919 -1.7362 -0.5966
 8073TIP3   OH245709   0.183   2.152   5.771 -0.2633 -0.3853 -0.8025
 8073TIP3    H145710   0.137   2.086   5.823  1.0070 -1.2201 -0.7111
 8073TIP3    H245711   0.218   2.105   5.696  0.3887  0.2345 -0.9030
 8074TIP3   OH245712   5.525   1.517  14.578 -0.1515 -0.2520 -0.2816
 8074TIP3    H145713   5.548   1.587  14.639  0.7154 -0.9032  0.1638
 8074TIP3    H245714   5.572   1.537  14.498 -0.7258  0.2207 -0.5073
 8075TIP3   OH245715   5.035   1.398  15.188 -0.2129 -0.5420 -0.1982
 8075TIP3    H145716   4.997   1.321  15.146  1.3444 -1.3223 -0.2345
 8075TIP3    H245717   5.065   1.453  15.116 -1.7020  0.3451 -0.1866
 8076TIP3   OH245718   5.122   6.232   5.785  0.4044 -0.1223 -0.4923
 8076TIP3    H145719   5.047   6.219   5.727 -0.7516  0.3924  0.8302
 8076TIP3    H245720   5.169   6.306   5.747 -0.6642  0.5860 -0.4725
 8077TIP3   OH245721   2.144   6.580  13.086  0.2343 -0.6043  0.4097
 8077TIP3    H145722   2.098   6.529  13.020 -0.3786 -3.5208  2.8997
 8077TIP3    H245723   2.228   6.601  13.046 -1.0606  0.0545 -2.1856
 8078TIP3   OH245724   1.178   3.100  12.378  0.1986 -0.8587 -0.5536
 8078TIP3    H145725   1.271   3.101  12.355 -0.0904 -0.3217 -1.8211
 8078TIP3    H245726   1.133   3.078  12.296 -0.7736 -1.6242  0.1532
 8079TIP3   OH245727   1.149   0.362   4.039 -0.3237 -0.0178 -0.0299
 8079TIP3    H145728   1.066   0.318   4.059 -0.7076  0.8940  0.4204
 8079TIP3    H245729   1.194   0.368   4.123  0.2132 -0.5205 -0.2734
 8080TIP3   OH245730   2.067   6.707   5.761  0.2760 -0.1557  0.3143
 8080TIP3    H145731   2.137   6.715   5.826 -0.4101  1.8634  0.8554
 8080TIP3    H245732   1.992   6.672   5.809  0.7569 -2.0428 -0.2054
 8081TIP3   OH245733   3.919   5.248  14.536  0.2725 -0.3182  0.2470
 8081TIP3    H145734   3.883   5.327  14.576  0.2047 -0.0028 -0.4200
 8081TIP3    H245735   3.888   5.250  14.446  1.1709 -0.5334 -0.0841
 8082TIP3   OH245736   5.609   3.056   3.654 -0.7224  0.1046  0.3804
 8082TIP3    H145737   5.564   3.061   3.738 -0.3627 -1.6270  0.7162
 8082TIP3    H245738   5.661   2.976   3.659 -1.1552 -0.3701 -1.7340
 8083TIP3   OH245739   1.088   6.174  13.847  0.3544 -0.1136  0.8821
 8083TIP3    H145740   1.011   6.226  13.825  0.3261  0.4845  2.2897
 8083TIP3    H245741   1.062   6.125  13.925  1.7253  0.9485  2.0597
 8084TIP3   OH245742   3.453   4.320   2.972  0.0434  0.0272  0.6345
 8084TIP3    H145743   3.365   4.284   2.986 -0.8862  1.3015 -1.4718
 8084TIP3    H245744   3.467   4.315   2.878  1.2883  1.8688  0.6605
 8085TIP3   OH245745   3.947   3.455  12.581 -0.6501 -0.0888  0.5068
 8085TIP3    H145746   3.872   3.510  12.601 -0.5231 -0.1285  1.1053
 8085TIP3    H245747   4.018   3.490  12.635 -0.2425 -0.0615 -0.0390
 8086TIP3   OH245748   4.847   3.120  14.404 -0.6578 -0.2271  0.0301
 8086TIP3    H145749   4.852   3.216  14.397  2.5181 -0.2299  0.9605
 8086TIP3    H245750   4.887   3.088  14.324 -0.5232 -0.7736  0.3167
 8087TIP3   OH245751   0.188   6.684   1.895  0.0775  0.2795 -0.5785
 8087TIP3    H145752   0.095   6.705   1.893  0.1221  0.5118 -0.3323
 8087TIP3    H245753   0.201   6.623   1.822 -0.4258 -0.4650 -0.0430
 8088TIP3   OH245754   4.590   1.331   0.041 -0.0691  0.1893 -0.0644
 8088TIP3    H145755   4.597   1.426   0.031  0.1460  0.1462 -0.3260
 8088TIP3    H245756   4.675   1.305   0.078  0.2373 -0.0201 -0.8962
 8089TIP3   OH245757   2.376   1.321  15.579 -0.2978 -0.1334  0.5001
 8089TIP3    H145758   2.405   1.387  15.642  3.8990 -0.7660 -0.4826
 8089TIP3    H245759   2.402   1.238  15.618  0.2218 -0.6950 -0.9806
 8090TIP3   OH245760   0.595   2.110  17.325 -0.3452 -0.2969  0.3725
 8090TIP3    H145761   0.593   2.100  17.230  0.4526  0.2846  0.2861
 8090TIP3    H245762   0.688   2.102  17.348 -0.3316  1.0982  0.9171
 8091TIP3   OH245763   6.407   1.440   4.713 -0.0570 -0.9338  0.0426
 8091TIP3    H145764   6.446   1.365   4.669 -1.2347 -1.4090 -0.2146
 8091TIP3    H245765   6.431   1.515   4.659  0.8927 -1.1418  0.1546
 8092TIP3   OH245766   3.012   0.840   4.206  0.3733  0.1100  0.1271
 8092TIP3    H145767   2.935   0.813   4.156  0.6887 -0.3932 -0.0986
 8092TIP3    H245768   3.004   0.935   4.214  0.5496  0.2571 -1.2818
 8093TIP3   OH245769   4.721   4.444   5.862  0.0380 -0.2849  0.5125
 8093TIP3    H145770   4.639   4.435   5.813 -0.3296  0.7081  0.9348
 8093TIP3    H245771   4.697   4.493   5.940  1.0037 -0.1714  0.7451
 8094TIP3   OH245772   1.227   4.980   4.813  0.0439 -0.7916  0.3331
 8094TIP3    H145773   1.270   4.965   4.897  0.2380  2.4548  0.9274
 8094TIP3    H245774   1.299   5.002   4.753 -0.2875 -0.9214 -0.1142
 8095TIP3   OH245775   4.040   4.940  12.207 -0.1283  0.7852  0.3862
 8095TIP3    H145776   4.077   4.980  12.128  2.7320 -0.4762  0.9565
 8095TIP3    H245777   3.979   4.874  12.174 -0.1947  1.3654 -0.7111
 8096TIP3   OH245778   3.499   4.759  12.735  0.1317  0.3243  0.1284
 8096TIP3    H145779   3.447   4.816  12.679  0.2492 -1.2165 -1.6876
 8096TIP3    H245780   3.574   4.813  12.762 -0.5056  1.4444 -0.2885
 8097TIP3   OH245781   2.572   0.078  14.912  0.2085  0.4870  0.3735
 8097TIP3    H145782   2.614   0.073  14.827 -0.3440 -0.5701  0.1459
 8097TIP3    H245783   2.608   0.004  14.961  1.0188  1.4616  1.3093
 8098TIP3   OH245784   5.749   4.259   5.954 -0.3557 -0.2953 -0.5892
 8098TIP3    H145785   5.838   4.251   5.990  0.2221  1.1830 -1.6188
 8098TIP3    H245786   5.753   4.335   5.896 -2.8187  1.0593  0.8651
 8099TIP3   OH245787   5.892   1.250  15.653  0.4859  0.2352  0.3092
 8099TIP3    H145788   5.944   1.317  15.697  0.9546 -0.5134  0.9262
 8099TIP3    H245789   5.801   1.271  15.674  0.5106  1.4760 -0.6573
 8100TIP3   OH245790   0.642   1.611  14.668 -0.2732 -0.3029 -0.2681
 8100TIP3    H145791   0.554   1.597  14.632 -0.5062 -2.6523  1.0254
 8100TIP3    H245792   0.701   1.586  14.597 -0.6445  0.5027 -0.8718
 8101TIP3   OH245793   0.745   1.184  11.168 -0.2286 -0.5468 -0.3576
 8101TIP3    H145794   0.669   1.198  11.112 -0.0031 -0.1123 -0.5671
 8101TIP3    H245795   0.819   1.181  11.107  0.5456  3.7590  0.0651
 8102TIP3   OH245796   3.467   2.278   3.365  0.8696 -0.2420  0.4649
 8102TIP3    H145797   3.551   2.256   3.404  1.2847 -1.2745 -0.9326
 8102TIP3    H245798   3.436   2.353   3.416  2.3845 -0.1623  1.3329
 8103TIP3   OH245799   1.788   4.671   3.244 -0.3546  0.2577 -0.3667
 8103TIP3    H145800   1.809   4.596   3.188 -1.8174  1.3043 -2.4809
 8103TIP3    H245801   1.821   4.746   3.195 -2.2422  1.2791 -0.1413
 8104TIP3   OH245802   6.423   4.114   0.651 -0.4231  0.2082 -0.1817
 8104TIP3    H145803   6.366   4.129   0.576  0.9093 -0.6542 -1.4329
 8104TIP3    H245804   6.476   4.193   0.658 -0.5859  0.3113 -0.0933
 8105TIP3   OH245805   6.104   6.342  11.150 -0.1480 -0.2171  0.3601
 8105TIP3    H145806   6.019   6.300  11.163 -0.3105  0.2336  0.7604
 8105TIP3    H245807   6.103   6.418  11.208  0.5269 -0.2046  0.3682
 8106TIP3   OH245808   6.583   4.710   2.947 -0.2323  0.1823 -0.3115
 8106TIP3    H145809   6.565   4.652   3.021  1.2542 -0.5056 -0.4456
 8106TIP3    H245810   6.642   4.659   2.891 -0.3007  1.1796 -1.3293
 8107TIP3   OH245811   1.121   6.784  12.884 -0.0489 -0.1028  0.8069
 8107TIP3    H145812   1.121   6.869  12.840 -1.2328 -0.2623  0.4684
 8107TIP3    H245813   1.212   6.769  12.907  0.5125  0.2996 -1.0083
 8108TIP3   OH245814   1.164   4.443  15.443  0.2036  0.0552  0.2060
 8108TIP3    H145815   1.259   4.450  15.431  0.1533 -0.3620 -0.4686
 8108TIP3    H245816   1.133   4.400  15.364 -0.4342 -0.6856  0.8478
 8109TIP3   OH245817   6.522   4.674  10.977  0.1063  0.2024 -0.6002
 8109TIP3    H145818   6.484   4.743  10.922 -2.0228 -0.6462 -0.3128
 8109TIP3    H245819   6.563   4.614  10.916  0.2846  0.7461 -1.0188
 8110TIP3   OH245820   2.491   4.039   0.737  0.2299  0.0880  0.4794
 8110TIP3    H145821   2.570   3.990   0.714 -0.8189 -1.6312  0.3176
 8110TIP3    H245822   2.522   4.112   0.790  1.9459 -0.3786  0.1687
 8111TIP3   OH245823   6.658   1.323   4.529 -0.1356  0.2334 -0.2407
 8111TIP3    H145824   6.716   1.256   4.490 -0.4306 -0.0993 -0.1180
 8111TIP3    H245825   6.702   1.406   4.512  0.9007 -0.0884  0.7676
 8112TIP3   OH245826   5.679   0.863   2.345  0.4978 -0.2951 -0.5726
 8112TIP3    H145827   5.683   0.806   2.423  0.8894 -0.8622 -0.9997
 8112TIP3    H245828   5.730   0.816   2.279 -1.3161 -0.7160 -1.7492
 8113TIP3   OH245829   4.651   6.531   1.145 -0.0415 -0.2311  0.0528
 8113TIP3    H145830   4.707   6.478   1.201 -0.4873 -0.4847  0.2604
 8113TIP3    H245831   4.641   6.480   1.065  0.1373 -0.1202 -0.0421
 8114TIP3   OH245832   3.339   6.058  17.097  0.4218 -0.6273  0.0256
 8114TIP3    H145833   3.355   6.109  17.018  0.1982  1.0453  1.0026
 8114TIP3    H245834   3.426   6.035  17.130  0.5581 -0.2157 -0.0373
 8115TIP3   OH245835   2.761   4.926  16.452 -0.3166  0.5610 -0.0295
 8115TIP3    H145836   2.673   4.912  16.487 -0.3136 -1.6375 -0.7611
 8115TIP3    H245837   2.763   4.875  16.371  1.5424  0.8281 -0.1945
 8116TIP3   OH245838   4.452   6.778   2.595  0.3196 -0.2809  0.5623
 8116TIP3    H145839   4.415   6.702   2.639  0.6984 -0.7434  0.0926
 8116TIP3    H245840   4.534   6.747   2.557 -0.3552 -0.1084 -1.1324
 8117TIP3   OH245841   3.358   2.624   5.264 -0.1589  0.0544 -0.2323
 8117TIP3    H145842   3.293   2.612   5.334  0.2752 -0.0965  0.1454
 8117TIP3    H245843   3.305   2.629   5.184 -0.7307  1.1331  0.1853
 8118TIP3   OH245844   3.271   1.181  13.460  0.2005  0.4079  0.2600
 8118TIP3    H145845   3.184   1.144  13.477  0.3759 -0.4836 -0.7153
 8118TIP3    H245846   3.329   1.105  13.454  0.4732  0.7511 -2.3845
 8119TIP3   OH245847   2.522   2.013  15.015 -0.0921 -0.2676 -0.3882
 8119TIP3    H145848   2.530   2.034  15.108 -0.8157 -0.4520 -0.2763
 8119TIP3    H245849   2.611   1.994  14.987  0.1417 -0.1473  0.2550
 8120TIP3   OH245850   1.404   3.766  10.675 -0.0447  0.6146 -0.3184
 8120TIP3    H145851   1.324   3.750  10.625 -0.8530 -0.6829  1.2623
 8120TIP3    H245852   1.446   3.680  10.681  0.8453  1.0496 -0.0875
 8121TIP3   OH245853   0.694   5.654  14.749 -0.2243 -0.0243 -0.4607
 8121TIP3    H145854   0.678   5.567  14.787  0.1881  0.1075  0.0206
 8121TIP3    H245855   0.661   5.647  14.660  0.9306 -1.0572 -0.8270
 8122TIP3   OH245856   2.888   2.333  11.670  0.4017  0.4516  0.4819
 8122TIP3    H145857   2.803   2.356  11.706 -0.8847 -2.2659 -0.5323
 8122TIP3    H245858   2.906   2.402  11.606 -1.6260  0.4824 -0.1318
 8123TIP3   OH245859   0.129   5.755   5.068  0.5641 -0.1619  0.0851
 8123TIP3    H145860   0.175   5.713   4.995  0.0804 -2.0248  0.7870
 8123TIP3    H245861   0.123   5.686   5.135 -1.3194  0.6730  0.8466
 8124TIP3   OH245862   0.974   3.142   3.359 -0.5688 -0.2564  0.3125
 8124TIP3    H145863   0.971   3.049   3.337  0.2853 -0.2351  0.0717
 8124TIP3    H245864   0.945   3.186   3.279 -0.0912 -0.2835  0.1218
 8125TIP3   OH245865   2.077   1.866   1.974 -0.4580 -0.4912 -0.6053
 8125TIP3    H145866   2.130   1.803   1.925 -0.4017 -0.4256 -0.6302
 8125TIP3    H245867   2.014   1.813   2.022  1.3792 -0.8037  1.6576
 8126TIP3   OH245868   5.752   1.079  11.139  0.3131 -0.0965 -0.3434
 8126TIP3    H145869   5.804   1.159  11.146  1.1461 -0.6847  0.3618
 8126TIP3    H245870   5.816   1.009  11.132 -0.3935 -0.7815 -0.1093
 8127TIP3   OH245871   5.372   4.815  13.584  0.2458 -0.3880 -0.3229
 8127TIP3    H145872   5.447   4.762  13.612  1.1910  0.7113 -0.7496
 8127TIP3    H245873   5.323   4.757  13.526  0.6169 -1.1973  0.1419
 8128TIP3   OH245874   3.709   5.559   4.415 -0.1821 -0.4561 -0.4229
 8128TIP3    H145875   3.756   5.583   4.495  0.1162  2.1513 -1.3017
 8128TIP3    H245876   3.779   5.541   4.352 -0.3509  0.7337 -0.9718
 8129TIP3   OH245877   5.811   3.399  17.354 -0.2587  0.2774 -0.0897
 8129TIP3    H145878   5.861   3.475  17.382  0.1407 -0.1232  0.2977
 8129TIP3    H245879   5.721   3.432  17.343 -0.1850  0.6954  0.5367
 8130TIP3   OH245880   3.585   2.851  16.704 -0.3134  0.3244 -0.9423
 8130TIP3    H145881   3.590   2.878  16.796  1.1141  3.5567 -1.8197
 8130TIP3    H245882   3.498   2.879  16.675 -1.0954 -1.4542 -0.4447
 8131TIP3   OH245883   3.530   5.024   3.129  0.0013  0.2115 -0.4974
 8131TIP3    H145884   3.554   5.017   3.222  0.0408  1.1806 -0.4242
 8131TIP3    H245885   3.467   5.096   3.127  0.6506  0.7655 -1.3409
 8132TIP3   OH245886   1.107   3.392  16.050 -0.7509 -0.6404  0.2985
 8132TIP3    H145887   1.081   3.307  16.014  1.5303 -1.5443  0.6265
 8132TIP3    H245888   1.156   3.434  15.980  1.2020 -1.1718  1.2867
 8133TIP3   OH245889   4.356   2.103   0.652  0.3901  0.1739 -0.5331
 8133TIP3    H145890   4.359   2.163   0.727  1.8120  0.9100 -1.1474
 8133TIP3    H245891   4.289   2.139   0.595  0.6541  0.7180 -0.5070
 8134TIP3   OH245892   5.314   1.995  16.831  0.8859 -0.5073 -0.1124
 8134TIP3    H145893   5.246   2.028  16.773  0.0817 -2.6466 -0.4973
 8134TIP3    H245894   5.365   1.935  16.776  0.4430 -2.1615  1.1904
 8135TIP3   OH245895   1.729   5.061  15.389  0.0147  0.2491 -0.3121
 8135TIP3    H145896   1.647   5.052  15.438  0.0905 -3.1928 -0.5602
 8135TIP3    H245897   1.702   5.085  15.301 -0.5181  1.3313  0.1283
 8136TIP3   OH245898   1.679   5.920  12.256  0.0926  0.3258 -0.1605
 8136TIP3    H145899   1.684   5.825  12.242  0.8455  0.3306  0.0184
 8136TIP3    H245900   1.737   5.957  12.191  0.7607  0.5778  0.5621
 8137TIP3   OH245901   2.287   5.666  12.861 -0.3423  0.7048  0.2967
 8137TIP3    H145902   2.232   5.710  12.926  1.1353  0.0108  2.1362
 8137TIP3    H245903   2.264   5.707  12.778 -2.7075  1.2876  1.1418
 8138TIP3   OH245904   3.031   0.153  11.122  0.0998 -0.2113 -0.0690
 8138TIP3    H145905   2.938   0.170  11.107 -0.4943 -1.0859  2.2484
 8138TIP3    H245906   3.046   0.065  11.087  0.5149  0.5447 -1.9359
 8139TIP3   OH245907   1.354   5.074   2.369 -0.0942  0.2348 -0.3371
 8139TIP3    H145908   1.345   5.092   2.462 -0.4876 -0.2837 -0.2748
 8139TIP3    H245909   1.449   5.077   2.353 -0.0929  1.5742 -0.1783
 8140TIP3   OH245910   5.116   1.404  12.502  0.2643 -0.2238  0.0825
 8140TIP3    H145911   5.097   1.458  12.579  0.3906  1.5296 -1.0495
 8140TIP3    H245912   5.151   1.466  12.438  0.2187 -1.6382 -1.3690
 8141TIP3   OH245913   0.198   5.138   5.193  0.1551 -0.1208  0.2549
 8141TIP3    H145914   0.233   5.163   5.107  0.0774  2.4496  0.8861
 8141TIP3    H245915   0.105   5.162   5.189  0.1258 -0.0813  1.0289
 8142TIP3   OH245916   6.126   3.182  15.229  0.1010  0.3873 -0.2603
 8142TIP3    H145917   6.093   3.248  15.290  1.4743  0.3870  0.5264
 8142TIP3    H245918   6.049   3.153  15.180 -0.9167  0.9028  0.9900
 8143TIP3   OH245919   2.477   5.842   4.764  0.1644  0.4194  0.2092
 8143TIP3    H145920   2.406   5.837   4.701  0.6242  0.2802 -0.3078
 8143TIP3    H245921   2.556   5.825   4.713  0.5803  0.6607  0.7556
 8144TIP3   OH245922   5.897   3.834   0.246 -0.0013  0.3206 -0.2418
 8144TIP3    H145923   5.945   3.906   0.206 -0.3561  1.2647  0.9882
 8144TIP3    H245924   5.808   3.867   0.256  0.1038  0.1748  1.4216
 8145TIP3   OH245925   1.367   4.678  16.115 -0.2308 -0.4556 -0.6790
 8145TIP3    H145926   1.369   4.683  16.020 -1.4661  0.4428 -0.6964
 8145TIP3    H245927   1.458   4.686  16.142  0.3823 -2.7744 -1.8277
 8146TIP3   OH245928   2.242   1.040  13.299 -0.7359  0.1123  0.7555
 8146TIP3    H145929   2.319   0.984  13.292 -2.3290 -2.0366 -0.8109
 8146TIP3    H245930   2.264   1.118  13.248  0.3264 -0.5377  0.2001
 8147TIP3   OH245931   3.343   3.252  12.778 -0.1052 -0.2810  0.0486
 8147TIP3    H145932   3.432   3.228  12.754 -0.3142 -1.2624  0.2053
 8147TIP3    H245933   3.332   3.218  12.867 -0.2281  0.9421  0.5199
 8148TIP3   OH245934   1.658   5.989   0.589  0.2732 -0.0984 -0.1259
 8148TIP3    H145935   1.674   6.076   0.551  0.3514  0.3956  1.0077
 8148TIP3    H245936   1.745   5.953   0.605  0.2599 -0.8999 -1.6826
 8149TIP3   OH245937   5.305   1.113  14.854  0.5482 -0.4073 -0.4744
 8149TIP3    H145938   5.372   1.180  14.842 -0.1859  0.2008 -1.3033
 8149TIP3    H245939   5.300   1.068  14.769 -0.1548 -0.3720 -0.4623
 8150TIP3   OH245940   6.533   5.145  15.756 -0.3039 -0.0500  0.7642
 8150TIP3    H145941   6.530   5.236  15.727  0.4560 -0.1459  0.3606
 8150TIP3    H245942   6.604   5.143  15.820  0.2596 -0.5314  0.1335
 8151TIP3   OH245943   5.469   5.463   2.300  0.1715  0.1006  0.5671
 8151TIP3    H145944   5.400   5.429   2.242  0.6344  0.1943 -0.0471
 8151TIP3    H245945   5.518   5.385   2.326 -0.9662 -0.1488  2.1025
 8152TIP3   OH245946   2.058   3.531  12.296  0.1762  0.0928 -0.3966
 8152TIP3    H145947   2.148   3.561  12.311  0.5521 -0.3658 -1.5495
 8152TIP3    H245948   2.067   3.437  12.281 -0.6075 -0.0956  0.2548
 8153TIP3   OH245949   6.606   2.090  13.747 -0.3271 -0.1888  0.1905
 8153TIP3    H145950   6.646   2.008  13.778  0.1726 -0.6939 -1.6565
 8153TIP3    H245951   6.680   2.149  13.735 -0.7119  0.6656  1.7637
 8154TIP3   OH245952   1.097   4.588  16.442 -0.3975  0.4887  0.0332
 8154TIP3    H145953   1.031   4.625  16.384 -0.2974 -2.9846 -2.5980
 8154TIP3    H245954   1.047   4.554  16.517 -1.3595 -0.2097 -0.9072
 8155TIP3   OH245955   4.675   0.039   4.342  0.4195  0.0298  0.1547
 8155TIP3    H145956   4.635   0.058   4.257  0.5454 -1.8841 -0.3831
 8155TIP3    H245957   4.761   0.002   4.320 -0.7830 -3.6366  0.8295
 8156TIP3   OH245958   5.226   2.065   5.806  0.2132  0.6433 -0.3560
 8156TIP3    H145959   5.304   2.055   5.860  0.9710  1.4662 -1.2500
 8156TIP3    H245960   5.227   1.988   5.748  0.1668  0.4713 -0.1278
 8157TIP3   OH245961   1.609   1.377   0.931  0.5885  0.5244  0.6260
 8157TIP3    H145962   1.626   1.471   0.917 -0.8581  0.9673  1.5626
 8157TIP3    H245963   1.635   1.362   1.022  0.1789  0.1995  0.6933
 8158TIP3   OH245964   6.749   6.329  13.691  0.7459 -0.1150 -0.3004
 8158TIP3    H145965   6.839   6.315  13.662  0.2046  0.5214 -2.4229
 8158TIP3    H245966   6.695   6.300  13.619 -0.6872  1.4708  0.0660
 8159TIP3   OH245967   3.773   2.161  14.587 -0.0892  0.5795  0.2640
 8159TIP3    H145968   3.696   2.134  14.538 -0.7927  1.9440  0.5565
 8159TIP3    H245969   3.845   2.156  14.524  0.0584 -2.7404  0.5230
 8160TIP3   OH245970   2.067   5.427   2.603  0.0736  0.1961  0.6202
 8160TIP3    H145971   2.033   5.338   2.600  0.8289 -0.0841 -0.0462
 8160TIP3    H245972   2.130   5.426   2.676  0.9017 -0.1309 -0.0858
 8161TIP3   OH245973   4.707   6.605   5.542  0.3824  0.8014 -0.5103
 8161TIP3    H145974   4.762   6.566   5.610 -1.9121  0.6089  1.3589
 8161TIP3    H245975   4.746   6.576   5.459  3.7007  1.6080  0.6194
 8162TIP3   OH245976   6.526   3.683  14.605  0.3525  0.7077 -0.2888
 8162TIP3    H145977   6.604   3.630  14.588 -0.4725 -0.2528 -1.3336
 8162TIP3    H245978   6.489   3.646  14.685 -0.6132 -0.8657 -1.3993
 8163TIP3   OH245979   2.068   6.762   0.019  0.1988 -0.2036 -0.2555
 8163TIP3    H145980   2.013   6.720   0.084  0.0986  0.5495  0.1648
 8163TIP3    H245981   2.016   6.762  -0.062  0.2439 -0.9586 -0.2856
 8164TIP3   OH245982   5.452   2.985   6.197 -0.4951 -0.0813  0.2419
 8164TIP3    H145983   5.524   3.009   6.256 -0.6621  1.7248 -0.2267
 8164TIP3    H245984   5.400   3.064   6.189 -1.6193 -0.8812 -0.7437
 8165TIP3   OH245985   5.851   6.735   3.295 -0.7812  0.5073  0.6294
 8165TIP3    H145986   5.915   6.687   3.348 -1.7195 -0.2956  1.0842
 8165TIP3    H245987   5.899   6.809   3.260  1.2907 -1.7114 -1.6326
 8166TIP3   OH245988   1.699   1.779  16.541 -1.1373 -0.4465  0.4868
 8166TIP3    H145989   1.699   1.689  16.572 -1.8725 -0.8603 -0.6471
 8166TIP3    H245990   1.658   1.775  16.455 -1.4958  1.0208  0.5563
 8167TIP3   OH245991   6.385   4.673   5.436  1.0643  0.2838 -0.4518
 8167TIP3    H145992   6.317   4.740   5.428  1.0387  0.4831  1.1590
 8167TIP3    H245993   6.352   4.600   5.383  0.6746  1.1826 -1.4967
 8168TIP3   OH245994   2.503   6.257  15.747 -0.3278  0.6817  0.4408
 8168TIP3    H145995   2.472   6.243  15.657  0.6406 -0.2573  0.2270
 8168TIP3    H245996   2.520   6.351  15.752 -2.8581  1.2069  0.4904
 8169TIP3   OH245997   1.351   4.553   1.608 -0.8834  0.3413 -0.2080
 8169TIP3    H145998   1.405   4.632   1.607 -0.7042  0.2366  0.5260
 8169TIP3    H245999   1.294   4.562   1.531 -0.0435  0.5984 -0.8070
 8170TIP3   OH246000   5.762   2.876   4.570  0.1765 -0.3594  0.2831
 8170TIP3    H146001   5.775   2.957   4.521  1.2873 -1.0216 -0.5592
 8170TIP3    H246002   5.847   2.859   4.611  0.2149 -1.5523 -0.2572
 8171TIP3   OH246003   2.649   5.433  13.889  0.0044  0.1533 -0.0874
 8171TIP3    H146004   2.621   5.389  13.808  1.8606 -0.8792 -0.2376
 8171TIP3    H246005   2.631   5.370  13.958  0.6165  0.0519 -0.0152
 8172TIP3   OH246006   6.022   4.629   3.476  0.2294 -0.0527 -0.2149
 8172TIP3    H146007   6.005   4.669   3.562 -0.4332  1.1340 -0.8662
 8172TIP3    H246008   6.050   4.540   3.496 -0.1009  0.1416  1.2274
 8173TIP3   OH246009   4.826   4.361  14.335  0.0937 -0.5491 -0.2015
 8173TIP3    H146010   4.771   4.288  14.308 -0.1111 -1.0473  1.4388
 8173TIP3    H246011   4.767   4.437  14.332  0.2821 -0.4289 -1.8045
 8174TIP3   OH246012   0.347   1.337  14.893 -0.5872 -0.3199  0.2808
 8174TIP3    H146013   0.286   1.303  14.959 -1.2436 -0.6701 -0.4944
 8174TIP3    H246014   0.433   1.331  14.935 -1.2357  2.0222  2.1427
 8175TIP3   OH246015   3.255   4.884  16.059 -0.0108 -0.0842 -0.1760
 8175TIP3    H146016   3.228   4.918  16.145  0.4246  0.5337 -0.2724
 8175TIP3    H246017   3.348   4.868  16.069 -0.0279 -0.3300 -0.4353
 8176TIP3   OH246018   6.577   6.075  16.143  0.7017 -0.3226 -0.6107
 8176TIP3    H146019   6.546   6.165  16.131 -1.3143 -0.9561 -0.4810
 8176TIP3    H246020   6.589   6.042  16.054 -0.7199 -0.6136 -0.7073
 8177TIP3   OH246021   3.007   3.541  12.033 -0.7939 -0.6158  0.0730
 8177TIP3    H146022   3.041   3.575  12.116  0.3346 -1.5608  0.0202
 8177TIP3    H246023   2.913   3.531  12.048 -0.4022 -2.3819  1.8557
 8178TIP3   OH246024   5.653   1.768   6.281  0.4752 -0.1446 -0.2989
 8178TIP3    H146025   5.666   1.839   6.344  0.8134 -0.5084  0.0480
 8178TIP3    H246026   5.686   1.803   6.198 -2.5898  1.4196 -1.0044
 8179TIP3   OH246027   5.681   2.966  13.165 -0.1604  0.5211 -0.7555
 8179TIP3    H146028   5.634   3.035  13.211 -2.1807 -1.0836 -0.2344
 8179TIP3    H246029   5.773   2.981  13.187 -0.6640  2.2241  0.4191
 8180TIP3   OH246030   0.735   5.750  13.671 -0.0860 -0.0447 -0.2618
 8180TIP3    H146031   0.730   5.667  13.622  0.0851 -0.4487  0.3893
 8180TIP3    H246032   0.695   5.815  13.613  0.9615 -0.3288 -1.3380
 8181TIP3   OH246033   3.248   3.882   1.305 -0.2525 -0.1858  0.5396
 8181TIP3    H146034   3.222   3.919   1.389  0.2121  0.8514  0.2404
 8181TIP3    H246035   3.305   3.808   1.327  1.3223  1.1623  1.1457
 8182TIP3   OH246036   1.100   2.988   0.018  0.0692 -0.0443 -0.4889
 8182TIP3    H146037   1.193   2.973   0.030  0.5679  1.1196 -2.3814
 8182TIP3    H246038   1.092   3.015  -0.074 -2.1334 -0.1472 -0.3859
 8183TIP3   OH246039   6.233   3.395  16.098 -0.0307 -0.0800  0.3066
 8183TIP3    H146040   6.290   3.394  16.021  0.6651 -5.1382  0.5739
 8183TIP3    H246041   6.291   3.413  16.172  0.4652 -0.9611  0.1475
 8184TIP3   OH246042   5.187   0.271  14.715  0.2087 -0.5496  0.4233
 8184TIP3    H146043   5.208   0.224  14.635 -1.3195 -0.0826 -0.2771
 8184TIP3    H246044   5.244   0.231  14.781  0.5443 -1.8403 -0.5971
 8185TIP3   OH246045   3.642   1.751  14.827  0.7997  0.0305 -0.1846
 8185TIP3    H146046   3.561   1.700  14.830  0.4461  0.4832 -1.4580
 8185TIP3    H246047   3.653   1.773  14.735  0.9616  2.2179  0.3086
 8186TIP3   OH246048   1.299   4.770  12.516  0.2076  0.0217 -0.2176
 8186TIP3    H146049   1.230   4.704  12.523  0.7491 -0.3885  2.4442
 8186TIP3    H246050   1.380   4.719  12.519  0.6370  0.7391  2.3169
 8187TIP3   OH246051   4.064   2.190  15.157 -0.1763 -0.3210 -0.4196
 8187TIP3    H146052   4.046   2.172  15.249  1.1650 -2.1906 -0.4713
 8187TIP3    H246053   4.032   2.280  15.143 -2.7444 -0.8936  1.1771
 8188TIP3   OH246054   2.683   0.886   5.933 -0.3088  0.2465 -0.9489
 8188TIP3    H146055   2.602   0.835   5.926  0.1925 -0.9115  0.9406
 8188TIP3    H246056   2.719   0.885   5.844 -2.4535  1.0178 -1.8941
 8189TIP3   OH246057   0.780   4.307  13.880  0.2266  0.0140  0.2469
 8189TIP3    H146058   0.826   4.345  13.954  1.4781 -0.6217 -0.1739
 8189TIP3    H246059   0.844   4.308  13.809 -0.0118 -1.9157 -0.0536
 8190TIP3   OH246060   2.377   4.850   2.756 -0.3749 -0.5455 -0.3078
 8190TIP3    H146061   2.433   4.928   2.754 -2.5671  1.1112 -1.3316
 8190TIP3    H246062   2.343   4.848   2.846 -1.8343  0.9028 -0.7837
 8191TIP3   OH246063   0.669   3.548   3.939 -0.5330 -0.0579 -0.0957
 8191TIP3    H146064   0.650   3.523   3.849 -0.0367  1.0857 -0.5280
 8191TIP3    H246065   0.585   3.540   3.984 -0.7920 -0.5950 -0.6634
 8192TIP3   OH246066   4.227   2.034  11.321  0.6003  0.3299 -0.1407
 8192TIP3    H146067   4.296   2.083  11.276  0.2668  1.4957  0.5678
 8192TIP3    H246068   4.255   1.943  11.316 -0.2417  0.0891 -4.2296
 8193TIP3   OH246069   1.554   5.237  13.898 -0.1567 -0.0491  0.2794
 8193TIP3    H146070   1.541   5.330  13.916  0.3421  0.4376 -1.6421
 8193TIP3    H246071   1.474   5.195  13.929 -0.6337  1.1016  0.6515
 8194TIP3   OH246072   1.986   1.402   1.913  0.2787  0.2290 -0.2555
 8194TIP3    H146073   2.017   1.395   2.004 -0.0548 -1.8897 -0.2551
 8194TIP3    H246074   1.892   1.418   1.921  0.1458 -0.5144 -0.1871
 8195TIP3   OH246075   4.946   3.322  14.001  0.1749  0.0772  0.0956
 8195TIP3    H146076   4.881   3.391  14.012 -0.7772 -0.9007  0.8155
 8195TIP3    H246077   5.028   3.368  13.985 -0.5413  1.3558  0.0380
 8196TIP3   OH246078   6.710   1.363   3.098  0.2159  0.6526 -0.0751
 8196TIP3    H146079   6.674   1.291   3.047 -0.7656  0.8005  0.3878
 8196TIP3    H246080   6.804   1.364   3.076  0.3667 -1.1474  0.3774
 8197TIP3   OH246081   5.202   0.538   0.456 -0.0550  0.2610  0.2850
 8197TIP3    H146082   5.145   0.612   0.476 -1.2276 -0.2159 -1.1219
 8197TIP3    H246083   5.290   0.568   0.478 -0.3031  2.6308 -1.5926
 8198TIP3   OH246084   4.821   4.080  15.161  0.6912 -0.2375  0.1501
 8198TIP3    H146085   4.790   4.109  15.076  0.2831 -0.0126  0.3696
 8198TIP3    H246086   4.816   4.159  15.216  1.6014 -0.2048  0.2119
 8199TIP3   OH246087   0.288   4.197  12.090  0.2829  0.8179 -0.0706
 8199TIP3    H146088   0.330   4.114  12.069 -2.3810 -0.4189 -0.9600
 8199TIP3    H246089   0.275   4.194  12.185 -1.5476 -0.7849 -0.3030
 8200TIP3   OH246090   6.724   1.684  16.304  0.3945  0.0825 -0.0306
 8200TIP3    H146091   6.694   1.692  16.395 -0.0042 -0.5432 -0.0955
 8200TIP3    H246092   6.657   1.629  16.262 -0.2055  1.5621 -1.0884
 8201TIP3   OH246093   0.074   2.022   5.990 -0.1403  0.1735  0.2769
 8201TIP3    H146094   0.105   2.109   6.015  1.8586 -0.5157  0.3496
 8201TIP3    H246095   0.095   1.966   6.065  0.5692 -0.7767 -0.6005
 8202TIP3   OH246096   3.370   6.065  15.292  0.2147  0.1607  0.0932
 8202TIP3    H146097   3.452   6.112  15.310 -1.2046  2.9899 -0.1542
 8202TIP3    H246098   3.352   6.084  15.200 -1.6169  1.2938  0.6177
 8203TIP3   OH246099   6.752   2.366   4.968 -0.1673 -0.2456 -0.4873
 8203TIP3    H146100   6.660   2.343   4.980  0.3773 -2.6655 -0.3917
 8203TIP3    H246101   6.791   2.354   5.054  0.7950 -2.3644 -1.1627
 8204TIP3   OH246102   0.546   6.598  16.691 -0.0563  0.1959 -0.4782
 8204TIP3    H146103   0.542   6.528  16.625  0.2695 -0.9270  0.6683
 8204TIP3    H246104   0.588   6.558  16.767 -0.3684  1.4854  0.4100
 8205TIP3   OH246105   0.189   4.632   1.744 -0.0191  0.2828 -0.3273
 8205TIP3    H146106   0.188   4.550   1.792 -0.4159  0.6346  0.2896
 8205TIP3    H246107   0.238   4.614   1.664  0.9417 -0.2243  0.3708
 8206TIP3   OH246108   2.094   3.661  17.096  0.1658  0.2925  0.3526
 8206TIP3    H146109   2.036   3.734  17.115 -1.1207 -0.6444  0.2175
 8206TIP3    H246110   2.103   3.661  17.000  0.6239  0.6019  0.3929
 8207TIP3   OH246111   1.094   1.592   1.064  0.3512  0.2146 -0.1059
 8207TIP3    H146112   1.126   1.605   0.975  0.5416 -0.2307 -0.1048
 8207TIP3    H246113   1.167   1.550   1.110  0.8260  1.7878  0.6705
 8208TIP3   OH246114   4.531   6.765  14.137  0.0908  0.0937  0.4581
 8208TIP3    H146115   4.505   6.820  14.063 -0.5207  1.0550  1.3619
 8208TIP3    H246116   4.470   6.692  14.135  0.2913 -0.0654 -0.1812
 8209TIP3   OH246117   0.842   3.965   2.463  0.3427 -0.5695 -0.0618
 8209TIP3    H146118   0.766   4.008   2.424 -0.3171 -0.4237  1.3162
 8209TIP3    H246119   0.838   3.875   2.433 -1.3205 -0.9747  1.2644
 8210TIP3   OH246120   3.935   6.453   0.219  1.1611  0.4081  0.1906
 8210TIP3    H146121   3.888   6.387   0.168 -0.5861  1.4873  0.3332
 8210TIP3    H246122   3.989   6.499   0.155  1.4245 -0.3150 -0.1172
 8211TIP3   OH246123   5.413   1.581  11.007  0.2211  0.5169  0.2511
 8211TIP3    H146124   5.418   1.491  10.976 -0.3341  1.0160 -1.3643
 8211TIP3    H246125   5.406   1.573  11.102 -0.8510 -1.1849  0.0640
 8212TIP3   OH246126   2.276   1.820   3.796 -0.2970  0.3689  0.0531
 8212TIP3    H146127   2.240   1.885   3.857 -1.9189  0.1512 -0.6315
 8212TIP3    H246128   2.215   1.746   3.800 -1.6407  1.1089 -3.2422
 8213TIP3   OH246129   0.387   5.799  11.256 -0.1634 -0.7386 -0.4254
 8213TIP3    H146130   0.407   5.890  11.235  3.4704 -1.2642  0.1226
 8213TIP3    H246131   0.315   5.776  11.197 -0.3248  2.0860 -1.4664
 8214TIP3   OH246132   2.313   1.673  11.739  0.5607 -0.2145 -0.4740
 8214TIP3    H146133   2.292   1.701  11.828 -1.1785 -0.5935 -0.7384
 8214TIP3    H246134   2.281   1.745  11.684 -1.6379 -1.5026 -0.9910
 8215TIP3   OH246135   3.379   5.926  11.670  0.3012  0.5628  0.5790
 8215TIP3    H146136   3.354   5.995  11.730  1.6980  0.2438  1.5596
 8215TIP3    H246137   3.311   5.859  11.681 -0.9122  1.6144 -0.1877
 8216TIP3   OH246138   0.312   0.134   3.962 -0.0520  0.1253  0.4210
 8216TIP3    H146139   0.328   0.098   4.049  0.6309 -1.6909 -0.4034
 8216TIP3    H246140   0.216   0.135   3.955 -0.1493  1.2179  1.5192
 8217TIP3   OH246141   6.327   1.693  12.775 -0.6723 -0.0520 -0.1560
 8217TIP3    H146142   6.234   1.683  12.797 -0.2456 -3.2313  0.7791
 8217TIP3    H246143   6.372   1.685  12.859  0.5211 -0.9011 -0.8429
 8218TIP3   OH246144   1.633   0.522  13.215 -0.2460  0.8367 -0.1953
 8218TIP3    H146145   1.540   0.531  13.237 -0.1386  0.7752  0.2840
 8218TIP3    H246146   1.678   0.580  13.276  0.3299 -1.6138  1.8755
 8219TIP3   OH246147   4.749   2.706  13.428  0.0928  0.2569 -0.0474
 8219TIP3    H146148   4.756   2.782  13.371 -1.7116 -0.2955 -1.0767
 8219TIP3    H246149   4.655   2.696  13.443  0.3711 -1.1371  0.9339
 8220TIP3   OH246150   3.957   0.713   5.151  0.1097 -0.7047  0.1521
 8220TIP3    H146151   4.018   0.682   5.217 -0.8537 -0.0362  1.4033
 8220TIP3    H246152   3.983   0.803   5.133 -0.7847 -0.2318  1.0928
 8221TIP3   OH246153   0.028   6.174  11.395  0.0249 -0.0043 -0.3985
 8221TIP3    H146154  -0.050   6.229  11.384 -0.5049 -0.4938  0.7535
 8221TIP3    H246155  -0.005   6.085  11.394  0.5747 -0.2211  0.0621
 8222TIP3   OH246156   3.612   1.911   1.144 -0.5717 -0.2837  0.3384
 8222TIP3    H146157   3.581   1.998   1.119 -0.2146 -0.1384  0.3997
 8222TIP3    H246158   3.705   1.912   1.126 -0.8503 -1.2412 -1.2730
 8223TIP3   OH246159   1.925   2.506  14.465  0.5407 -0.0389 -0.3030
 8223TIP3    H146160   1.948   2.418  14.434  1.0062  0.4107 -1.2704
 8223TIP3    H246161   1.911   2.557  14.385 -0.5542  0.5606  0.2583
 8224TIP3   OH246162   1.785   0.088   6.217 -0.5253 -0.4486 -0.2596
 8224TIP3    H146163   1.730   0.133   6.152 -0.7117 -1.3573 -0.7558
 8224TIP3    H246164   1.834   0.158   6.260 -2.3370  0.4328  0.4623
 8225TIP3   OH246165   6.571   2.006   5.849  0.1946  0.0690 -0.3162
 8225TIP3    H146166   6.662   1.978   5.838 -0.3909 -1.9281 -0.4768
 8225TIP3    H246167   6.575   2.082   5.908  1.8948 -0.4167  0.2221
 8226TIP3   OH246168   3.796   2.896  16.517  0.0077 -0.8062  0.7917
 8226TIP3    H146169   3.866   2.866  16.574 -1.5857 -2.6107  1.8765
 8226TIP3    H246170   3.721   2.910  16.574 -0.3721  1.9752 -0.1949
 8227TIP3   OH246171   5.462   2.971   5.615 -0.0889  0.1886 -0.0992
 8227TIP3    H146172   5.538   2.922   5.583 -0.3370 -1.7031  2.0055
 8227TIP3    H246173   5.403   2.975   5.540  1.0357 -0.5059 -1.0577
 8228TIP3   OH246174   3.199   1.438  16.114  0.3534  0.3902 -0.3717
 8228TIP3    H146175   3.235   1.524  16.135  0.1517  0.1853  0.8750
 8228TIP3    H246176   3.168   1.404  16.198 -0.2986 -0.5611 -0.9839
 8229TIP3   OH246177   4.222   3.312   0.086  0.1191  0.3690  0.4781
 8229TIP3    H146178   4.227   3.220   0.111 -1.7003  0.6646  2.1928
 8229TIP3    H246179   4.162   3.313   0.011  0.7990  0.1022 -0.0839
 8230TIP3   OH246180   1.931   5.776  12.420  0.0304 -0.0413 -0.0527
 8230TIP3    H146181   1.853   5.723  12.401  0.0777  0.0658 -0.5570
 8230TIP3    H246182   1.991   5.756  12.348 -0.2338  1.2410 -0.6611
 8231TIP3   OH246183   3.513   5.352   5.226 -0.1971  0.3416 -0.2944
 8231TIP3    H146184   3.488   5.339   5.318 -1.3676  0.3319 -0.5972
 8231TIP3    H246185   3.605   5.327   5.223  0.3969  2.0764  1.2543
 8232TIP3   OH246186   3.252   3.978  12.300  0.4044 -0.5940 -0.4029
 8232TIP3    H146187   3.228   3.896  12.256  0.4978 -1.9535  1.9385
 8232TIP3    H246188   3.344   3.966  12.323 -0.1774 -0.8843  2.0134
 8233TIP3   OH246189   1.714   6.128  12.747  0.5389 -0.1929  0.0435
 8233TIP3    H146190   1.633   6.113  12.796  0.0705  0.9548 -0.3594
 8233TIP3    H246191   1.717   6.057  12.683  1.0674 -1.6109  1.5616
 8234TIP3   OH246192   2.606   1.940  13.673 -0.5561  0.0407 -0.2293
 8234TIP3    H146193   2.652   1.942  13.589  1.2069  1.1532  0.6895
 8234TIP3    H246194   2.544   2.012  13.669  0.8847  1.3453  0.0939
 8235TIP3   OH246195   0.692   0.481   0.943 -0.3712  0.2282 -0.1045
 8235TIP3    H146196   0.633   0.473   1.017 -3.2192 -1.1746 -2.3317
 8235TIP3    H246197   0.758   0.413   0.957 -0.6308  0.2411  1.2904
 8236TIP3   OH246198   1.656   3.576  16.256 -0.6693  0.9572  0.0334
 8236TIP3    H146199   1.715   3.578  16.331  0.0350 -0.9410 -0.4202
 8236TIP3    H246200   1.575   3.539  16.289 -0.1684 -0.4181 -0.2411
 8237TIP3   OH246201   6.480   3.964  11.574 -0.3516 -0.6191  0.0561
 8237TIP3    H146202   6.441   4.051  11.579  0.7150 -0.1190 -0.1842
 8237TIP3    H246203   6.456   3.932  11.487  0.5291  0.0604 -0.4503
 8238TIP3   OH246204   1.497   4.339   1.700 -0.0591 -0.6530 -0.1099
 8238TIP3    H146205   1.473   4.428   1.674  0.4023 -0.2354  0.8291
 8238TIP3    H246206   1.523   4.348   1.792 -0.9234 -1.9221  0.2883
 8239TIP3   OH246207   2.642   2.942   5.732  0.1916  0.5643  1.1435
 8239TIP3    H146208   2.716   2.987   5.691 -0.0708 -0.3122 -0.3781
 8239TIP3    H246209   2.585   3.013   5.761  0.9216  1.2401  0.9867
 8240TIP3   OH246210   5.748   2.070  16.331  0.8186  0.1714 -0.4120
 8240TIP3    H146211   5.717   1.992  16.286  0.5548  0.5041 -0.8164
 8240TIP3    H246212   5.681   2.088  16.397  0.8871  0.0425 -0.3090
 8241TIP3   OH246213   6.209   4.232   4.633 -0.7636 -0.0216  0.1929
 8241TIP3    H146214   6.136   4.259   4.688 -0.9069 -1.3938  0.6960
 8241TIP3    H246215   6.168   4.205   4.551 -0.6043  1.3809 -0.3789
 8242TIP3   OH246216   5.182   5.377   3.994  0.4083 -0.2649 -0.4360
 8242TIP3    H146217   5.194   5.468   3.969  1.9250 -0.5009 -0.6744
 8242TIP3    H246218   5.114   5.345   3.935 -1.0797  1.0206  0.5176
 8243TIP3   OH246219   6.380   3.809   3.950 -0.2507  0.0917 -0.4500
 8243TIP3    H146220   6.359   3.740   3.887 -2.2750 -1.1872  1.4428
 8243TIP3    H246221   6.432   3.764   4.017 -0.4462  0.7271  0.1388
 8244TIP3   OH246222   3.588   6.765   1.478 -0.4354  0.4619 -0.4574
 8244TIP3    H146223   3.639   6.704   1.425  1.0796  1.1159  0.1645
 8244TIP3    H246224   3.507   6.778   1.430  0.3334  0.0149 -1.9247
 8245TIP3   OH246225   5.421   2.489  17.049  0.1890 -0.1043 -0.0578
 8245TIP3    H146226   5.452   2.424  17.111  1.5886 -0.2611 -0.8742
 8245TIP3    H246227   5.378   2.555  17.103 -0.2673 -1.1470  0.8857
 8246TIP3   OH246228   6.653   4.856   2.722  0.1069 -0.0404  0.7367
 8246TIP3    H146229   6.612   4.785   2.672  0.0688 -0.4100  1.2854
 8246TIP3    H246230   6.629   4.838   2.813 -0.5085  1.0736  0.8210
 8247TIP3   OH246231   6.512   0.630   1.656  0.1074  0.3059 -0.1409
 8247TIP3    H146232   6.563   0.576   1.716 -0.3624 -0.3803 -0.3543
 8247TIP3    H246233   6.486   0.706   1.708  4.5270  2.6930 -0.9782
 8248TIP3   OH246234   5.098   3.663  16.981 -0.3558 -0.0619  0.1293
 8248TIP3    H146235   5.080   3.572  16.960 -2.7033  0.6911 -1.5202
 8248TIP3    H246236   5.160   3.692  16.915 -1.6809  0.2067 -1.0329
 8249TIP3   OH246237   0.416   0.940  12.438 -0.5137  0.6473 -0.3075
 8249TIP3    H146238   0.496   0.919  12.389  1.1439  0.6816  2.1571
 8249TIP3    H246239   0.372   1.006  12.385  1.9029  1.7808 -1.0879
 8250TIP3   OH246240   5.354   6.087  16.112  0.0749  0.3660 -0.5247
 8250TIP3    H146241   5.419   6.131  16.166  2.3492 -0.1374 -2.6749
 8250TIP3    H246242   5.397   6.006  16.084 -1.5207 -0.0227 -2.0202
 8251TIP3   OH246243   0.644   0.809  15.584 -0.3804  0.3040 -0.2551
 8251TIP3    H146244   0.575   0.820  15.649  0.0832  0.4302  0.2165
 8251TIP3    H246245   0.599   0.772  15.508 -0.7333 -0.9068  0.5099
 8252TIP3   OH246246   5.677   0.096  17.131  0.5949  0.2325 -0.4576
 8252TIP3    H146247   5.650   0.172  17.079  1.1351  0.9749  0.3289
 8252TIP3    H246248   5.623   0.025  17.097 -2.7577  1.6788  1.2865
 8253TIP3   OH246249   2.573   1.925   1.741  0.3081 -0.2482 -0.6083
 8253TIP3    H146250   2.502   1.868   1.770 -0.1322 -0.2465 -1.6266
 8253TIP3    H246251   2.637   1.867   1.701  1.2205 -0.3234  0.9046
 8254TIP3   OH246252   2.134   2.292   5.997 -0.2188  0.6866  0.2472
 8254TIP3    H146253   2.069   2.361   6.006 -0.3209  0.4576  1.3913
 8254TIP3    H246254   2.212   2.326   6.041  0.0876  0.5235 -0.1638
 8255TIP3   OH246255   3.867   5.921   6.681 -0.3309 -0.1483  0.0200
 8255TIP3    H146256   3.805   5.848   6.671 -0.6942  0.2753 -0.9341
 8255TIP3    H246257   3.950   5.879   6.702 -1.0817 -0.6973  2.2454
 8256TIP3   OH246258   1.480   2.335   1.900  0.0793  0.0189  0.4142
 8256TIP3    H146259   1.530   2.375   1.829  0.6147  0.4014  0.9946
 8256TIP3    H246260   1.397   2.384   1.901 -1.1047 -1.7649 -1.7006
 8257TIP3   OH246261   3.605   4.265   3.322  0.1673  0.0139  0.0864
 8257TIP3    H146262   3.587   4.352   3.358  1.6593 -0.4764  2.1984
 8257TIP3    H246263   3.563   4.204   3.382  1.9028 -0.8084  0.5267
 8258TIP3   OH246264   0.517   5.781   0.721  0.7694 -0.1210  0.5371
 8258TIP3    H146265   0.510   5.717   0.650 -0.1405  1.0647 -0.4878
 8258TIP3    H246266   0.429   5.786   0.758  1.2301 -0.7068  1.7616
 8259TIP3   OH246267   3.566   4.410   4.652  0.2809 -0.0255 -0.0153
 8259TIP3    H146268   3.590   4.476   4.718  2.0338 -0.0123 -0.6222
 8259TIP3    H246269   3.608   4.439   4.572  0.0041 -1.1967 -0.6131
 8260TIP3   OH246270   5.542   3.764  15.638  0.0194 -0.6873 -0.4321
 8260TIP3    H146271   5.577   3.678  15.658  2.1298 -0.0112 -0.9633
 8260TIP3    H246272   5.618   3.817  15.615 -1.1416  1.4791  0.3440
 8261TIP3   OH246273   1.503   1.918   6.177  0.5065  0.5233 -0.2735
 8261TIP3    H146274   1.460   1.897   6.259  0.7240 -1.3169 -0.5963
 8261TIP3    H246275   1.595   1.897   6.191  0.6125  0.5508 -0.8656
 8262TIP3   OH246276   3.208   2.499  14.213  0.2821  0.0622 -0.1080
 8262TIP3    H146277   3.124   2.455  14.203  0.3333 -0.4677  1.5723
 8262TIP3    H246278   3.259   2.443  14.271  1.1361  1.2637  0.3576
 8263TIP3   OH246279   5.890   0.565   2.543 -0.4446 -0.6747  0.6278
 8263TIP3    H146280   5.941   0.509   2.485  0.8917  0.1201  0.9967
 8263TIP3    H246281   5.801   0.563   2.506  0.4575  0.2751 -1.8132
 8264TIP3   OH246282   2.906   1.290   0.740 -0.1166 -0.4308 -0.0781
 8264TIP3    H146283   2.824   1.269   0.697  0.2298 -0.4014 -0.7716
 8264TIP3    H246284   2.881   1.339   0.818 -0.7277  0.1601 -0.6349
 8265TIP3   OH246285   0.492   0.414   0.278  0.0195 -0.3066  0.1194
 8265TIP3    H146286   0.580   0.413   0.240  0.2945  0.5361  0.6996
 8265TIP3    H246287   0.435   0.445   0.207  0.0302 -1.7230 -0.5361
 8266TIP3   OH246288   1.878   0.038  10.697 -0.2726  0.1809  0.2027
 8266TIP3    H146289   1.879  -0.054  10.722  0.5279  0.5369  1.5863
 8266TIP3    H246290   1.800   0.074  10.740 -0.1746  0.3001  0.2837
 8267TIP3   OH246291   6.484   3.471  15.231 -0.7465 -1.3847  0.5250
 8267TIP3    H146292   6.409   3.506  15.278 -0.4048 -0.4779  0.4173
 8267TIP3    H246293   6.509   3.392  15.280  0.9829  0.6784  3.3091
 8268TIP3   OH246294   2.759   2.696   5.082 -0.0464  0.1302  0.0003
 8268TIP3    H146295   2.708   2.720   5.004 -0.1265 -0.4888 -0.1433
 8268TIP3    H246296   2.849   2.686   5.049 -0.3993 -2.1084 -0.4491
 8269TIP3   OH246297   2.685   6.640   4.240  0.6887  0.0253 -0.7628
 8269TIP3    H146298   2.775   6.661   4.267  0.9596  1.2678 -2.4847
 8269TIP3    H246299   2.696   6.581   4.166  0.1266  1.0092 -1.6479
 8270TIP3   OH246300   4.816   2.023  14.276 -0.5365 -0.3033  0.6207
 8270TIP3    H146301   4.891   2.007  14.334 -1.0527  0.7355  1.6172
 8270TIP3    H246302   4.820   1.952  14.212  1.1862 -0.3656  0.7572
 8271TIP3   OH246303   1.548   2.802   3.186  0.4863  0.0428  0.2785
 8271TIP3    H146304   1.617   2.868   3.179  0.6311 -0.1084  0.2585
 8271TIP3    H246305   1.522   2.784   3.095 -0.1027  0.6414  0.3253
 8272TIP3   OH246306   0.577   0.667   5.524  0.5016  0.0654  0.1662
 8272TIP3    H146307   0.543   0.624   5.446  1.5999 -0.9093  0.1895
 8272TIP3    H246308   0.672   0.666   5.512  0.6563  0.4039  1.2594
 8273TIP3   OH246309   3.984   2.419   4.441 -0.4155  0.7655  0.1676
 8273TIP3    H146310   3.969   2.498   4.492  2.1563  1.0667  0.6065
 8273TIP3    H246311   3.915   2.358   4.469 -0.2466  1.5856  2.5669
 8274TIP3   OH246312   2.732   3.582  14.470 -0.9886 -0.4725 -0.1764
 8274TIP3    H146313   2.666   3.631  14.421  0.3265  0.8114 -0.7835
 8274TIP3    H246314   2.781   3.649  14.517 -0.9298 -1.5131  1.3054
 8275TIP3   OH246315   5.536   1.286  15.099 -0.5446 -0.0390  0.4347
 8275TIP3    H146316   5.507   1.195  15.100  0.7312 -0.4914 -0.9716
 8275TIP3    H246317   5.491   1.325  15.025 -0.1718  0.1607  0.3121
 8276TIP3   OH246318   6.280   3.520  10.606 -0.5496 -0.0336 -0.2538
 8276TIP3    H146319   6.195   3.523  10.562  0.2111  2.2561 -1.7468
 8276TIP3    H246320   6.264   3.563  10.690 -0.4820  2.5746 -1.4721
 8277TIP3   OH246321   3.233   1.976   0.156  0.0301 -0.0806 -0.2790
 8277TIP3    H146322   3.295   2.025   0.209  1.7041 -0.9702 -1.3136
 8277TIP3    H246323   3.249   2.005   0.066 -1.8648  0.4749 -0.4930
 8278TIP3   OH246324   6.475   3.362   2.756 -0.3810  0.1336  0.0227
 8278TIP3    H146325   6.476   3.275   2.796 -1.3256  0.2717  0.3596
 8278TIP3    H246326   6.518   3.418   2.821  1.2243 -0.2470 -0.6502
 8279TIP3   OH246327   2.596   5.736   6.654 -0.3790 -0.0136  0.1722
 8279TIP3    H146328   2.683   5.718   6.618 -0.5934  1.7927 -1.3811
 8279TIP3    H246329   2.613   5.786   6.734  0.0046 -0.7517  0.5707
 8280TIP3   OH246330   3.639   2.596  16.031 -0.2152 -0.7168  0.1313
 8280TIP3    H146331   3.617   2.620  15.941 -0.1586  0.3061  0.3802
 8280TIP3    H246332   3.734   2.580  16.029 -0.3114 -1.3074 -0.1092
 8281TIP3   OH246333   4.081   6.311   1.251  0.0751 -0.6086  0.1406
 8281TIP3    H146334   4.069   6.217   1.265 -0.5224 -0.5659 -0.0535
 8281TIP3    H246335   4.176   6.323   1.248  0.1710 -1.1018  0.8752
 8282TIP3   OH246336   4.440   5.760   1.335 -0.2451 -0.7601  0.8163
 8282TIP3    H146337   4.425   5.826   1.267 -1.4939 -0.8772  0.9546
 8282TIP3    H246338   4.456   5.679   1.287 -2.9636 -1.2576  0.5734
 8283TIP3   OH246339   4.940   2.193   1.144 -0.0746  0.0519 -0.5567
 8283TIP3    H146340   5.019   2.169   1.096  1.2054 -0.7149  1.7623
 8283TIP3    H246341   4.898   2.110   1.165 -0.1990  0.3060  0.2505
 8284TIP3   OH246342   2.946   4.900   2.226  0.1902 -0.0022 -0.0617
 8284TIP3    H146343   2.883   4.852   2.172  1.6597  0.5359 -2.4455
 8284TIP3    H246344   3.029   4.856   2.211  0.9116  1.0929  0.5685
 8285TIP3   OH246345   1.162   6.624   3.072 -0.4155  0.6260 -0.5752
 8285TIP3    H146346   1.121   6.671   3.000  1.8322  1.3804 -1.4659
 8285TIP3    H246347   1.198   6.693   3.128 -1.3389  0.0261  0.7916
 8286TIP3   OH246348   3.723   0.785  13.442  0.1595 -0.2055  0.2237
 8286TIP3    H146349   3.782   0.717  13.409 -1.5427 -2.2350  1.1719
 8286TIP3    H246350   3.660   0.799  13.371  0.1297 -0.0680  0.2776
 8287TIP3   OH246351   0.880   0.697   1.139  0.1210  0.5098 -0.5162
 8287TIP3    H146352   0.895   0.629   1.073  2.1906  3.0240 -2.8692
 8287TIP3    H246353   0.947   0.681   1.206 -0.5257 -0.7302 -0.1440
 8288TIP3   OH246354   1.489   4.027  11.354  0.7373  0.0292  0.1338
 8288TIP3    H146355   1.576   3.997  11.328  0.3088 -1.0037 -0.1702
 8288TIP3    H246356   1.430   3.958  11.323 -0.0391 -0.0738  1.7601
 8289TIP3   OH246357   4.862   3.882   0.821 -0.4493  0.2825 -0.1239
 8289TIP3    H146358   4.933   3.944   0.837  0.1229 -0.2163 -0.6726
 8289TIP3    H246359   4.784   3.924   0.859  0.4377  0.0771  2.1067
 8290TIP3   OH246360   3.850   2.558  16.756 -0.5232 -0.1967 -0.0024
 8290TIP3    H146361   3.754   2.550  16.757 -0.4298 -1.7747 -0.4487
 8290TIP3    H246362   3.874   2.543  16.665  0.1864 -0.3703  0.2074
 8291TIP3   OH246363   5.142   6.789  12.153  0.1329 -0.1211  0.2305
 8291TIP3    H146364   5.092   6.707  12.153 -0.7120  0.3758  0.8174
 8291TIP3    H246365   5.079   6.855  12.183  1.0658  0.5748  0.6970
 8292TIP3   OH246366   3.966   0.010   5.440 -0.1643  0.2295 -0.2154
 8292TIP3    H146367   3.930   0.085   5.487 -3.8979 -2.6253  2.0875
 8292TIP3    H246368   4.030  -0.027   5.500 -0.7453 -0.2132  0.1440
 8293TIP3   OH246369   5.852   1.362  12.924  0.0355  0.0580  0.5840
 8293TIP3    H146370   5.769   1.374  12.877 -0.2194 -2.6842  0.1526
 8293TIP3    H246371   5.838   1.283  12.976  2.7441 -1.2121 -0.4501
 8294TIP3   OH246372   1.790   0.761  14.526 -0.1055  0.2522  0.1536
 8294TIP3    H146373   1.826   0.842  14.561  1.3305 -0.7967  1.2441
 8294TIP3    H246374   1.711   0.745  14.578  0.5514  0.0896  1.1243
 8295TIP3   OH246375   3.518   3.636   6.196  0.0475 -0.0897  0.0153
 8295TIP3    H146376   3.536   3.582   6.274 -2.4787 -1.3740 -0.1848
 8295TIP3    H246377   3.480   3.716   6.231  2.1959  0.9066  0.2193
 8296TIP3   OH246378   3.477   5.752   2.453 -0.1428 -0.0632 -0.0419
 8296TIP3    H146379   3.467   5.657   2.460  1.4484 -0.3511 -1.1456
 8296TIP3    H246380   3.572   5.766   2.450 -0.3475  1.5836  0.2354
 8297TIP3   OH246381   3.155   1.771  11.478  0.2392  0.3786 -0.0082
 8297TIP3    H146382   3.125   1.852  11.436  1.1160  1.0016  0.5335
 8297TIP3    H246383   3.075   1.722  11.494 -0.2290  0.6910 -1.2398
 8298TIP3   OH246384   6.718   1.447   5.999  0.2777 -0.0127  0.1578
 8298TIP3    H146385   6.717   1.465   6.094  0.4489  1.0238 -0.0230
 8298TIP3    H246386   6.669   1.366   5.990 -1.1533  0.7128  0.9896
 8299TIP3   OH246387   5.975   4.531   4.811  0.1080 -0.1324  0.3644
 8299TIP3    H146388   6.000   4.612   4.766  0.0906 -0.4510 -0.2235
 8299TIP3    H246389   6.000   4.546   4.903  0.3142  0.4463  0.2178
 8300TIP3   OH246390   3.131   0.830   3.021  0.2658  0.2613 -0.6270
 8300TIP3    H146391   3.037   0.846   3.032  0.7245  3.0620 -0.0988
 8300TIP3    H246392   3.158   0.790   3.103 -0.3022  0.2390 -0.4423
 8301TIP3   OH246393   2.903   6.222   0.361  0.2190  0.4744  0.7476
 8301TIP3    H146394   2.988   6.261   0.336  0.7392 -1.3113 -0.4667
 8301TIP3    H246395   2.903   6.137   0.318 -2.0528  0.2719  1.0667
 8302TIP3   OH246396   3.683   0.029  13.931 -0.3440  0.0756  0.0722
 8302TIP3    H146397   3.704  -0.011  13.847 -2.1425 -1.6160  0.3567
 8302TIP3    H246398   3.749   0.097  13.943  1.3306 -1.1763 -1.6173
 8303TIP3   OH246399   0.941   0.070   0.009  0.2232  0.2167 -0.3794
 8303TIP3    H146400   0.975   0.159   0.017  0.3389  0.1086  0.5092
 8303TIP3    H246401   0.872   0.066   0.075  0.8417 -0.6301  0.2369
 8304TIP3   OH246402   5.945   6.462   3.087  0.8034 -0.7235  0.1674
 8304TIP3    H146403   5.921   6.500   3.002 -0.7501 -1.6675  0.1522
 8304TIP3    H246404   6.041   6.461   3.086  0.8654  1.2466 -0.6737
 8305TIP3   OH246405   0.159   5.508   5.842  0.4870  0.0004  0.3565
 8305TIP3    H146406   0.164   5.576   5.909  2.1309  0.3011 -0.0143
 8305TIP3    H246407   0.175   5.553   5.760 -2.4927 -0.2105 -0.4332
 8306TIP3   OH246408   1.590   0.035  10.574 -0.5895 -0.1562  0.2576
 8306TIP3    H146409   1.669   0.047  10.521 -0.5259 -0.9639  0.1550
 8306TIP3    H246410   1.607   0.085  10.654 -1.0185  1.7602 -0.7713
 8307TIP3   OH246411   6.037   1.386   5.464  0.3135  0.2618  0.1883
 8307TIP3    H146412   6.122   1.345   5.480  0.5915  1.1664  1.1318
 8307TIP3    H246413   6.058   1.474   5.432 -0.2705 -0.3635 -2.0730
 8308TIP3   OH246414   2.034   5.160  12.399  0.7049 -0.6656  0.2653
 8308TIP3    H146415   2.122   5.143  12.367 -0.1543 -0.0386 -2.7264
 8308TIP3    H246416   1.978   5.152  12.322 -1.4859  1.7660  1.4236
 8309TIP3   OH246417   2.073   0.206  10.603  0.1633  0.5216 -0.1875
 8309TIP3    H146418   2.012   0.134  10.618  0.6494 -0.3887 -2.1884
 8309TIP3    H246419   2.026   0.284  10.634 -0.0088 -0.6890  2.8961
 8310TIP3   OH246420   1.321   2.266  11.533 -0.6996  0.2926  0.2364
 8310TIP3    H146421   1.309   2.242  11.625 -0.4624  1.5126  0.6193
 8310TIP3    H246422   1.414   2.289  11.527 -0.1570 -1.9722 -0.8816
 8311TIP3   OH246423   0.526   5.730   5.689  0.4641  0.1664  0.8738
 8311TIP3    H146424   0.494   5.813   5.724 -0.0173  0.0339  0.7561
 8311TIP3    H246425   0.469   5.710   5.615 -0.2626 -0.8958  1.6785
 8312TIP3   OH246426   1.488   2.207  15.594 -0.7211 -0.4346 -0.0644
 8312TIP3    H146427   1.548   2.168  15.531 -0.7261  0.2875 -0.5313
 8312TIP3    H246428   1.541   2.271  15.642 -1.1039  0.2296 -0.5014
 8313TIP3   OH246429   5.526   6.523   4.687  0.2898  0.0023  0.4520
 8313TIP3    H146430   5.503   6.603   4.640  0.0422  0.4043  1.2379
 8313TIP3    H246431   5.591   6.480   4.631 -0.3516  0.2227 -0.4779
 8314TIP3   OH246432   5.727   2.575  12.398  0.3339 -0.3374  0.0728
 8314TIP3    H146433   5.668   2.640  12.360 -1.2373 -0.5639  1.9879
 8314TIP3    H246434   5.807   2.624  12.416 -0.7325  1.0810  1.2420
 8315TIP3   OH246435   4.020   4.924   0.853  0.1423 -0.3171  0.1533
 8315TIP3    H146436   3.933   4.915   0.815  1.0918  1.7704 -2.8637
 8315TIP3    H246437   4.061   4.838   0.841 -1.1701 -1.0829  0.8996
 8316TIP3   OH246438   2.685   1.838   0.510 -0.2207 -0.1580 -0.0513
 8316TIP3    H146439   2.614   1.774   0.503 -2.3846  2.2146 -1.5089
 8316TIP3    H246440   2.673   1.876   0.597 -1.2919  0.7681 -0.5793
 8317TIP3   OH246441   1.198   6.477   3.560  0.2602 -0.2134 -0.1750
 8317TIP3    H146442   1.140   6.491   3.486 -0.4748 -0.8289  0.2690
 8317TIP3    H246443   1.140   6.470   3.635  0.7438 -2.5585  0.0546
 8318TIP3   OH246444   0.738   1.323  14.668 -0.4323  0.3628 -0.0773
 8318TIP3    H146445   0.770   1.401  14.623 -1.7688 -0.7655 -3.2405
 8318TIP3    H246446   0.643   1.331  14.663 -0.5807 -1.2674 -0.1301
 8319TIP3   OH246447   0.696   4.940   4.258 -0.3154 -0.1974  0.2269
 8319TIP3    H146448   0.695   4.852   4.219  3.6284 -0.1530 -0.3969
 8319TIP3    H246449   0.743   4.929   4.340 -1.3349  1.1203  1.0223
 8320TIP3   OH246450   6.678   5.023  11.200 -0.3266  0.2145  0.1594
 8320TIP3    H146451   6.754   5.078  11.220 -1.1770  1.0885  1.0843
 8320TIP3    H246452   6.635   5.067  11.126 -0.1161 -0.1092 -0.1606
 8321TIP3   OH246453   5.873   6.252  13.217  0.0748 -0.0754 -0.0340
 8321TIP3    H146454   5.814   6.275  13.146 -1.5182 -0.7467  1.0071
 8321TIP3    H246455   5.952   6.305  13.202 -1.4565  2.1891 -0.5127
 8322TIP3   OH246456   2.792   0.455  15.832  0.3974  0.1720  0.4545
 8322TIP3    H146457   2.737   0.515  15.782  0.4824 -1.9109 -2.3898
 8322TIP3    H246458   2.730   0.404  15.884  0.1687  1.3494  1.3867
 8323TIP3   OH246459   2.044   3.646  13.941 -0.2811  0.4137 -0.0881
 8323TIP3    H146460   2.008   3.648  14.029 -0.3233 -0.5196 -0.0709
 8323TIP3    H246461   2.124   3.698  13.946  0.1517 -0.3126  0.7064
 8324TIP3   OH246462   2.799   1.768   1.698  0.2450 -0.3309  0.3485
 8324TIP3    H146463   2.819   1.805   1.784 -1.5503  1.7479 -0.0152
 8324TIP3    H246464   2.828   1.836   1.637 -1.3031 -0.4017 -0.4937
 8325TIP3   OH246465   1.564   1.354  14.607 -0.2552  0.2332  0.0884
 8325TIP3    H146466   1.469   1.351  14.606 -0.2358 -0.7082 -0.5103
 8325TIP3    H246467   1.585   1.441  14.641 -1.3172  0.3502  0.4850
 8326TIP3   OH246468   5.348   5.199   1.706 -0.3858  0.4347 -0.1984
 8326TIP3    H146469   5.421   5.151   1.745  2.5454  3.1372 -1.8748
 8326TIP3    H246470   5.321   5.146   1.632  0.0050 -0.5080  0.3187
 8327TIP3   OH246471   0.558   5.699   5.165  0.3213  0.2447  0.4452
 8327TIP3    H146472   0.503   5.638   5.214  1.9662 -0.0585  2.0096
 8327TIP3    H246473   0.496   5.755   5.120 -1.2622 -1.8506 -0.1629
 8328TIP3   OH246474   2.008   1.933   5.064  0.4330  0.1266  0.3809
 8328TIP3    H146475   1.958   1.863   5.024  0.5639 -0.2221  0.8172
 8328TIP3    H246476   2.078   1.888   5.113 -0.7814  0.4053  2.5050
 8329TIP3   OH246477   4.546   5.128  16.392  0.5422 -0.1396  0.2356
 8329TIP3    H146478   4.503   5.110  16.475 -2.0483 -0.4269 -1.0659
 8329TIP3    H246479   4.532   5.221  16.377 -1.6188 -0.6054 -1.1438
 8330TIP3   OH246480   6.153   6.149   4.914 -0.0374  0.4323 -0.7037
 8330TIP3    H146481   6.217   6.078   4.913  1.9914  2.1310 -0.0105
 8330TIP3    H246482   6.187   6.212   4.851 -0.2809  1.9494  0.6194
 8331TIP3   OH246483   0.089   2.405   5.230  0.5638  0.4119 -0.0810
 8331TIP3    H146484   0.066   2.497   5.242  0.7607  0.5015 -0.3842
 8331TIP3    H246485   0.062   2.363   5.311 -0.5154  0.5462 -0.3439
 8332TIP3   OH246486   3.842   1.002  13.893  0.1380 -0.1991 -0.5618
 8332TIP3    H146487   3.894   1.059  13.836  0.6001 -1.0408 -1.0018
 8332TIP3    H246488   3.870   0.913  13.871  0.2786 -0.5594  0.9410
 8333TIP3   OH246489   3.493   0.859  12.064 -0.3935 -0.3665  0.2385
 8333TIP3    H146490   3.581   0.831  12.089 -0.2603 -0.5683 -0.4318
 8333TIP3    H246491   3.480   0.821  11.977 -0.4881  1.0599 -0.3892
 8334TIP3   OH246492   2.927   6.775  11.489  0.1678 -0.2795  0.1433
 8334TIP3    H146493   2.892   6.818  11.411  1.1653  0.6115  0.1623
 8334TIP3    H246494   2.955   6.689  11.459 -2.6164 -1.3388  0.2767
 8335TIP3   OH246495   5.336   3.534  11.702 -0.8029 -0.4083 -0.2791
 8335TIP3    H146496   5.330   3.483  11.783 -0.1786 -0.5364 -0.3109
 8335TIP3    H246497   5.401   3.602  11.721 -0.1130 -0.8812 -0.9125
 8336TIP3   OH246498   4.875   1.189  16.992 -0.1671  0.2660  0.1267
 8336TIP3    H146499   4.930   1.264  16.969  0.8541 -0.3223  0.5821
 8336TIP3    H246500   4.818   1.177  16.915  1.6316 -0.2638 -1.1866
 8337TIP3   OH246501   4.694   4.795  16.306 -0.6062  0.0551 -0.0760
 8337TIP3    H146502   4.778   4.787  16.260 -0.1643  1.4510  0.4295
 8337TIP3    H246503   4.640   4.849  16.248 -0.7972  0.0306  0.0778
 8338TIP3   OH246504   5.738   0.212  12.787 -0.1206 -0.5803 -0.5100
 8338TIP3    H146505   5.801   0.262  12.736  3.2005 -2.3447  1.5529
 8338TIP3    H246506   5.744   0.248  12.875  0.0422 -2.5366  0.3221
 8339TIP3   OH246507   1.817   4.886  14.236  0.4076 -0.6730  0.2399
 8339TIP3    H146508   1.726   4.914  14.239  0.8917  1.1241 -0.5693
 8339TIP3    H246509   1.822   4.830  14.158  0.0486 -0.6030  0.1649
 8340TIP3   OH246510   2.406   0.900   6.460  0.2856 -0.0468 -0.2867
 8340TIP3    H146511   2.319   0.908   6.498  0.8240  1.1831  0.7981
 8340TIP3    H246512   2.458   0.857   6.527  0.5269 -0.8175 -0.9460
 8341TIP3   OH246513   5.805   0.123  11.221 -0.6122 -0.3419  0.3422
 8341TIP3    H146514   5.749   0.050  11.195  0.0493 -0.1475 -1.7990
 8341TIP3    H246515   5.759   0.201  11.190 -0.8567  0.1163  1.7816
 8342TIP3   OH246516   1.766   4.439   1.704  0.8392  0.2264 -0.0584
 8342TIP3    H146517   1.675   4.452   1.677  0.6592  2.2422  1.3323
 8342TIP3    H246518   1.768   4.350   1.739 -1.2960  1.0312  2.3492
 8343TIP3   OH246519   4.209   4.392  12.025 -0.4697 -0.0134 -0.9101
 8343TIP3    H146520   4.161   4.366  12.103  0.4437  0.5807 -0.1272
 8343TIP3    H246521   4.206   4.316  11.968  1.0751 -1.4289  0.7777
 8344TIP3   OH246522   6.647   6.170  11.652  0.1330  0.4557 -0.0984
 8344TIP3    H146523   6.611   6.109  11.715  0.4661 -0.2396 -0.5657
 8344TIP3    H246524   6.670   6.116  11.576 -1.3674  1.4241 -1.3127
 8345TIP3   OH246525   1.917   1.783  15.081  0.0403 -0.0445 -0.1916
 8345TIP3    H146526   1.848   1.720  15.103 -0.6545  0.7240 -0.1288
 8345TIP3    H246527   1.996   1.749  15.124 -0.6172 -0.1642  0.9359
 8346TIP3   OH246528   4.095   2.589   1.360 -0.3866  0.1169 -0.0633
 8346TIP3    H146529   4.178   2.555   1.324  0.0839  1.8448 -0.7185
 8346TIP3    H246530   4.078   2.534   1.437  0.9198 -0.8206 -0.4021
 8347TIP3   OH246531   6.313   6.742   2.555 -0.0254 -0.4150 -0.6052
 8347TIP3    H146532   6.322   6.825   2.601  0.7864 -0.6326 -0.3522
 8347TIP3    H246533   6.227   6.709   2.581 -0.2192  0.2001 -0.4683
 8348TIP3   OH246534   4.635   6.360   6.002 -0.3600  0.2706  0.0994
 8348TIP3    H146535   4.578   6.285   5.987 -0.3836  0.5339 -1.1844
 8348TIP3    H246536   4.631   6.411   5.921  1.7026  0.2956 -0.0370
 8349TIP3   OH246537   0.201   6.472   5.631  0.1515  0.0248  0.0614
 8349TIP3    H146538   0.148   6.423   5.694  0.3047  0.1298  0.2730
 8349TIP3    H246539   0.279   6.497   5.680 -1.1056  2.8570  0.8621
 8350TIP3   OH246540   6.606   6.256  14.580  0.3722  0.2949 -0.1862
 8350TIP3    H146541   6.637   6.167  14.599  0.2566  0.2126 -0.3759
 8350TIP3    H246542   6.550   6.278  14.654 -0.8001 -0.3765 -0.8480
 8351TIP3   OH246543   0.628   1.332   1.182  0.3603 -0.4044  0.1153
 8351TIP3    H146544   0.682   1.253   1.173 -2.1902 -2.1088 -2.3318
 8351TIP3    H246545   0.539   1.298   1.194 -1.0991  1.9352 -2.6342
 8352TIP3   OH246546   3.707   5.381  15.577 -0.0583 -0.0357  0.2558
 8352TIP3    H146547   3.771   5.413  15.514  0.4789 -1.6787 -0.0590
 8352TIP3    H246548   3.681   5.295  15.545  0.0640 -0.8314  2.1376
 8353TIP3   OH246549   2.800   3.451  17.145  0.0660 -0.9998  0.3514
 8353TIP3    H146550   2.718   3.464  17.097  0.4298 -1.2766 -0.3552
 8353TIP3    H246551   2.839   3.538  17.149  1.8532 -1.4591 -3.2046
 8354TIP3   OH246552   5.148   5.229   4.232 -0.4191 -0.4151  0.1320
 8354TIP3    H146553   5.151   5.298   4.298 -2.9870  0.8621 -0.9583
 8354TIP3    H246554   5.164   5.274   4.149  1.0815 -1.7080 -0.3347
 8355TIP3   OH246555   3.836   1.616   3.408  0.2500 -0.2653 -0.3677
 8355TIP3    H146556   3.778   1.624   3.333  0.0765 -0.7470 -0.2865
 8355TIP3    H246557   3.912   1.670   3.386 -0.2496  0.4187 -0.4445
 8356TIP3   OH246558   4.044   2.340  16.994  0.6975  0.5574 -0.4104
 8356TIP3    H146559   4.083   2.254  16.978  0.2604 -0.1718  2.0363
 8356TIP3    H246560   3.950   2.327  16.977  0.7576  0.8417 -0.9916
 8357TIP3   OH246561   2.296   4.655   0.543 -0.0076 -0.1583 -0.1799
 8357TIP3    H146562   2.386   4.688   0.549  0.3062 -1.1844  1.3269
 8357TIP3    H246563   2.243   4.723   0.584  0.1101  0.2974 -0.7669
 8358TIP3   OH246564   4.817   0.555   2.235  0.1293 -0.2816  0.6070
 8358TIP3    H146565   4.883   0.588   2.296 -0.4060  0.6563  0.7051
 8358TIP3    H246566   4.771   0.486   2.283  0.0258  0.1236  1.1045
 8359TIP3   OH246567   1.931   1.377   2.665 -0.0504 -0.1813  0.3218
 8359TIP3    H146568   1.955   1.436   2.594 -1.2712  0.3561  0.3177
 8359TIP3    H246569   1.857   1.421   2.708  0.0656 -0.9435  1.3301
 8360TIP3   OH246570   2.179   4.848  17.212  0.0327 -0.1928 -0.0443
 8360TIP3    H146571   2.211   4.937  17.194  0.3725  0.0478  1.5537
 8360TIP3    H246572   2.084   4.856  17.211  0.0516  0.4571  1.1273
 8361TIP3   OH246573   2.053   0.493   4.142 -0.3313 -0.0224  0.2417
 8361TIP3    H146574   2.146   0.484   4.120  0.2220  2.4970  1.1564
 8361TIP3    H246575   2.007   0.489   4.058  0.6955 -0.3724 -0.3162
 8362TIP3   OH246576   0.310   2.652  14.014 -0.2963 -0.4013  0.6482
 8362TIP3    H146577   0.245   2.651  13.945  0.5980 -1.7528 -0.2144
 8362TIP3    H246578   0.260   2.665  14.095 -1.1783  3.6764 -0.3418
 8363TIP3   OH246579   0.819   0.580  15.702 -0.4602 -0.1761  0.4688
 8363TIP3    H146580   0.889   0.628  15.747 -0.5175 -0.0663  0.4418
 8363TIP3    H246581   0.763   0.649  15.664  0.7299 -0.2418 -1.5617
 8364TIP3   OH246582   5.100   1.714   4.536  0.0251 -0.0157 -0.5987
 8364TIP3    H146583   5.023   1.668   4.505 -0.6962  0.1146  0.9028
 8364TIP3    H246584   5.172   1.651   4.526 -1.1608 -2.1429  2.7645
 8365TIP3   OH246585   0.029   0.262   6.278  0.4833 -0.3418 -0.2147
 8365TIP3    H146586   0.110   0.305   6.306  0.0131 -0.3790  1.2958
 8365TIP3    H246587  -0.027   0.334   6.250  0.3146 -0.1161  0.6776
 8366TIP3   OH246588   5.260   0.312  16.758 -0.6460  0.3673 -0.5730
 8366TIP3    H146589   5.256   0.358  16.674  0.0590  0.0022 -0.8204
 8366TIP3    H246590   5.299   0.227  16.736  1.7959  1.1309  0.4543
 8367TIP3   OH246591   3.505   1.981   5.309  0.4794  0.5405  0.1062
 8367TIP3    H146592   3.555   2.049   5.354  0.1993  0.9354 -0.1744
 8367TIP3    H246593   3.420   2.021   5.292  0.4526  0.2586 -0.4343
 8368TIP3   OH246594   1.916   0.201   4.830 -0.7261  0.1200 -0.1452
 8368TIP3    H146595   1.996   0.172   4.874 -0.4062 -0.3076 -0.9957
 8368TIP3    H246596   1.891   0.127   4.774 -2.3433 -0.2026  0.9314
 8369TIP3   OH246597   4.731   6.097   2.281 -0.2154 -0.6993 -0.2993
 8369TIP3    H146598   4.781   6.065   2.206 -2.1260 -0.3049 -1.8243
 8369TIP3    H246599   4.792   6.152   2.329  0.6235  0.4127 -2.5132
 8370TIP3   OH246600   3.430   6.314  15.803 -0.0718  0.4517 -0.0178
 8370TIP3    H146601   3.509   6.295  15.753 -0.4158  0.4588 -0.5684
 8370TIP3    H246602   3.370   6.244  15.780 -0.3731  0.6725  0.0901
 8371TIP3   OH246603   2.124   2.687   3.864  0.2518 -0.0773 -0.2781
 8371TIP3    H146604   2.083   2.622   3.922  0.9702  0.8995  1.3935
 8371TIP3    H246605   2.079   2.768   3.884 -0.3540  0.0576 -2.0574
 8372TIP3   OH246606   6.162   0.719   1.762  0.3590  0.0404 -0.0201
 8372TIP3    H146607   6.089   0.768   1.725 -0.0462 -1.0485 -0.6979
 8372TIP3    H246608   6.239   0.773   1.742 -0.1917  1.0055  0.3576
 8373TIP3   OH246609   0.235   5.702  17.274  0.1284  0.4127 -0.0981
 8373TIP3    H146610   0.176   5.739  17.209  2.5359  2.0146 -1.5103
 8373TIP3    H246611   0.280   5.632  17.228  1.5980  1.3264 -0.1094
 8374TIP3   OH246612   5.652   4.506  12.785  0.5359  1.0509 -0.0381
 8374TIP3    H146613   5.567   4.527  12.747  0.0545  0.6848  0.8112
 8374TIP3    H246614   5.701   4.464  12.714 -1.0011 -1.3558  0.2489
 8375TIP3   OH246615   6.574   3.212   2.389  0.3837  0.4224  0.5076
 8375TIP3    H146616   6.494   3.189   2.341  0.6917  1.1107 -0.3760
 8375TIP3    H246617   6.593   3.135   2.443 -0.1414 -0.2680 -0.2666
 8376TIP3   OH246618   6.614   3.030  14.586  0.0497  0.3063 -0.0922
 8376TIP3    H146619   6.584   3.098  14.646 -0.7116 -0.3870  0.3273
 8376TIP3    H246620   6.569   3.049  14.503  0.4948  0.8026 -0.2236
 8377TIP3   OH246621   4.148   1.791  15.070  0.7060 -0.0390  0.0375
 8377TIP3    H146622   4.125   1.786  15.163 -1.7713  1.4635 -0.4023
 8377TIP3    H246623   4.174   1.702  15.047 -0.5798 -0.9130  1.7211
 8378TIP3   OH246624   4.762   2.399   2.804 -0.2081 -0.9553  0.6152
 8378TIP3    H146625   4.790   2.419   2.715 -1.0100 -3.7320 -0.3765
 8378TIP3    H246626   4.841   2.406   2.858  0.5080 -0.2994 -0.5036
 8379TIP3   OH246627   2.054   5.132   5.343 -0.4930  0.0580 -0.1335
 8379TIP3    H146628   1.959   5.123   5.353 -0.3787  0.5562  1.6216
 8379TIP3    H246629   2.090   5.100   5.425  0.8808 -0.1067 -0.7727
 8380TIP3   OH246630   3.021   5.242  16.183  0.3094 -0.0490  0.1404
 8380TIP3    H146631   3.065   5.289  16.254  1.8092 -1.9054  0.5188
 8380TIP3    H246632   2.933   5.226  16.216  1.4356 -2.3245  2.3985
 8381TIP3   OH246633   2.260   1.351  12.728 -0.2682  0.5841 -0.4031
 8381TIP3    H146634   2.274   1.442  12.702 -2.0769  1.5385  1.6481
 8381TIP3    H246635   2.335   1.304  12.692  2.1390  3.3256  0.6847
 8382TIP3   OH246636   5.098   4.422   3.830  0.6114  0.1948  0.6906
 8382TIP3    H146637   5.007   4.393   3.832  0.2649  1.1376 -0.1041
 8382TIP3    H246638   5.150   4.341   3.830 -0.2643 -0.3796  0.0474
 8383TIP3   OH246639   5.020   0.955  12.434 -0.2543  0.2027  0.0694
 8383TIP3    H146640   5.011   0.970  12.528 -3.9274 -1.0631  0.1064
 8383TIP3    H246641   5.071   0.874  12.427  0.0444  0.3041  0.9544
 8384TIP3   OH246642   0.356   2.331  12.335 -0.2897  0.2558 -0.6071
 8384TIP3    H146643   0.267   2.318  12.369  0.3782  0.8306  1.5106
 8384TIP3    H246644   0.405   2.255  12.366  0.1644  0.4006 -0.9629
 8385TIP3   OH246645   5.555   2.886  15.107  0.0636  0.0728 -0.3740
 8385TIP3    H146646   5.585   2.958  15.051 -0.6830 -0.4213 -1.4554
 8385TIP3    H246647   5.485   2.923  15.160 -0.3811  0.1390 -0.9947
 8386TIP3   OH246648   2.747   1.209  15.474  0.3862  0.1559 -0.9415
 8386TIP3    H146649   2.765   1.115  15.477 -3.3098 -0.6710  0.3519
 8386TIP3    H246650   2.787   1.243  15.554  0.8184 -0.4984 -0.8651
 8387TIP3   OH246651   4.309   5.775   4.127  0.2705 -0.0446 -0.1563
 8387TIP3    H146652   4.386   5.755   4.073  1.3138  1.5214  0.7030
 8387TIP3    H246653   4.337   5.846   4.184 -1.5470 -0.0690  0.8309
 8388TIP3   OH246654   4.360   0.966  13.330 -0.2764 -0.2936 -0.1312
 8388TIP3    H146655   4.417   0.935  13.259 -0.1402 -0.6376  0.1225
 8388TIP3    H246656   4.278   0.989  13.287  0.7761  2.4563 -0.8715
 8389TIP3   OH246657   3.897   6.611  14.407  0.4593  0.4348  0.3400
 8389TIP3    H146658   3.841   6.687  14.427 -0.3532  0.3138 -1.2488
 8389TIP3    H246659   3.844   6.535  14.432  1.5283  0.3495  2.5400
 8390TIP3   OH246660   5.057   4.731   0.606  0.5211 -0.0007 -0.7043
 8390TIP3    H146661   5.019   4.780   0.533 -2.2069 -0.5069  0.2458
 8390TIP3    H246662   5.105   4.797   0.657 -2.1330  1.5761 -0.0527
 8391TIP3   OH246663   6.512   1.977   0.931  0.5195 -0.2342 -0.0970
 8391TIP3    H146664   6.466   2.023   0.861  2.6013 -0.5286 -1.7542
 8391TIP3    H246665   6.491   1.885   0.917  0.9497 -0.2948 -0.3490
 8392TIP3   OH246666   4.369   6.054   6.333  0.1502 -0.0927  0.8215
 8392TIP3    H146667   4.332   6.017   6.413  1.7912 -2.0221  0.7611
 8392TIP3    H246668   4.448   6.100   6.362 -0.5630  1.3474  0.5765
 8393TIP3   OH246669   6.383   4.786   6.514 -0.5527  0.5770  0.1462
 8393TIP3    H146670   6.310   4.833   6.555 -0.5682 -0.3535  1.2444
 8393TIP3    H246671   6.432   4.749   6.587  0.7825  0.8098 -0.5972
 8394TIP3   OH246672   4.081   1.186  13.555  0.8402  0.3512  0.7273
 8394TIP3    H146673   4.050   1.276  13.564  0.2505  0.1693  0.5469
 8394TIP3    H246674   4.012   1.141  13.507  0.8600 -0.3396  1.3266
 8395TIP3   OH246675   3.771   0.126  11.718  0.4887  0.1315  0.9745
 8395TIP3    H146676   3.851   0.090  11.679 -1.4420 -6.2324  1.8376
 8395TIP3    H246677   3.711   0.138  11.644  0.6265 -0.0225  0.8374
 8396TIP3   OH246678   0.778   0.861  13.156  0.2814 -0.1102  0.1614
 8396TIP3    H146679   0.850   0.798  13.162  1.8925  1.6901  0.5337
 8396TIP3    H246680   0.753   0.859  13.064  2.1514  0.5816 -0.4192
 8397TIP3   OH246681   2.143   5.454  12.560  0.4934  0.3042  0.0415
 8397TIP3    H146682   2.216   5.428  12.503 -0.2718 -0.2414 -0.7089
 8397TIP3    H246683   2.067   5.456  12.502  0.0267  1.5721  0.6672
 8398TIP3   OH246684   3.906   5.953  13.506 -0.8678 -0.1915  0.1821
 8398TIP3    H146685   3.975   5.977  13.444 -2.0692 -0.2712 -1.2459
 8398TIP3    H246686   3.836   6.015  13.489 -0.9405  0.3090  2.0671
 8399TIP3   OH246687   4.259   4.975  13.266  0.4215  0.3263 -0.6326
 8399TIP3    H146688   4.170   5.007  13.282 -0.1078 -0.2153 -2.2724
 8399TIP3    H246689   4.294   4.956  13.353 -1.4574 -0.4576 -0.0085
 8400TIP3   OH246690   0.386   4.321  11.589  0.1504  0.5145  0.0801
 8400TIP3    H146691   0.303   4.359  11.562  0.2077  0.2319 -0.5312
 8400TIP3    H246692   0.398   4.350  11.679 -0.4206  0.8765  0.0474
 8401TIP3   OH246693   2.752   0.131  16.791 -0.2511  0.3448  0.0213
 8401TIP3    H146694   2.760   0.053  16.846 -0.4212  0.5694  0.3688
 8401TIP3    H246695   2.810   0.195  16.832  3.2913 -0.8937 -2.6734
 8402TIP3   OH246696   2.712   3.700   0.789 -0.2272  0.1936  0.1859
 8402TIP3    H146697   2.657   3.738   0.857  0.7160 -1.0859  1.7252
 8402TIP3    H246698   2.729   3.773   0.729 -1.0453  1.3740  1.3288
 8403TIP3   OH246699   6.087   5.804  11.508  0.0592  0.6388 -0.0054
 8403TIP3    H146700   6.154   5.844  11.453  1.5301 -0.7338  0.7047
 8403TIP3    H246701   6.121   5.811  11.598 -1.0190  0.4368  0.4412
 8404TIP3   OH246702   6.648   6.504   4.360 -0.0643 -0.0362 -0.2268
 8404TIP3    H146703   6.634   6.433   4.296  0.5402  0.6588 -1.1597
 8404TIP3    H246704   6.740   6.529   4.348 -0.3184  1.0332 -0.0444
 8405TIP3   OH246705   3.227   0.536  15.025  0.1582  0.3330 -0.0456
 8405TIP3    H146706   3.219   0.447  15.060 -0.2670  0.2509 -0.3429
 8405TIP3    H246707   3.290   0.528  14.953  0.2093  0.2975  0.0028
 8406TIP3   OH246708   6.419   3.562  11.946  0.0485 -0.2193 -0.0762
 8406TIP3    H146709   6.489   3.522  11.996  1.8435 -0.4169 -2.5408
 8406TIP3    H246710   6.461   3.592  11.865 -2.5205  0.5743 -1.2433
 8407TIP3   OH246711   0.604   6.274  11.225  0.9037  0.5182  0.2517
 8407TIP3    H146712   0.684   6.318  11.198  0.6225  0.0762 -1.4706
 8407TIP3    H246713   0.534   6.321  11.179  0.2389  0.5082  1.2266
 8408TIP3   OH246714   0.197   1.362   4.606 -0.2658 -0.4611 -0.9572
 8408TIP3    H146715   0.194   1.452   4.639 -0.1212 -0.8923  0.2744
 8408TIP3    H246716   0.131   1.315   4.659  1.6899 -1.7287  0.4971
 8409TIP3   OH246717   5.513   4.627   4.884  0.0331 -0.4602 -0.1679
 8409TIP3    H146718   5.581   4.569   4.850  0.6066  0.8604 -1.4064
 8409TIP3    H246719   5.431   4.585   4.860  0.4180 -1.4093  0.1527
 8410TIP3   OH246720   6.303   5.288  17.232 -0.4566  0.3971  0.4267
 8410TIP3    H146721   6.240   5.330  17.291 -0.0303 -1.5937  2.4332
 8410TIP3    H246722   6.377   5.266  17.288  0.6004 -0.3238 -1.1695
 8411TIP3   OH246723   1.001   2.438  15.135  0.7300  0.6894 -0.1931
 8411TIP3    H146724   1.024   2.517  15.185 -0.3181  0.0325  1.3769
 8411TIP3    H246725   0.997   2.469  15.044  1.6845  2.1372  0.2027
 8412TIP3   OH246726   3.586   5.751   2.749  0.3093  0.5775  0.3634
 8412TIP3    H146727   3.567   5.670   2.702 -0.1902  0.1603  1.2567
 8412TIP3    H246728   3.517   5.756   2.816  1.0258  1.1261  1.0710
 8413TIP3   OH246729   3.699   1.313   0.196  0.1112 -0.8530 -0.0769
 8413TIP3    H146730   3.613   1.310   0.154 -1.0037 -1.1721  2.0457
 8413TIP3    H246731   3.744   1.234   0.166 -0.8564 -1.3628 -0.2345
 8414TIP3   OH246732   1.303   2.960   6.590  0.7154 -0.2011 -0.9210
 8414TIP3    H146733   1.377   2.926   6.639  0.9511  0.2945 -0.9246
 8414TIP3    H246734   1.270   2.885   6.541 -0.7252 -1.2218  1.4327
 8415TIP3   OH246735   6.315   2.834  16.507  0.3156  0.3833 -0.1929
 8415TIP3    H146736   6.304   2.929  16.515  1.6263  0.4848  0.9049
 8415TIP3    H246737   6.328   2.804  16.597  2.3116 -0.4946 -0.7272
 8416TIP3   OH246738   6.375   0.497  12.935 -0.2156  0.0619  0.1026
 8416TIP3    H146739   6.367   0.592  12.934 -0.0980  0.0964 -2.1806
 8416TIP3    H246740   6.285   0.465  12.929 -0.2885 -0.0279  1.2623
 8417TIP3   OH246741   2.585   1.154   1.517 -0.2820  0.5530  0.3606
 8417TIP3    H146742   2.542   1.225   1.565 -1.0525  0.5988 -0.3725
 8417TIP3    H246743   2.587   1.081   1.579  0.1958  1.1011  1.0022
 8418TIP3   OH246744   6.582   6.263   5.390 -0.0525  0.1746  0.3227
 8418TIP3    H146745   6.655   6.200   5.394  0.8282  1.1300 -0.1594
 8418TIP3    H246746   6.506   6.213   5.419  0.5079 -1.2776 -0.5604
 8419TIP3   OH246747   6.373   1.570   0.416  0.0244  0.2737 -0.8406
 8419TIP3    H146748   6.406   1.516   0.488  1.0118 -0.1765 -1.5948
 8419TIP3    H246749   6.279   1.576   0.431  0.0644 -0.6722 -0.0888
 8420TIP3   OH246750   3.650   6.067  12.296 -0.1516  0.1113  0.0786
 8420TIP3    H146751   3.746   6.072  12.296 -0.1690  0.4707 -0.1566
 8420TIP3    H246752   3.627   6.051  12.204 -0.3642  1.0688 -0.0479
 8421TIP3   OH246753   2.061   0.382  13.084 -0.5197  0.2987 -0.1775
 8421TIP3    H146754   2.044   0.453  13.146 -0.1335  1.5250 -1.4148
 8421TIP3    H246755   2.157   0.371  13.085 -0.5647 -0.1021 -0.1030
 8422TIP3   OH246756   3.565   5.740   1.020  0.1399 -0.2959 -0.1269
 8422TIP3    H146757   3.477   5.766   1.047  0.1107  0.7265 -1.1231
 8422TIP3    H246758   3.622   5.764   1.093 -0.3607 -0.6912  0.3961
 8423TIP3   OH246759   3.884   3.507  16.868 -0.6956 -0.1953 -0.2976
 8423TIP3    H146760   3.897   3.484  16.776  0.3682  0.1745 -0.2566
 8423TIP3    H246761   3.812   3.569  16.868 -0.8885 -0.4165 -0.8497
 8424TIP3   OH246762   5.422   2.125  14.874 -0.1158  0.4801 -0.3451
 8424TIP3    H146763   5.454   2.122  14.784  0.9995  0.5562  0.0434
 8424TIP3    H246764   5.342   2.177  14.868  0.0311  0.6280 -1.2638
 8425TIP3   OH246765   5.078   1.637  14.219 -0.2872  0.0980  0.3152
 8425TIP3    H146766   5.164   1.645  14.178 -0.3389 -0.0809  0.1653
 8425TIP3    H246767   5.058   1.543  14.214 -0.4993  0.1415  0.3259
 8426TIP3   OH246768   2.523   2.100   2.594  0.2978  0.1745 -0.6674
 8426TIP3    H146769   2.522   2.126   2.686  0.4435 -0.9010 -0.3480
 8426TIP3    H246770   2.601   2.143   2.558  0.8692 -0.3076 -0.0129
 8427TIP3   OH246771   0.152   6.584  12.154 -0.0323 -0.1375  0.1020
 8427TIP3    H146772   0.179   6.492  12.157  1.3351  0.2656  1.2765
 8427TIP3    H246773   0.186   6.621  12.235 -0.9518  1.3143 -0.1526
 8428TIP3   OH246774   2.087   0.142   5.191 -0.2467 -0.0575  0.1234
 8428TIP3    H146775   2.144   0.100   5.255  1.1832  2.8579  0.9200
 8428TIP3    H246776   1.999   0.134   5.229 -0.4631 -3.9803 -0.7924
 8429TIP3   OH246777   0.340   2.855   0.784  0.4327 -0.0280 -0.2606
 8429TIP3    H146778   0.416   2.827   0.733  1.5801  1.3765  0.5907
 8429TIP3    H246779   0.377   2.896   0.862 -1.2227  0.1528  0.4790
 8430TIP3   OH246780   1.841   4.411  14.244 -0.2107 -0.1175  0.1198
 8430TIP3    H146781   1.778   4.396  14.173  1.2890 -1.3097 -1.0340
 8430TIP3    H246782   1.888   4.328  14.252  0.9219  0.6012  1.2253
 8431TIP3   OH246783   6.710   5.304   4.030 -0.2972 -0.1024  0.4201
 8431TIP3    H146784   6.618   5.285   4.010  0.1434 -0.8862 -0.9472
 8431TIP3    H246785   6.757   5.285   3.949  0.9343  1.4284  0.7276
 8432TIP3   OH246786   1.314   6.717  16.215 -0.5580  0.0306 -0.2204
 8432TIP3    H146787   1.243   6.681  16.269  0.7619 -1.0134  0.8846
 8432TIP3    H246788   1.394   6.683  16.255  0.6148  1.6601 -1.0894
 8433TIP3   OH246789   6.646   5.124   0.978 -0.9280 -0.7445  0.2187
 8433TIP3    H146790   6.564   5.170   0.965  0.6670  2.6216  1.0439
 8433TIP3    H246791   6.709   5.168   0.921  1.7945  1.7344  4.5044
 8434TIP3   OH246792   5.916   6.437  17.164 -0.3239 -0.0763 -0.0460
 8434TIP3    H146793   5.869   6.519  17.150 -0.1442  0.3387  1.5627
 8434TIP3    H246794   5.896   6.413  17.254  2.5510  0.1469  0.7553
 8435TIP3   OH246795   3.887   2.101   4.981 -0.1503  0.4945  0.7428
 8435TIP3    H146796   3.901   2.030   5.044  0.0297  0.1230  0.2872
 8435TIP3    H246797   3.975   2.131   4.958 -0.0883 -0.9602 -1.1217
 8436TIP3   OH246798   0.246   0.911  15.182 -0.5410 -0.3668  0.5030
 8436TIP3    H146799   0.324   0.943  15.226  0.6365 -2.9604  0.4624
 8436TIP3    H246800   0.174   0.931  15.243  0.4452  0.0479  1.5683
 8437TIP3   OH246801   3.364   2.743  14.388  0.1640  0.5294 -0.1408
 8437TIP3    H146802   3.293   2.731  14.325  0.3907  0.8899 -0.4732
 8437TIP3    H246803   3.414   2.818  14.354  1.5878 -0.6346 -0.7392
 8438TIP3   OH246804   4.219   5.629  13.793 -0.3096  0.3724  0.0955
 8438TIP3    H146805   4.184   5.693  13.854  2.2469  0.2562  1.8306
 8438TIP3    H246806   4.306   5.661  13.772 -0.1874 -0.9052 -1.5565
 8439TIP3   OH246807   4.053   5.510  13.601 -0.3661  0.0695 -0.0575
 8439TIP3    H146808   4.109   5.577  13.640  0.2005  1.0467 -2.3638
 8439TIP3    H246809   3.967   5.551  13.595 -0.2286  0.2783 -0.6620
 8440TIP3   OH246810   4.971   3.962   0.223 -0.6370 -0.4713  0.2518
 8440TIP3    H146811   4.935   4.042   0.184 -0.5199 -1.0599 -1.1445
 8440TIP3    H246812   5.020   3.992   0.299 -1.9389  0.6117  0.7024
 8441TIP3   OH246813   2.137   0.620  15.558 -0.1195  0.2331 -0.1571
 8441TIP3    H146814   2.205   0.569  15.514  0.9190  0.2401  1.3668
 8441TIP3    H246815   2.071   0.556  15.583  1.4289 -0.5628  2.2228
 8442TIP3   OH246816   5.502   6.106   4.696  0.1839 -0.2360 -0.0661
 8442TIP3    H146817   5.597   6.118   4.695  0.3749 -1.2153 -2.4737
 8442TIP3    H246818   5.490   6.012   4.683 -1.1265 -0.1493  0.3734
 8443TIP3   OH246819   5.016   1.364  14.205 -0.0647  0.8791  0.0479
 8443TIP3    H146820   5.050   1.329  14.287  0.5002  0.1312 -0.4955
 8443TIP3    H246821   4.923   1.340  14.206 -0.3192  1.8429  0.9650
 8444TIP3   OH246822   2.124   4.301   3.330  0.0222 -0.0591 -0.3689
 8444TIP3    H146823   2.029   4.287   3.334 -0.1155  0.6653 -0.7789
 8444TIP3    H246824   2.162   4.214   3.337 -0.7726 -0.7551 -3.2475
 8445TIP3   OH246825   6.015   2.512   0.489 -0.2524 -0.6979 -0.1462
 8445TIP3    H146826   5.942   2.574   0.501  0.3545 -0.2017  1.1211
 8445TIP3    H246827   5.972   2.427   0.480 -1.0443 -0.2550 -0.7616
 8446TIP3   OH246828   2.557   4.964   0.429  0.2760 -0.3093 -0.0277
 8446TIP3    H146829   2.480   5.021   0.421 -0.8043 -1.8004 -0.6773
 8446TIP3    H246830   2.606   5.001   0.502  0.4161  2.3354 -1.3286
 8447TIP3   OH246831   6.034   6.291  12.105  0.7712 -0.2900 -0.1907
 8447TIP3    H146832   6.087   6.369  12.090 -1.5887  1.5816  0.5008
 8447TIP3    H246833   5.991   6.307  12.189 -2.9177 -0.3283 -1.8953
 8448TIP3   OH246834   1.374   1.320   0.762  0.1602 -0.5815 -0.4180
 8448TIP3    H146835   1.334   1.262   0.827  0.9258 -2.0338 -1.1852
 8448TIP3    H246836   1.461   1.338   0.796  0.7595 -1.7711 -1.2254
 8449TIP3   OH246837   3.116   5.670   2.281  0.0794 -0.4681 -0.6652
 8449TIP3    H146838   3.108   5.684   2.376  1.4371 -0.0770 -0.5865
 8449TIP3    H246839   3.039   5.712   2.244 -0.9182 -1.3601  0.3195
 8450TIP3   OH246840   3.786   1.108   1.975 -0.1275  0.4314  0.3252
 8450TIP3    H146841   3.877   1.119   2.000 -0.1309  0.7026  0.2279
 8450TIP3    H246842   3.738   1.103   2.058 -0.0961  0.9327  0.3750
 8451TIP3   OH246843   4.097   1.978   6.508  0.0864 -0.3135  0.1405
 8451TIP3    H146844   4.053   2.032   6.443  0.4540  0.7270  0.7423
 8451TIP3    H246845   4.076   2.018   6.592  0.4740 -1.0306  0.5954
 8452TIP3   OH246846   4.056   6.620   3.629  0.3786 -0.2734  0.5247
 8452TIP3    H146847   4.070   6.559   3.557 -0.2701 -0.1756  0.3071
 8452TIP3    H246848   4.128   6.602   3.690  1.7003  0.5312 -0.7385
 8453TIP3   OH246849   5.562   5.445   4.049 -0.1610 -0.8350 -0.2805
 8453TIP3    H146850   5.649   5.456   4.086 -0.4910  0.9817  0.0603
 8453TIP3    H246851   5.558   5.510   3.978  0.1132 -3.5469 -2.9744
 8454TIP3   OH246852   3.220   3.004   4.935 -0.0871 -0.9263  0.8200
 8454TIP3    H146853   3.166   2.981   5.011  0.5168  0.1070  1.5919
 8454TIP3    H246854   3.178   3.083   4.900 -0.5180 -1.5500 -0.0983
 8455TIP3   OH246855   2.703   3.821   1.717 -0.5529 -0.1497  0.2196
 8455TIP3    H146856   2.739   3.900   1.676 -0.6843 -0.7426 -1.0851
 8455TIP3    H246857   2.653   3.854   1.792 -1.3265  1.0950 -0.7999
 8456TIP3   OH246858   6.326   5.170   0.635 -0.0221 -0.5866  0.1359
 8456TIP3    H146859   6.357   5.103   0.573 -0.9033  0.2545 -1.2539
 8456TIP3    H246860   6.367   5.251   0.605 -1.2763  0.0172  0.0015
 8457TIP3   OH246861   4.526   4.329   1.928  0.0179  1.0530 -0.7853
 8457TIP3    H146862   4.535   4.369   2.015 -0.8610 -2.3741  1.0572
 8457TIP3    H246863   4.616   4.306   1.904  0.1809  1.2538 -0.3866
 8458TIP3   OH246864   6.053   3.937   1.315 -0.4967 -0.5250 -0.0292
 8458TIP3    H146865   5.987   3.989   1.269 -0.0511 -1.0469 -1.2892
 8458TIP3    H246866   6.058   3.855   1.266  1.1694 -0.4501 -0.0315
 8459TIP3   OH246867   5.128   2.258   1.519 -0.4088 -0.0171  0.3994
 8459TIP3    H146868   5.081   2.312   1.455  1.2507 -0.3348 -1.1893
 8459TIP3    H246869   5.126   2.169   1.482 -1.0881 -0.6105  1.7956
 8460TIP3   OH246870   3.036   0.159   5.955 -0.1852  0.4738 -0.2437
 8460TIP3    H146871   3.046   0.217   5.879 -0.0353 -0.5372 -1.0137
 8460TIP3    H246872   3.049   0.071   5.920  1.5041  0.0692  1.2428
 8461TIP3   OH246873   6.574   5.213  11.545  0.4206 -0.0390 -0.4088
 8461TIP3    H146874   6.628   5.151  11.496  1.5003  0.3571  0.2364
 8461TIP3    H246875   6.635   5.283  11.571 -0.1170 -0.1820  1.4052
 8462TIP3   OH246876   2.467   4.675  15.670 -0.2532  0.4239  0.1836
 8462TIP3    H146877   2.486   4.632  15.587 -0.8802  1.6711 -0.6434
 8462TIP3    H246878   2.532   4.639  15.731 -0.8171 -1.7219 -0.4034
 8463TIP3   OH246879   0.659   0.387  11.515 -0.0073  0.2392 -0.5201
 8463TIP3    H146880   0.593   0.340  11.565  0.3666 -0.6697 -0.8538
 8463TIP3    H246881   0.636   0.371  11.424 -0.1096  1.0530 -0.6450
 8464TIP3   OH246882   4.461   1.029  15.744  0.2942 -0.0685 -0.1548
 8464TIP3    H146883   4.396   1.014  15.812 -1.2342  1.7225 -1.1375
 8464TIP3    H246884   4.484   1.122  15.752  1.5888 -0.2979 -0.8195
 8465TIP3   OH246885   1.890   4.627  12.594 -0.2905  0.3677  0.1285
 8465TIP3    H146886   1.831   4.572  12.542 -1.2522  0.3344  1.2207
 8465TIP3    H246887   1.909   4.702  12.538 -1.7933  0.6325 -0.0719
 8466TIP3   OH246888   0.294   0.707   4.473  0.4264  0.5595  0.0443
 8466TIP3    H146889   0.283   0.631   4.415 -1.5780  0.6042  0.2983
 8466TIP3    H246890   0.383   0.697   4.508  0.2130 -1.7007  0.1058
 8467TIP3   OH246891   5.608   1.706   0.601 -0.1561  0.2404  0.4174
 8467TIP3    H146892   5.537   1.678   0.543  0.5366 -1.9072  0.4981
 8467TIP3    H246893   5.627   1.795   0.574 -0.9264 -0.1403 -1.5847
 8468TIP3   OH246894   0.770   3.263   3.139  0.0755  0.6632 -0.3405
 8468TIP3    H146895   0.751   3.226   3.225 -0.6638  1.9981  0.1061
 8468TIP3    H246896   0.809   3.191   3.090 -0.6582 -0.4905  0.6980
 8469TIP3   OH246897   0.323   0.998  13.343  0.4452  0.0689 -0.1678
 8469TIP3    H146898   0.238   0.973  13.381  0.4962 -1.1316 -0.7796
 8469TIP3    H246899   0.366   0.914  13.324  1.5382  0.6621 -0.3854
 8470TIP3   OH246900   3.687   4.470  13.200  0.2513 -0.2546  0.3952
 8470TIP3    H146901   3.677   4.552  13.248 -1.0523 -0.6405  0.8039
 8470TIP3    H246902   3.664   4.492  13.110 -1.0064 -0.3648  0.6788
 8471TIP3   OH246903   0.510   0.165   4.645  0.5948  0.0836  0.0153
 8471TIP3    H146904   0.564   0.211   4.709  0.9018  0.4600 -0.5089
 8471TIP3    H246905   0.466   0.097   4.696 -1.0995  1.9169  1.1601
 8472TIP3   OH246906   2.408   2.913   4.750 -0.0234 -0.4963 -0.3814
 8472TIP3    H146907   2.461   2.986   4.718 -1.0392  0.6850  0.5250
 8472TIP3    H246908   2.342   2.901   4.682 -0.4720  0.1305 -0.0688
 8473TIP3   OH246909   5.542   1.037  14.214  0.0162  0.3547 -0.1788
 8473TIP3    H146910   5.567   1.082  14.295  1.5504 -0.0805 -0.3658
 8473TIP3    H246911   5.542   1.106  14.147  1.1131  0.3236 -0.2296
 8474TIP3   OH246912   3.517   1.020   0.026 -0.1670 -0.0158 -0.0635
 8474TIP3    H146913   3.441   1.069   0.056 -0.1067 -0.9811  1.7528
 8474TIP3    H246914   3.481   0.943  -0.017 -0.2226  0.6012 -1.1618
 8475TIP3   OH246915   3.007   5.147   3.611 -0.0115 -0.4391 -0.0142
 8475TIP3    H146916   3.048   5.174   3.528 -0.7708 -0.0514 -0.2740
 8475TIP3    H246917   3.062   5.076   3.643  0.1287 -0.7843 -0.9980
 8476TIP3   OH246918   5.557   5.687  16.922  0.0883 -0.0139  0.3054
 8476TIP3    H146919   5.545   5.763  16.865  0.5423 -0.4646 -0.4057
 8476TIP3    H246920   5.630   5.711  16.979  0.4212 -0.0256 -0.1141
 8477TIP3   OH246921   2.139   0.008  12.865 -0.0297 -0.5161  0.1623
 8477TIP3    H146922   2.195  -0.064  12.896  0.4521  0.3146  1.3064
 8477TIP3    H246923   2.190   0.087  12.883 -0.8912  0.1639 -0.3131
 8478TIP3   OH246924   6.451   0.170   1.583 -0.4069  0.3049  0.1486
 8478TIP3    H146925   6.399   0.106   1.535 -0.5182  1.6221 -1.6193
 8478TIP3    H246926   6.392   0.245   1.595  0.6358  1.2930 -0.6843
 8479TIP3   OH246927   4.299   1.967  11.751  0.0681 -0.0191 -0.1634
 8479TIP3    H146928   4.287   1.913  11.673  0.7579 -1.6509  0.8101
 8479TIP3    H246929   4.218   2.017  11.759 -0.9489 -1.5515 -0.6342
 8480TIP3   OH246930   4.739   4.137   1.785  0.3972 -0.2032  0.6916
 8480TIP3    H146931   4.823   4.126   1.740  0.5015 -1.7394  1.2018
 8480TIP3    H246932   4.749   4.087   1.866 -0.2687  1.3815  1.7986
 8481TIP3   OH246933   0.816   2.697   1.453  0.1467  0.5073  0.6819
 8481TIP3    H146934   0.828   2.621   1.510  2.1190 -0.9426 -1.4553
 8481TIP3    H246935   0.902   2.740   1.452 -0.0909  0.9930 -0.4733
 8482TIP3   OH246936   5.556   1.228   4.408 -0.3143 -0.3388  0.3454
 8482TIP3    H146937   5.642   1.195   4.380  0.2801  1.4940 -0.1274
 8482TIP3    H246938   5.514   1.256   4.327 -1.9127 -2.3099  0.4157
 8483TIP3   OH246939   3.763   4.842   6.959 -1.0282  0.3161 -0.0547
 8483TIP3    H146940   3.767   4.771   7.022 -1.6688  1.2424  1.0814
 8483TIP3    H246941   3.854   4.866   6.942 -0.8376 -0.3130  0.0812
 8484TIP3   OH246942   3.056   6.235   1.628 -0.0288  0.3586  0.4940
 8484TIP3    H146943   3.041   6.145   1.601 -0.9642  1.1781 -1.9833
 8484TIP3    H246944   3.151   6.246   1.624 -0.0736  0.3362 -2.4550
 8485TIP3   OH246945   5.627   3.340   3.532 -0.3471 -0.0059  0.5465
 8485TIP3    H146946   5.623   3.278   3.605  1.2059 -0.1280  0.5693
 8485TIP3    H246947   5.606   3.287   3.455 -1.3029 -0.0349  0.8225
 8486TIP3   OH246948   4.586   5.341  14.511 -0.2147  0.1244 -0.5478
 8486TIP3    H146949   4.587   5.358  14.417 -1.2891  0.6547 -0.4806
 8486TIP3    H246950   4.602   5.426  14.552  3.5396 -0.5794 -0.2012
 8487TIP3   OH246951   2.544   0.072  13.754 -0.2949 -0.1111 -0.0963
 8487TIP3    H146952   2.455   0.042  13.773 -0.1733 -0.2693  0.2316
 8487TIP3    H246953   2.600   0.008  13.797 -0.0167 -0.2241 -0.6269
 8488TIP3   OH246954   0.212   5.008   6.320 -0.5515  0.0754 -0.1759
 8488TIP3    H146955   0.205   5.072   6.391 -0.6104 -0.5341  0.3761
 8488TIP3    H246956   0.153   4.937   6.345  0.3558 -0.7216 -0.2122
 8489TIP3   OH246957   4.742   0.136  16.356 -0.2420 -0.1700 -0.8326
 8489TIP3    H146958   4.701   0.102  16.276 -0.3096 -1.5633 -0.2295
 8489TIP3    H246959   4.763   0.058  16.407 -0.0018  0.6930  0.4214
 8490TIP3   OH246960   3.889   5.298   0.382  0.2109 -0.2126  0.1675
 8490TIP3    H146961   3.944   5.237   0.431 -0.4421 -0.4271  0.6440
 8490TIP3    H246962   3.899   5.381   0.428 -0.5581 -0.4597  0.7974
 8491TIP3   OH246963   3.403   5.238   2.201  0.0478  0.7062  0.4580
 8491TIP3    H146964   3.484   5.237   2.150 -0.0133 -0.2436  0.3620
 8491TIP3    H246965   3.369   5.327   2.191  0.0187  0.5291 -1.1930
 8492TIP3   OH246966   1.461   6.169  15.825 -0.0609  0.0885  0.2740
 8492TIP3    H146967   1.523   6.212  15.765  0.0566  0.7841  0.8865
 8492TIP3    H246968   1.487   6.077  15.823 -1.1065 -0.2452 -2.0464
 8493TIP3   OH246969   5.429   3.414  16.345 -0.3074  0.2788  0.2573
 8493TIP3    H146970   5.505   3.380  16.392 -0.8666 -0.6744  0.4994
 8493TIP3    H246971   5.413   3.349  16.276 -0.3566  0.9385 -0.3662
 8494TIP3   OH246972   5.539   0.738  15.176 -0.2991  0.2917 -0.1840
 8494TIP3    H146973   5.470   0.727  15.241 -2.1693  1.0669 -1.9182
 8494TIP3    H246974   5.533   0.660  15.121  1.1969 -0.3074  0.4225
 8495TIP3   OH246975   5.448   6.605  14.591 -0.3600  0.2751  0.2219
 8495TIP3    H146976   5.491   6.689  14.608  0.0183  0.1327 -0.0138
 8495TIP3    H246977   5.513   6.554  14.543  0.9326 -1.6049  3.6653
 8496TIP3   OH246978   5.793   2.533   4.083 -0.5800  0.0492 -0.7723
 8496TIP3    H146979   5.880   2.550   4.047  0.0940  0.0494  0.7805
 8496TIP3    H246980   5.738   2.601   4.045  0.5028  1.1931 -0.3770
 8497TIP3   OH246981   3.878   0.756  16.430  0.2807  0.5410  0.1589
 8497TIP3    H146982   3.948   0.776  16.493 -1.6020  0.6952  2.3472
 8497TIP3    H246983   3.860   0.663  16.443  0.5066  0.3505 -0.8603
 8498TIP3   OH246984   3.927   3.471   2.954  0.3808 -0.9049 -0.1597
 8498TIP3    H146985   3.921   3.540   2.889  0.9520 -1.4504 -0.8089
 8498TIP3    H246986   3.838   3.438   2.964 -0.0961  0.5955  0.9308
 8499TIP3   OH246987   6.066   0.504  16.783 -0.1453  0.4273  0.0010
 8499TIP3    H146988   6.107   0.571  16.838 -0.4770 -0.4321  1.3616
 8499TIP3    H246989   6.135   0.440  16.767 -0.2438  0.3070  0.0498
 8500TIP3   OH246990   2.021   1.050  16.804  0.5218 -0.2780  0.0594
 8500TIP3    H146991   1.932   1.029  16.831  0.6114 -0.7668 -0.0123
 8500TIP3    H246992   2.051   1.113  16.869  0.5966 -1.1376  0.8859
 8501TIP3   OH246993   1.206   2.795   2.277  0.4305  0.4771  0.1874
 8501TIP3    H146994   1.121   2.810   2.317  0.1117  0.1081 -0.3378
 8501TIP3    H246995   1.226   2.876   2.232  0.3993  0.5966  0.3886
 8502TIP3   OH246996   2.079   5.485  11.361 -0.0349 -0.4121  0.6435
 8502TIP3    H146997   2.145   5.492  11.430  0.2861  1.2139  0.2214
 8502TIP3    H246998   2.127   5.504  11.281 -0.8977  0.1912  0.2579
 8503TIP3   OH246999   6.150   0.340   1.088 -0.1240  0.3990  0.6187
 8503TIP3    H147000   6.065   0.323   1.046 -0.3528  0.6558  0.9727
 8503TIP3    H247001   6.165   0.264   1.143  0.8805 -0.6475 -1.0348
 8504TIP3   OH247002   4.327   4.440   1.744 -0.2882  0.4222  0.3812
 8504TIP3    H147003   4.317   4.532   1.767 -0.2399  0.0694  1.9221
 8504TIP3    H247004   4.398   4.409   1.800 -1.6638 -1.0128  1.4383
 8505TIP3   OH247005   4.059   2.136  13.930  0.7349  0.2004 -0.1822
 8505TIP3    H147006   4.104   2.121  14.013 -0.3377 -0.9817  0.2314
 8505TIP3    H247007   4.005   2.058  13.918 -1.5535  1.6948 -0.3932
 8506TIP3   OH247008   6.022   0.929  12.131  0.8743  0.5148  0.4410
 8506TIP3    H147009   6.067   0.864  12.077  0.1435  0.3251  0.0510
 8506TIP3    H247010   6.021   1.008  12.076  0.5253  0.4500  0.3533
 8507TIP3   OH247011   0.585   5.599  11.583 -0.6523  0.3704  0.6074
 8507TIP3    H147012   0.657   5.584  11.644 -0.2091  0.7558  0.2015
 8507TIP3    H247013   0.627   5.599  11.497 -1.4759 -1.6128  0.1532
 8508TIP3   OH247014   5.350   0.704  13.385 -0.6915 -0.0669  0.0603
 8508TIP3    H147015   5.418   0.770  13.371 -1.5492  1.0674  0.9672
 8508TIP3    H247016   5.395   0.633  13.430  0.5301 -0.7113 -2.0199
 8509TIP3   OH247017   4.763   4.418   4.611  0.4224 -0.2113 -0.2447
 8509TIP3    H147018   4.676   4.426   4.650  1.2724 -2.0070  2.3011
 8509TIP3    H247019   4.747   4.394   4.520 -1.6870  1.9191 -0.5301
 8510TIP3   OH247020   3.022   3.825   5.825 -0.5856 -0.4793 -0.1419
 8510TIP3    H147021   3.105   3.804   5.868  0.3019 -0.5936 -1.8441
 8510TIP3    H247022   2.967   3.860   5.895  1.1513  0.3414  0.8746
 8511TIP3   OH247023   1.591   1.244   3.809  0.1584  0.2059 -0.3278
 8511TIP3    H147024   1.665   1.224   3.866  0.5891  0.8718 -0.6399
 8511TIP3    H247025   1.599   1.181   3.737  0.5158  0.3702 -0.4354
 8512TIP3   OH247026   1.968   4.878   5.066 -0.4309 -0.3105 -0.1095
 8512TIP3    H147027   1.974   4.806   5.004  0.8432  0.3963 -0.8472
 8512TIP3    H247028   1.884   4.919   5.047  0.5568  0.7896 -2.4292
 8513TIP3   OH247029   3.522   2.359   4.411  0.4392  0.8067 -0.5547
 8513TIP3    H147030   3.510   2.447   4.446  1.5705  0.4664  0.7544
 8513TIP3    H247031   3.540   2.373   4.318  2.6757  2.1704  0.0060
 8514TIP3   OH247032   6.266   4.166   5.679  0.5962 -0.1341  0.5858
 8514TIP3    H147033   6.246   4.228   5.749 -1.0381  1.2094 -0.9651
 8514TIP3    H247034   6.350   4.197   5.644 -0.1475  1.1858 -0.0999
 8515TIP3   OH247035   0.288   5.233  10.675  0.3348 -0.3538 -0.2816
 8515TIP3    H147036   0.264   5.272  10.591 -1.0179 -0.4267  0.0525
 8515TIP3    H247037   0.262   5.141  10.667 -0.0361 -0.3029  0.3062
 8516TIP3   OH247038   4.750   6.684  13.978  0.2906 -0.0476 -0.2086
 8516TIP3    H147039   4.735   6.687  13.884 -0.4164  1.3186 -0.0933
 8516TIP3    H247040   4.663   6.698  14.016  0.7566  0.7921  0.6056
 8517TIP3   OH247041   2.413   4.063  16.562 -0.1145  0.4621 -0.4711
 8517TIP3    H147042   2.333   4.115  16.559 -1.1575 -1.1118 -0.9768
 8517TIP3    H247043   2.474   4.111  16.506 -0.8156  1.4860 -0.3981
 8518TIP3   OH247044   4.476   0.444  10.477  0.1408 -0.1307  0.2450
 8518TIP3    H147045   4.564   0.468  10.506 -0.2189  1.6476 -0.0156
 8518TIP3    H247046   4.426   0.432  10.558  0.8710 -2.3574  0.4281
 8519TIP3   OH247047   6.672   5.732  16.144 -0.1538 -0.3939  0.7860
 8519TIP3    H147048   6.675   5.690  16.230 -0.2977 -1.3674  0.3291
 8519TIP3    H247049   6.739   5.801  16.149  0.7821 -1.2994  1.2539
 8520TIP3   OH247050   1.756   3.851   4.396 -0.4263 -0.0831  0.4910
 8520TIP3    H147051   1.850   3.865   4.394 -0.0723 -2.2176 -0.2848
 8520TIP3    H247052   1.742   3.792   4.470 -1.0328 -0.4411  0.1022
 8521TIP3   OH247053   0.571   5.835  13.919  0.6868 -1.0348 -0.3305
 8521TIP3    H147054   0.571   5.744  13.891  1.4065 -0.9842 -0.5060
 8521TIP3    H247055   0.613   5.834  14.005 -0.4929 -1.0345  0.2768
 8522TIP3   OH247056   3.858   5.918  11.740  0.0053  0.0473 -0.4402
 8522TIP3    H147057   3.857   5.952  11.650  0.7243 -0.5686 -0.6892
 8522TIP3    H247058   3.901   5.833  11.733 -0.6232 -0.3551  0.3765
 8523TIP3   OH247059   6.608   6.699   2.604 -0.0448  0.2157  0.3769
 8523TIP3    H147060   6.514   6.682   2.608 -0.2275  1.4147  2.4206
 8523TIP3    H247061   6.629   6.737   2.689  2.0433  1.2598 -0.5413
 8524TIP3   OH247062   5.654   2.789   1.985  0.2128  0.1902  0.1882
 8524TIP3    H147063   5.620   2.731   2.053 -0.7314  2.5479  1.8769
 8524TIP3    H247064   5.725   2.739   1.944 -0.7733 -2.2500  1.2361
 8525TIP3   OH247065   0.866   0.058  17.050 -0.2023  0.1196 -0.0579
 8525TIP3    H147066   0.954   0.058  17.012 -0.6523  1.0765 -1.1703
 8525TIP3    H247067   0.880   0.043  17.143  0.9458 -2.5552 -0.5572
 8526TIP3   OH247068   5.745   0.861   5.528 -0.0714  0.2663 -0.1589
 8526TIP3    H147069   5.830   0.886   5.563  0.3701  0.1359 -1.0864
 8526TIP3    H247070   5.725   0.777   5.570  0.9180 -0.3946 -0.9467
 8527TIP3   OH247071   1.007   3.034  10.290  0.0513  0.3792  0.2442
 8527TIP3    H147072   1.087   3.067  10.332  0.6929 -1.0755  0.2233
 8527TIP3    H247073   0.956   2.997  10.362 -0.9862  1.9288  0.3737
 8528TIP3   OH247074   5.126   1.818   2.706 -0.3552  0.0403  0.4652
 8528TIP3    H147075   5.193   1.781   2.649 -0.3183 -0.7219  0.9825
 8528TIP3    H247076   5.072   1.743   2.731 -1.7762  0.7224 -0.4221
 8529TIP3   OH247077   0.624   2.864  15.598  0.9580  0.4127  0.1263
 8529TIP3    H147078   0.666   2.937  15.553 -0.0679 -0.0837 -1.7579
 8529TIP3    H247079   0.541   2.898  15.629  0.1565 -0.0494 -1.3713
 8530TIP3   OH247080   5.267   5.436  11.894  0.2160  0.0997 -0.0695
 8530TIP3    H147081   5.275   5.530  11.906 -0.9991  0.3506 -1.0681
 8530TIP3    H247082   5.269   5.400  11.983 -0.6578  1.1856  0.4113
 8531TIP3   OH247083   1.941   3.791  16.767  0.1029  0.1649  0.4534
 8531TIP3    H147084   2.032   3.809  16.743  0.1745 -0.7786 -0.0265
 8531TIP3    H247085   1.945   3.707  16.814 -0.4808  0.2865  0.7302
 8532TIP3   OH247086   4.976   1.935  16.285  0.0211  0.6091  1.0798
 8532TIP3    H147087   4.903   1.996  16.291 -2.3661 -1.7099 -1.3921
 8532TIP3    H247088   4.959   1.871  16.355 -1.9447 -1.3148 -0.9806
 8533TIP3   OH247089   6.802   5.334  16.189 -0.2017 -0.3105 -0.1557
 8533TIP3    H147090   6.837   5.390  16.120  1.2855 -1.6855 -0.5794
 8533TIP3    H247091   6.870   5.268  16.203 -1.9077 -2.0847  0.2241
 8534TIP3   OH247092   5.066   6.029   4.272 -0.2969  0.4416  0.0484
 8534TIP3    H147093   5.087   5.971   4.345 -0.8633 -0.7051 -0.6652
 8534TIP3    H247094   5.104   6.114   4.296 -1.1072  0.3010  2.0126
 8535TIP3   OH247095   3.862   2.738   3.039  0.1447  0.1584  0.1752
 8535TIP3    H147096   3.837   2.646   3.029 -1.8144  0.6762 -0.0951
 8535TIP3    H247097   3.840   2.778   2.955 -0.0257  1.0850  0.6470
 8536TIP3   OH247098   4.748   1.454  16.027 -0.0625 -0.2498  0.1335
 8536TIP3    H147099   4.771   1.449  16.120 -1.4830 -0.3039  0.4950
 8536TIP3    H247100   4.833   1.465  15.983  0.4761  2.8468  1.6241
 8537TIP3   OH247101   5.236   5.709  11.879 -0.2833  0.3082 -0.0215
 8537TIP3    H147102   5.195   5.774  11.823  0.2228 -0.1708 -0.9622
 8537TIP3    H247103   5.322   5.746  11.901 -0.8367  0.9170  1.2334
 8538TIP3   OH247104   4.134   0.330   5.574 -0.3035 -0.4343  0.0894
 8538TIP3    H147105   4.226   0.324   5.549 -0.1681  1.0142  0.1271
 8538TIP3    H247106   4.124   0.420   5.605 -1.7813 -0.5029 -0.1339
 8539TIP3   OH247107   5.779   3.064  15.659 -0.5754 -0.7077 -0.1979
 8539TIP3    H147108   5.801   3.138  15.716 -0.8711 -1.3135  0.7288
 8539TIP3    H247109   5.843   2.997  15.681 -1.0050 -1.1294 -0.2203
 8540TIP3   OH247110   5.659   3.613  15.276  0.4925  0.8812  0.1906
 8540TIP3    H147111   5.707   3.695  15.285 -1.1382  1.7205  2.2019
 8540TIP3    H247112   5.723   3.550  15.245  2.7997  2.0143  2.3439
 8541TIP3   OH247113   5.884   3.138   0.022 -0.0789 -0.1393  0.1565
 8541TIP3    H147114   5.901   3.232   0.013  0.1141  0.1428  2.6192
 8541TIP3    H247115   5.929   3.098  -0.052  0.3757  1.6624 -0.5975
 8542TIP3   OH247116   1.622   3.231  14.611 -0.6425  0.1282 -0.0985
 8542TIP3    H147117   1.542   3.281  14.595 -2.8792 -2.5898  1.6950
 8542TIP3    H247118   1.629   3.173  14.535 -0.4136  0.3094 -0.2166
 8543TIP3   OH247119   1.326   5.264   1.460  0.1332  0.4025 -0.3015
 8543TIP3    H147120   1.281   5.270   1.376 -2.2532  1.2916  0.9726
 8543TIP3    H247121   1.355   5.172   1.464 -1.9796 -0.3605 -1.0106
 8544TIP3   OH247122   5.634   6.643  12.186 -0.0844  0.5038 -0.4741
 8544TIP3    H147123   5.614   6.731  12.218  0.7906  0.3611  0.5211
 8544TIP3    H247124   5.712   6.656  12.131  0.4166  0.2705  0.1726
 8545TIP3   OH247125   5.491   4.392   3.528 -0.1889  0.1168  0.2493
 8545TIP3    H147126   5.554   4.325   3.555 -1.8146 -1.9966 -0.9077
 8545TIP3    H247127   5.481   4.379   3.434 -3.0325 -0.3072  0.5255
 8546TIP3   OH247128   0.657   0.755   2.142  0.1511  0.7739  0.6533
 8546TIP3    H147129   0.581   0.708   2.109  1.8187 -2.6926  1.3205
 8546TIP3    H247130   0.621   0.819   2.204 -2.2409 -0.4243  0.5978
 8547TIP3   OH247131   0.113   6.500  13.166 -0.3862 -0.0249  0.1388
 8547TIP3    H147132   0.019   6.494  13.151 -0.5259 -0.6568  1.1465
 8547TIP3    H247133   0.138   6.415  13.201  0.7027 -0.1093 -0.7702
 8548TIP3   OH247134   2.065   2.194   3.248  0.2862  0.0851  0.0267
 8548TIP3    H147135   2.021   2.256   3.308 -2.7439 -1.1822 -0.6789
 8548TIP3    H247136   2.095   2.123   3.305  1.0258  0.7304  0.4661
 8549TIP3   OH247137   4.954   6.338  12.284  0.3963 -0.4190 -0.4773
 8549TIP3    H147138   4.986   6.250  12.263 -1.6853 -1.4419  0.2880
 8549TIP3    H247139   4.997   6.361  12.366 -2.0901 -2.6443  1.6604
 8550TIP3   OH247140   6.353   3.416   2.205 -0.4628 -0.1217 -0.5013
 8550TIP3    H147141   6.367   3.360   2.129  3.0723  0.2290 -0.2621
 8550TIP3    H247142   6.257   3.419   2.215 -1.0978 -0.5335 -4.5846
 8551TIP3   OH247143   0.313   2.527   1.802 -0.8986 -0.3343 -0.1600
 8551TIP3    H147144   0.375   2.525   1.729  1.3264  1.8694  1.5068
 8551TIP3    H247145   0.271   2.613   1.796 -0.4808  0.0006  1.2631
 8552TIP3   OH247146   1.378   6.550   2.516  0.7651 -0.3097 -0.1908
 8552TIP3    H147147   1.455   6.492   2.511  0.5150 -0.5729 -1.2282
 8552TIP3    H247148   1.373   6.591   2.430  0.2100  0.3267  0.1358
 8553TIP3   OH247149   0.333   3.631   4.876 -0.0798 -0.0534  0.0130
 8553TIP3    H147150   0.290   3.622   4.961  1.4279 -1.6332  0.6829
 8553TIP3    H247151   0.262   3.641   4.813 -1.1956  3.0739  1.6025
 8554TIP3   OH247152   2.481   3.506   4.071  0.5318 -0.5763  0.0769
 8554TIP3    H147153   2.546   3.468   4.131  0.6836 -2.4045 -1.1715
 8554TIP3    H247154   2.457   3.589   4.112  1.6563 -1.1054  1.9483
 8555TIP3   OH247155   1.511   3.672   2.256 -1.0081  0.1071  0.2743
 8555TIP3    H147156   1.588   3.691   2.310 -0.1619 -3.7197  0.7325
 8555TIP3    H247157   1.547   3.654   2.169 -1.9935  2.7337 -0.7729
 8556TIP3   OH247158   1.072   1.558   3.399  0.2747 -0.0070 -0.4396
 8556TIP3    H147159   1.061   1.489   3.334 -1.9940 -0.6185  0.4832
 8556TIP3    H247160   1.112   1.514   3.474 -0.7021 -0.2280 -0.0363
 8557TIP3   OH247161   1.949   6.582  16.966 -0.2551  0.3943  0.1152
 8557TIP3    H147162   1.932   6.638  17.042 -0.6082 -0.4232  0.6521
 8557TIP3    H247163   2.038   6.549  16.980  0.4599  1.7914 -0.8509
 8558TIP3   OH247164   2.570   0.997   2.243 -0.4756  0.2620  0.6085
 8558TIP3    H147165   2.504   1.051   2.199 -1.1492 -1.3557 -0.4408
 8558TIP3    H247166   2.521   0.924   2.280  0.7807 -1.5454 -1.0850
 8559TIP3   OH247167   1.475   4.670   0.221 -0.3599 -0.3110 -0.3285
 8559TIP3    H147168   1.522   4.652   0.302 -1.3008  1.3925  0.6508
 8559TIP3    H247169   1.447   4.761   0.229 -0.8853 -0.2379 -2.3763
 8560TIP3   OH247170   3.687   4.945  11.227 -0.0299 -0.0226  0.5445
 8560TIP3    H147171   3.710   4.892  11.303  1.6394  0.4779  0.4296
 8560TIP3    H247172   3.649   4.882  11.165 -0.0510 -0.6937  1.2187
 8561TIP3   OH247173   5.736   2.389  12.009  0.8004  0.4106  0.2745
 8561TIP3    H147174   5.816   2.426  12.045  0.2359  2.5944 -0.5976
 8561TIP3    H247175   5.708   2.451  11.941 -1.0590 -0.8269 -0.1812
 8562TIP3   OH247176   3.713   3.928   3.117  0.2756 -0.3982  0.3399
 8562TIP3    H147177   3.678   3.986   3.185 -0.6306 -0.2394 -0.2387
 8562TIP3    H247178   3.667   3.845   3.131 -0.6544 -0.0752 -0.6645
 8563TIP3   OH247179   4.431   3.094   5.853  0.6513  0.1372 -0.0964
 8563TIP3    H147180   4.339   3.076   5.837  0.6118  1.5798 -1.9735
 8563TIP3    H247181   4.452   3.047   5.933 -1.8270  0.1637  0.6445
 8564TIP3   OH247182   2.542   5.847  11.974 -0.0541 -0.2602 -0.0070
 8564TIP3    H147183   2.462   5.855  12.026 -0.5706  1.4126 -0.9688
 8564TIP3    H247184   2.610   5.885  12.029 -0.4460  0.7880 -0.2308
 8565TIP3   OH247185   1.704   2.605  12.137  0.4729  0.6858  0.7133
 8565TIP3    H147186   1.769   2.661  12.094  0.5404 -1.2282 -1.9029
 8565TIP3    H247187   1.626   2.660  12.144  0.7545  1.3742 -1.1232
 8566TIP3   OH247188   4.236   6.152   3.045 -0.1751 -0.5266 -0.2979
 8566TIP3    H147189   4.251   6.079   3.105  0.8576 -0.3198 -0.2741
 8566TIP3    H247190   4.185   6.115   2.973 -1.4527 -0.7741  0.6973
 8567TIP3   OH247191   2.251   5.785   2.114  0.5320 -0.2650  0.1947
 8567TIP3    H147192   2.216   5.794   2.026 -3.2367 -2.3741  1.2546
 8567TIP3    H247193   2.286   5.696   2.117 -0.6769 -0.7466  1.1275
 8568TIP3   OH247194   4.498   4.441   4.619  0.0695 -0.4759 -0.2190
 8568TIP3    H147195   4.429   4.416   4.680 -2.1370  1.9051 -1.5213
 8568TIP3    H247196   4.468   4.408   4.535  0.2623  0.9361 -0.8669
 8569TIP3   OH247197   1.682   5.585   5.081  0.3848 -0.1760  0.8425
 8569TIP3    H147198   1.647   5.670   5.109  0.3849 -0.0264  0.4021
 8569TIP3    H247199   1.620   5.555   5.014  1.2619  0.2523 -0.1953
 8570TIP3   OH247200   6.484   0.911  13.484  0.3909  0.3013 -0.3826
 8570TIP3    H147201   6.484   1.007  13.487 -1.3862  0.3350  0.2415
 8570TIP3    H247202   6.549   0.885  13.549 -1.3984  1.1510  1.9304
 8571TIP3   OH247203   5.193   2.798  10.715  0.5651  0.2773 -0.3550
 8571TIP3    H147204   5.204   2.818  10.622 -1.2996  0.1452 -0.6262
 8571TIP3    H247205   5.099   2.802  10.730  0.7801 -0.3836  1.3910
 8572TIP3   OH247206   3.804   2.862   1.980 -0.0761  0.0556 -0.4777
 8572TIP3    H147207   3.898   2.853   1.993 -0.3465 -1.2349  0.9704
 8572TIP3    H247208   3.785   2.808   1.904  0.5386  1.6053 -1.7767
 8573TIP3   OH247209   2.499   6.654   2.510  0.7690  0.4462  0.1436
 8573TIP3    H147210   2.534   6.692   2.590  1.9760  0.5583 -0.3994
 8573TIP3    H247211   2.576   6.613   2.468  0.2127  0.5607 -1.0376
 8574TIP3   OH247212   1.451   4.767  16.943 -0.1562 -0.3076  0.5558
 8574TIP3    H147213   1.463   4.688  16.995 -1.0144 -0.2722  0.8134
 8574TIP3    H247214   1.367   4.754  16.899  0.0915  0.1006 -0.0421
 8575TIP3   OH247215   3.866   3.511   1.520 -0.2601  0.2099  0.1462
 8575TIP3    H147216   3.888   3.419   1.535  1.1834  0.5354  0.1497
 8575TIP3    H247217   3.782   3.508   1.473  0.5112 -1.1518 -1.2477
 8576TIP3   OH247218   4.455   3.756   1.563 -0.1185 -0.4422 -0.5095
 8576TIP3    H147219   4.496   3.838   1.590  0.1722 -0.6760 -0.2320
 8576TIP3    H247220   4.473   3.749   1.469  1.6597 -1.1982 -0.1586
 8577TIP3   OH247221   1.462   2.468  15.272  0.4725  0.4780  0.1516
 8577TIP3    H147222   1.535   2.421  15.312  0.2453 -1.0877 -1.1316
 8577TIP3    H247223   1.398   2.477  15.342  0.9638 -0.2256  0.7089
 8578TIP3   OH247224   0.590   2.758   0.725 -0.7471  0.0693  0.3734
 8578TIP3    H147225   0.621   2.690   0.785 -0.9842 -0.4482 -0.0821
 8578TIP3    H247226   0.669   2.797   0.689 -0.6132 -0.3746  0.1823
 8579TIP3   OH247227   3.591   1.305   4.176 -0.1458  0.6280 -0.8057
 8579TIP3    H147228   3.672   1.292   4.225  0.1870  1.5005 -1.0951
 8579TIP3    H247229   3.617   1.295   4.084 -0.7291 -0.8294 -0.8391
 8580TIP3   OH247230   3.943   6.669   1.000 -0.4728  0.4450 -0.1743
 8580TIP3    H147231   4.032   6.643   0.976  0.0186  1.4044  0.5432
 8580TIP3    H247232   3.904   6.590   1.037  0.6927  0.4575  1.1665
 8581TIP3   OH247233   2.284   2.921   3.981  0.3040 -0.4616  0.0757
 8581TIP3    H147234   2.275   2.892   4.072 -0.0228  0.7290  0.4511
 8581TIP3    H247235   2.226   2.864   3.931 -1.2793  0.2878  0.9616
 8582TIP3   OH247236   5.385   4.689   2.584  0.1419 -0.7512 -0.3880
 8582TIP3    H147237   5.439   4.729   2.651 -0.2971  0.5717 -0.7837
 8582TIP3    H247238   5.413   4.598   2.581  1.8647 -0.2553 -0.1290
 8583TIP3   OH247239   4.949   3.225  15.092 -1.0113  0.4887  0.0224
 8583TIP3    H147240   4.907   3.223  15.178  1.0105  1.5513  1.0981
 8583TIP3    H247241   4.963   3.318  15.074  0.1093  0.2008 -0.6671
 8584TIP3   OH247242   6.657   2.413  16.222  0.0855  0.0455 -0.2658
 8584TIP3    H147243   6.623   2.454  16.301 -0.3738 -0.1762 -0.3404
 8584TIP3    H247244   6.736   2.462  16.201 -1.3359  2.0351 -1.3097
 8585TIP3   OH247245   6.133   2.137  12.908  0.3013 -0.1207 -0.3284
 8585TIP3    H147246   6.063   2.183  12.953  0.3581  0.2894 -0.6527
 8585TIP3    H247247   6.178   2.087  12.977  0.5213  0.6681  0.1037
 8586TIP3   OH247248   0.088   2.737   1.991 -0.0830  0.0712  0.3409
 8586TIP3    H147249   0.089   2.695   2.077  1.9915 -0.2911  0.1800
 8586TIP3    H247250   0.178   2.763   1.975 -0.5486  0.7698 -1.4326
 8587TIP3   OH247251   6.255   6.331  11.438 -0.3443  0.3764  0.3268
 8587TIP3    H147252   6.223   6.351  11.526  0.0304  0.5004  0.4376
 8587TIP3    H247253   6.296   6.245  11.447  0.9379  0.9915  0.6045
 8588TIP3   OH247254   1.545   2.821  11.117  0.2259  0.1829 -0.0949
 8588TIP3    H147255   1.525   2.885  11.049  0.0476  2.7742  2.1854
 8588TIP3    H247256   1.460   2.803  11.158  0.5503  0.0964  0.5616
 8589TIP3   OH247257   3.112   0.615   4.359 -0.2768  0.0297  0.2154
 8589TIP3    H147258   3.085   0.635   4.449 -0.9797 -0.1375  0.0471
 8589TIP3    H247259   3.094   0.695   4.310  0.3379  0.2047  0.2660
 8590TIP3   OH247260   0.787   6.280   2.392  0.1520  0.0242 -0.1086
 8590TIP3    H147261   0.844   6.241   2.458  1.2226  0.6004 -0.6589
 8590TIP3    H247262   0.782   6.373   2.416  1.0071  0.3565 -1.1172
 8591TIP3   OH247263   5.392   2.173  12.046  0.0022 -0.5133 -0.7576
 8591TIP3    H147264   5.346   2.091  12.028 -1.3796 -0.2234  1.1540
 8591TIP3    H247265   5.324   2.232  12.079  1.3377  0.7229 -0.1040
 8592TIP3   OH247266   4.413   1.273   0.780  0.3354  0.1712  0.0043
 8592TIP3    H147267   4.349   1.227   0.835  0.5580  0.8432  0.8474
 8592TIP3    H247268   4.476   1.205   0.755 -1.4150 -0.8544 -2.0444
 8593TIP3   OH247269   1.465   4.409  15.530 -0.1748  0.0245  0.3082
 8593TIP3    H147270   1.408   4.393  15.605 -0.2594 -2.6411 -0.2179
 8593TIP3    H247271   1.541   4.454  15.566 -0.1751 -1.2679  2.0483
 8594TIP3   OH247272   5.834   6.556   2.818 -0.0520  0.6389 -0.4407
 8594TIP3    H147273   5.811   6.466   2.797 -1.1300  0.7825  0.0429
 8594TIP3    H247274   5.846   6.598   2.733  1.3642 -0.1608 -0.6647
 8595TIP3   OH247275   0.015   3.224   6.334  0.2578  0.1290  0.5046
 8595TIP3    H147276   0.011   3.167   6.410 -1.7176 -3.0694 -1.7204
 8595TIP3    H247277  -0.062   3.280   6.342 -1.9512 -2.4936 -0.5429
 8596TIP3   OH247278   6.136   6.300   2.714  0.7429 -0.7192  0.3074
 8596TIP3    H147279   6.170   6.289   2.625 -1.2201  0.2322 -0.6108
 8596TIP3    H247280   6.110   6.392   2.718  3.2253  0.0092  2.8024
 8597TIP3   OH247281   3.652   3.977  12.643 -1.0005  0.0392  0.0199
 8597TIP3    H147282   3.745   3.995  12.650 -0.8943  0.2490 -1.5128
 8597TIP3    H247283   3.627   3.945  12.729  0.6427 -0.7607  0.2385
 8598TIP3   OH247284   3.136   1.079  12.801 -0.0979  0.0885 -0.4867
 8598TIP3    H147285   3.174   1.149  12.854 -0.3908 -0.2764  0.2225
 8598TIP3    H247286   3.207   1.049  12.744  0.0919  0.8001 -0.6247
 8599TIP3   OH247287   4.367   3.870   0.764  0.1042 -0.4122  0.6286
 8599TIP3    H147288   4.351   3.785   0.723  1.3326 -0.3769  0.0267
 8599TIP3    H247289   4.314   3.932   0.714  0.8463 -0.5194 -0.3319
 8600TIP3   OH247290   4.399   1.898   5.972  0.4374  0.0625 -0.1329
 8600TIP3    H147291   4.451   1.976   5.986 -1.9213  1.5819  0.7795
 8600TIP3    H247292   4.368   1.905   5.882 -1.5674  1.4599  0.5808
 8601TIP3   OH247293   1.243   0.269   1.531 -0.2593  0.3947  0.1725
 8601TIP3    H147294   1.162   0.224   1.556 -0.4855 -0.2499 -1.5860
 8601TIP3    H247295   1.309   0.234   1.590 -0.5078 -2.0373 -0.8810
 8602TIP3   OH247296   3.737   4.266   2.601  0.1328 -0.6348 -0.0846
 8602TIP3    H147297   3.804   4.247   2.536  1.3521  2.7782 -0.0146
 8602TIP3    H247298   3.764   4.217   2.679  1.8590 -0.2670 -0.4252
 8603TIP3   OH247299   4.828   3.442   5.770  0.4875  0.6425  0.3962
 8603TIP3    H147300   4.797   3.471   5.855  1.9291 -0.3110  1.2821
 8603TIP3    H247301   4.769   3.485   5.707 -2.3748 -0.7639  1.9155
 8604TIP3   OH247302   6.268   0.157   4.733 -0.3616  0.3186 -0.1658
 8604TIP3    H147303   6.211   0.085   4.706 -0.7465 -0.6352  2.8201
 8604TIP3    H247304   6.209   0.231   4.746 -0.1119  0.9143 -2.2171
 8605TIP3   OH247305   3.868   2.402  11.937 -0.0763  0.2141 -0.0389
 8605TIP3    H147306   3.793   2.460  11.925  0.1344  0.1658 -1.7894
 8605TIP3    H247307   3.944   2.457  11.921  0.3143  0.2671  1.7475
 8606TIP3   OH247308   2.023   6.415   0.915 -0.3261 -0.1159 -0.4183
 8606TIP3    H147309   2.009   6.499   0.873  1.5257  0.3108 -0.2797
 8606TIP3    H247310   1.942   6.397   0.962 -0.8509  1.4428 -0.6866
 8607TIP3   OH247311   5.984   3.702   1.806 -0.1051  0.1939  0.8211
 8607TIP3    H147312   6.009   3.705   1.898  4.5038 -1.5244 -0.1150
 8607TIP3    H247313   5.968   3.794   1.782  3.6462  1.4252  2.3093
 8608TIP3   OH247314   1.642   3.544   0.282  0.3707  0.2418 -0.0179
 8608TIP3    H147315   1.728   3.524   0.246  0.1702 -0.6317 -0.0359
 8608TIP3    H247316   1.581   3.496   0.226 -0.1243  0.7264  0.0906
 8609TIP3   OH247317   4.128   0.423   2.856  0.2729 -0.1754  0.0957
 8609TIP3    H147318   4.137   0.457   2.767 -0.2209  2.3459  0.9012
 8609TIP3    H247319   4.213   0.385   2.877  0.0841 -1.7533 -1.7571
 8610TIP3   OH247320   6.739   0.893  15.061  0.3364  0.5112 -0.2286
 8610TIP3    H147321   6.817   0.949  15.065 -0.9652  2.3951 -0.5573
 8610TIP3    H247322   6.682   0.934  14.997 -1.9367  0.4824  1.6445
 8611TIP3   OH247323   0.210   3.385   3.774 -0.4139  0.0597  0.0413
 8611TIP3    H147324   0.228   3.457   3.713  1.4034 -0.3417  0.0386
 8611TIP3    H247325   0.164   3.426   3.847 -1.3824  0.8019 -0.9569
 8612TIP3   OH247326   6.562   5.356  14.442  0.4011  0.4492  0.3159
 8612TIP3    H147327   6.535   5.438  14.484  0.6391  0.5539  0.2664
 8612TIP3    H247328   6.616   5.384  14.368 -0.3240  0.2774 -0.2852
 8613TIP3   OH247329   2.831   4.081   1.615  0.6742  0.9379 -0.2341
 8613TIP3    H147330   2.891   4.036   1.676  0.8697 -0.1636 -1.1963
 8613TIP3    H247331   2.867   4.169   1.607  1.9865  0.4054 -0.5008
 8614TIP3   OH247332   6.036   0.207  14.089  0.0650  0.4738 -0.3259
 8614TIP3    H147333   5.941   0.200  14.079  0.0156  0.6568 -0.0106
 8614TIP3    H247334   6.071   0.136  14.036 -0.3750 -2.2254  2.6809
 8615TIP3   OH247335   3.090   5.771  16.011 -0.4323  0.3610  0.4553
 8615TIP3    H147336   3.026   5.768  15.939 -0.9125 -2.1101  0.9014
 8615TIP3    H247337   3.175   5.760  15.968 -0.4070  1.9144  0.0321
 8616TIP3   OH247338   5.230   0.964  16.881  0.1858 -0.2801  0.4657
 8616TIP3    H147339   5.188   0.888  16.921  2.0054 -1.4092  0.3462
 8616TIP3    H247340   5.320   0.960  16.911  0.8525  0.6021 -1.2676
 8617TIP3   OH247341   3.625   5.484  14.274  0.2286  0.7555  0.3275
 8617TIP3    H147342   3.598   5.540  14.346 -0.8801  3.2946 -1.8912
 8617TIP3    H247343   3.545   5.464  14.226  0.7247 -2.0570  0.4466
 8618TIP3   OH247344   3.224   1.281   4.465 -0.2768  0.2106  0.2083
 8618TIP3    H147345   3.180   1.334   4.399 -1.0350  1.2472  1.4917
 8618TIP3    H247346   3.170   1.202   4.472 -0.1416  0.0596 -0.4712
 8619TIP3   OH247347   4.539   1.598  17.090 -0.3844  0.0065  0.3714
 8619TIP3    H147348   4.455   1.610  17.045  1.6467  0.2491 -3.7976
 8619TIP3    H247349   4.561   1.506  17.077  0.5507  0.2206  0.3501
 8620TIP3   OH247350   4.075   0.603  11.630 -0.2150  0.4387  0.2475
 8620TIP3    H147351   4.003   0.540  11.631 -0.2610  0.4952  0.6971
 8620TIP3    H247352   4.127   0.581  11.707 -0.6012  1.3686  0.7927
 8621TIP3   OH247353   0.377   1.722  17.326  0.0422  0.0198 -0.1618
 8621TIP3    H147354   0.302   1.722  17.267  0.1878 -0.7885 -0.3645
 8621TIP3    H247355   0.444   1.672  17.280  0.8035  0.9654 -0.0981
 8622TIP3   OH247356   3.684   6.376  11.403  0.4328 -0.6357  0.3264
 8622TIP3    H147357   3.602   6.329  11.415  0.0437 -0.0693 -0.0845
 8622TIP3    H247358   3.696   6.424  11.485  0.1717 -0.4418  0.2519
 8623TIP3   OH247359   3.548   4.793   4.881 -0.0835 -0.5495 -1.2435
 8623TIP3    H147360   3.596   4.874   4.898 -0.2117 -0.6416 -0.3988
 8623TIP3    H247361   3.611   4.736   4.837  0.0886 -0.1008 -1.5918
 8624TIP3   OH247362   0.691   1.560   0.169  0.3230 -0.2145 -0.2216
 8624TIP3    H147363   0.645   1.609   0.101 -0.1015  1.4314  1.1814
 8624TIP3    H247364   0.782   1.587   0.161  0.4852 -0.9342 -0.8791
 8625TIP3   OH247365   2.305   4.741   3.512  0.1949 -0.2772  0.1332
 8625TIP3    H147366   2.274   4.651   3.502  0.1575 -0.3708  1.0661
 8625TIP3    H247367   2.306   4.756   3.606 -1.3103  1.2087 -0.0264
 8626TIP3   OH247368   0.286   6.581  10.431 -0.1183 -0.1041  0.1670
 8626TIP3    H147369   0.241   6.506  10.470 -0.4523  0.2642  0.5065
 8626TIP3    H247370   0.270   6.653  10.493  1.5191 -0.1255  0.6490
 8627TIP3   OH247371   1.831   0.473  11.601  0.0623  0.0717 -0.1666
 8627TIP3    H147372   1.864   0.537  11.538 -1.0943 -1.6727 -2.7292
 8627TIP3    H247373   1.905   0.455  11.659  2.1248 -0.1802 -2.7210
 8628TIP3   OH247374   1.844   0.792  16.990 -0.5807 -0.2404 -0.0653
 8628TIP3    H147375   1.814   0.858  16.926  1.1550  1.7335  1.0394
 8628TIP3    H247376   1.788   0.805  17.066 -1.4844 -1.3870 -0.5083
 8629TIP3   OH247377   4.452   4.741   0.596 -0.7137 -0.1902  0.1275
 8629TIP3    H147378   4.412   4.712   0.514 -1.4367 -0.7241  0.6622
 8629TIP3    H247379   4.544   4.719   0.587 -0.3676  1.5952 -1.3696
 8630TIP3   OH247380   2.513   2.456  13.226  0.5289 -0.4645  0.1304
 8630TIP3    H147381   2.591   2.499  13.191  0.4877 -0.4436  0.0646
 8630TIP3    H247382   2.495   2.503  13.308  0.6100 -0.4978  0.1675
 8631TIP3   OH247383   3.935   6.615  11.743  0.3148  0.0852  0.1320
 8631TIP3    H147384   3.879   6.635  11.818 -0.4639  0.2442 -0.4740
 8631TIP3    H247385   3.984   6.695  11.727  0.7355 -0.0567  0.6718
 8632TIP3   OH247386   5.333   6.624   5.817 -0.2382  0.3037 -0.1113
 8632TIP3    H147387   5.411   6.672   5.846 -1.0867 -0.1407  3.4521
 8632TIP3    H247388   5.273   6.693   5.789  0.0995  1.0085  0.8086
 8633TIP3   OH247389   6.753   1.023   0.759  0.8490  0.0729  0.6563
 8633TIP3    H147390   6.734   1.117   0.748 -0.6025 -0.1165  1.3080
 8633TIP3    H247391   6.841   1.021   0.795  0.4484  1.2642  1.7893
 8634TIP3   OH247392   3.990   5.804   4.382 -0.3949  0.0574  0.9106
 8634TIP3    H147393   3.899   5.824   4.403 -0.1643 -0.2048  2.2395
 8634TIP3    H247394   3.988   5.780   4.289 -1.6930 -0.0205  0.9347
 8635TIP3   OH247395   1.148   1.770   4.199 -0.5861  0.2662 -0.0595
 8635TIP3    H147396   1.200   1.738   4.273 -1.1203  2.0106  1.1367
 8635TIP3    H247397   1.131   1.692   4.146  0.2565 -0.9527  1.3823
 8636TIP3   OH247398   2.326   1.582   6.460  0.4322 -0.3537  0.0708
 8636TIP3    H147399   2.323   1.604   6.553  0.8488 -0.3788  0.0919
 8636TIP3    H247400   2.344   1.666   6.416 -1.0273 -0.1030 -0.0928
 8637TIP3   OH247401   6.358   1.002   4.028 -0.2551 -0.0164 -0.4102
 8637TIP3    H147402   6.426   0.969   3.970 -1.7424  0.8444 -2.7840
 8637TIP3    H247403   6.372   1.096   4.032  0.2125 -0.1268  1.2171
 8638TIP3   OH247404   0.699   1.514   6.064 -0.2601 -0.4397 -0.0061
 8638TIP3    H147405   0.707   1.421   6.083 -1.8531 -0.7565 -0.7156
 8638TIP3    H247406   0.616   1.540   6.106  0.3199  0.7391  0.4594
 8639TIP3   OH247407   0.513   4.611  11.932 -0.3558 -0.0191 -0.8422
 8639TIP3    H147408   0.426   4.637  11.962 -0.5756 -0.1021 -1.4142
 8639TIP3    H247409   0.499   4.529  11.885  0.6870 -3.2054  3.6936
 8640TIP3   OH247410   2.993   2.959  14.436 -0.1987 -0.7808 -0.4397
 8640TIP3    H147411   2.901   2.956  14.461 -0.7482  0.5717 -2.0798
 8640TIP3    H247412   2.997   2.905  14.356  0.8044 -2.2003  0.5175
 8641TIP3   OH247413   0.858   0.479   4.026 -0.3771 -0.0345  0.2505
 8641TIP3    H147414   0.927   0.545   4.019 -1.4919  1.0690 -0.7836
 8641TIP3    H247415   0.885   0.412   3.962  0.0488  0.0895  0.2919
 8642TIP3   OH247416   5.616   1.771  14.698  0.3746 -0.1050 -0.6500
 8642TIP3    H147417   5.665   1.698  14.734 -0.8857 -0.0115  1.4430
 8642TIP3    H247418   5.665   1.849  14.725  0.2319 -0.0966 -0.4049
 8643TIP3   OH247419   1.429   5.553   0.691  0.4313  0.1116  0.0471
 8643TIP3    H147420   1.416   5.524   0.601  0.1702 -0.1149  0.1578
 8643TIP3    H247421   1.499   5.498   0.725 -0.9506 -1.3406  0.6828
 8644TIP3   OH247422   5.124   0.310  16.096 -0.3412 -0.6438  0.3653
 8644TIP3    H147423   5.084   0.227  16.123 -0.6020 -1.1576 -1.4531
 8644TIP3    H247424   5.126   0.363  16.176  1.5174 -3.0309  2.0545
 8645TIP3   OH247425   4.915   6.126  11.873  0.3313 -0.4958  0.1151
 8645TIP3    H147426   4.935   6.118  11.966 -0.4157  2.1125  0.5812
 8645TIP3    H247427   4.834   6.177  11.871  0.3622 -0.4659 -1.9731
 8646TIP3   OH247428   2.575   5.310  14.623  0.0601  0.5492  0.2757
 8646TIP3    H147429   2.663   5.321  14.660  1.0425  1.2538 -2.0366
 8646TIP3    H247430   2.539   5.398  14.620  0.9548  0.9159 -2.4208
 8647TIP3   OH247431   2.770   5.590  12.623  0.4000  0.2182 -0.0021
 8647TIP3    H147432   2.692   5.565  12.574 -0.1861 -0.0611  1.0438
 8647TIP3    H247433   2.781   5.683  12.605 -1.0905  0.6249  1.0567
 8648TIP3   OH247434   0.909   3.389  13.808  0.1490 -0.0374 -0.4867
 8648TIP3    H147435   0.980   3.399  13.745  0.6998 -2.5796 -0.3580
 8648TIP3    H247436   0.908   3.296  13.829 -2.1741  0.1927  0.7702
 8649TIP3   OH247437   0.036   1.236   5.816 -0.0534  0.2110  0.4352
 8649TIP3    H147438   0.115   1.188   5.840  0.4329 -0.6486 -2.4922
 8649TIP3    H247439  -0.035   1.172   5.821  0.2568 -0.3383 -1.4308
 8650TIP3   OH247440   5.761   0.228   4.982  0.2630 -0.8685  0.1008
 8650TIP3    H147441   5.758   0.270   5.068  0.9395 -0.6976  0.0537
 8650TIP3    H247442   5.671   0.203   4.963 -0.2927  1.0621 -0.0961
 8651TIP3   OH247443   5.600   3.457  15.694  0.1191  0.4183  0.3150
 8651TIP3    H147444   5.588   3.366  15.721  0.6509 -0.5108 -2.2929
 8651TIP3    H247445   5.694   3.470  15.693  0.1478  0.2868 -1.2941
 8652TIP3   OH247446   5.973   6.738  14.971  0.4101 -0.1651 -0.1546
 8652TIP3    H147447   5.893   6.733  15.023  0.4971 -0.2231 -0.0268
 8652TIP3    H247448   6.002   6.647  14.963  1.1065 -0.0325  0.7903
 8653TIP3   OH247449   3.792   6.151  15.876  0.1653 -0.1603  0.2424
 8653TIP3    H147450   3.817   6.243  15.869 -0.4908  0.0935  0.9776
 8653TIP3    H247451   3.742   6.147  15.958 -0.2066 -1.0781 -0.0241
 8654TIP3   OH247452   0.760   3.497  13.382  0.4092 -0.3485 -0.0378
 8654TIP3    H147453   0.684   3.447  13.413 -1.5320  1.7722 -1.0495
 8654TIP3    H247454   0.783   3.554  13.456  1.3705 -1.3072  0.4304
 8655TIP3   OH247455   0.020   6.102   4.645  0.1303 -0.6645  0.0675
 8655TIP3    H147456   0.007   6.137   4.556 -1.8215  0.3794  0.6942
 8655TIP3    H247457  -0.060   6.127   4.692  0.6370 -2.1653  1.8275
 8656TIP3   OH247458   5.563   5.371  12.552 -0.4917  0.4226 -0.1673
 8656TIP3    H147459   5.655   5.392  12.569 -1.1429  1.1728  3.2931
 8656TIP3    H247460   5.564   5.277  12.531  1.0017  0.1850  0.7654
 8657TIP3   OH247461   0.659   6.700  13.423  0.1356  0.2106 -0.0917
 8657TIP3    H147462   0.750   6.713  13.394  0.6050  0.3328  1.3305
 8657TIP3    H247463   0.608   6.761  13.370  1.0590  1.0565 -0.0406
 8658TIP3   OH247464   6.184   1.770  15.379  0.1214 -0.4429 -0.3171
 8658TIP3    H147465   6.138   1.690  15.405 -0.1765 -0.1229  0.1475
 8658TIP3    H247466   6.115   1.836  15.372  0.6849  0.4881  2.0930
 8659TIP3   OH247467   4.825   2.099  13.056  0.1104  0.1636  0.1043
 8659TIP3    H147468   4.905   2.132  13.015 -0.1478 -0.4266 -0.8921
 8659TIP3    H247469   4.851   2.081  13.147  0.5373  2.0081  0.3921
 8660TIP3   OH247470   6.393   0.904   5.008 -0.5958 -0.2550  0.2956
 8660TIP3    H147471   6.426   0.860   4.929  0.5175  1.6683 -0.3974
 8660TIP3    H247472   6.301   0.920   4.991 -0.6243 -0.8837 -0.1355
 8661TIP3   OH247473   1.157   1.064  11.328  0.3138  0.2074  0.5608
 8661TIP3    H147474   1.163   1.102  11.416 -2.0397  1.0709  0.4354
 8661TIP3    H247475   1.104   0.985  11.339  2.3974 -1.3245  0.2891
 8662TIP3   OH247476   4.701   4.809  15.456  0.5255 -0.6425 -0.3215
 8662TIP3    H147477   4.617   4.782  15.420  0.6375 -2.4235  0.6585
 8662TIP3    H247478   4.724   4.741  15.519  1.2164  1.4015  1.7742
 8663TIP3   OH247479   3.527   6.624  14.281 -0.0954  0.2665  1.2642
 8663TIP3    H147480   3.550   6.573  14.359  1.0693  1.3254  1.6530
 8663TIP3    H247481   3.445   6.668  14.303 -0.8778 -1.0740  1.0855
 8664TIP3   OH247482   0.795   2.318  15.646  0.1879  0.1876 -0.2735
 8664TIP3    H147483   0.700   2.318  15.637  0.1676 -0.4388 -0.0919
 8664TIP3    H247484   0.828   2.310  15.556  0.0465 -0.9288 -0.2358
 8665TIP3   OH247485   6.420   6.534  13.119  0.2404 -0.6493  0.0461
 8665TIP3    H147486   6.500   6.482  13.124  2.0583  2.0098  0.6306
 8665TIP3    H247487   6.392   6.545  13.210 -0.4739 -1.0602 -0.1139
 8666TIP3   OH247488   5.205   0.230   0.365 -0.0959  0.4609 -0.2794
 8666TIP3    H147489   5.262   0.297   0.404 -1.1445  0.6355  1.0427
 8666TIP3    H247490   5.196   0.163   0.433  0.6557 -0.8906 -1.4570
 8667TIP3   OH247491   5.632   0.434   6.464  0.1644 -0.1742 -0.3209
 8667TIP3    H147492   5.672   0.518   6.485 -0.6359  0.2977 -0.6710
 8667TIP3    H247493   5.562   0.455   6.402  0.8924 -1.2555 -1.5737
 8668TIP3   OH247494   6.057   5.312  11.088 -0.1463  0.4540  0.4418
 8668TIP3    H147495   6.056   5.369  11.011  0.9523  0.3464  0.3362
 8668TIP3    H247496   6.027   5.227  11.055 -0.1618  0.5355  0.2434
 8669TIP3   OH247497   2.337   0.533  13.862 -0.3303  0.0660 -0.0728
 8669TIP3    H147498   2.342   0.618  13.818 -3.0701  0.2561 -0.2046
 8669TIP3    H247499   2.256   0.494  13.828  0.1659 -2.0152  1.0070
 8670TIP3   OH247500   0.536   6.746  13.033  0.1308 -0.2711  0.0614
 8670TIP3    H147501   0.488   6.717  12.956  3.4280  0.6511 -2.6252
 8670TIP3    H247502   0.618   6.696  13.030  0.5663  0.1346  2.7643
 8671TIP3   OH247503   5.201   2.435   5.960 -0.3022 -0.1700 -0.0507
 8671TIP3    H147504   5.172   2.490   5.886 -0.7025  1.2418  1.1164
 8671TIP3    H247505   5.143   2.460   6.032  0.8286 -0.6749  1.0638
 8672TIP3   OH247506   6.388   2.507   2.186 -0.2348 -0.2832 -0.5876
 8672TIP3    H147507   6.449   2.512   2.113 -0.3665 -0.8022 -0.7321
 8672TIP3    H247508   6.419   2.574   2.247 -0.9914  1.2029 -1.7597
 8673TIP3   OH247509   0.121   3.531  14.773  0.4713 -0.5238 -0.3178
 8673TIP3    H147510   0.156   3.490  14.693  1.2966  2.6124 -1.6896
 8673TIP3    H247511   0.179   3.605  14.790 -1.6586  0.8981  1.2777
 8674TIP3   OH247512   1.197   3.113   5.916 -0.1042 -0.4073 -0.6557
 8674TIP3    H147513   1.274   3.103   5.972 -0.2795 -1.6123 -0.5882
 8674TIP3    H247514   1.231   3.101   5.827 -0.2872 -1.5412 -0.5874
 8675TIP3   OH247515   4.803   4.563   4.917  0.2867 -0.5696 -0.6188
 8675TIP3    H147516   4.769   4.475   4.905 -0.0653 -0.7412  1.3189
 8675TIP3    H247517   4.740   4.606   4.974  0.4810  0.9340 -1.4872
 8676TIP3   OH247518   2.938   3.093  12.175  0.3058 -0.3688  0.4848
 8676TIP3    H147519   2.994   3.019  12.151  0.1007  0.0264 -1.3457
 8676TIP3    H247520   2.869   3.053  12.229  1.7303 -1.0146  1.9310
 8677TIP3   OH247521   0.666   2.469   1.765 -0.4182 -0.7401 -0.2940
 8677TIP3    H147522   0.747   2.453   1.717 -0.0230  0.5440 -0.0905
 8677TIP3    H247523   0.645   2.386   1.807  1.2481 -0.8580  0.3428
 8678TIP3   OH247524   3.615   6.747   5.992  0.0750  0.1404 -0.2996
 8678TIP3    H147525   3.545   6.806   5.965 -0.3565 -0.9581 -1.6679
 8678TIP3    H247526   3.695   6.790   5.962 -0.0797  0.8953  0.3417
 8679TIP3   OH247527   5.607   5.284   2.576  0.0408 -0.2150  0.0409
 8679TIP3    H147528   5.539   5.323   2.630 -0.6885  0.1264 -1.0902
 8679TIP3    H247529   5.686   5.288   2.630 -0.8772 -0.9139  1.4985
 8680TIP3   OH247530   3.877   0.881   1.807 -0.0123 -0.5099  0.3608
 8680TIP3    H147531   3.958   0.922   1.837  0.2484 -1.1815  0.5859
 8680TIP3    H247532   3.811   0.950   1.814  0.1081 -0.5340  2.1301
 8681TIP3   OH247533   1.657   1.380   5.471 -0.4566 -0.1833 -0.2698
 8681TIP3    H147534   1.596   1.332   5.527 -0.8225  1.1462  0.5032
 8681TIP3    H247535   1.602   1.417   5.402 -0.5700  1.0319  0.4371
 8682TIP3   OH247536   4.733   2.270   3.366  0.1019 -0.1370  0.2245
 8682TIP3    H147537   4.800   2.248   3.301  0.5014  1.9738 -0.1484
 8682TIP3    H247538   4.653   2.285   3.315  0.0581  0.1237  0.3671
 8683TIP3   OH247539   0.932   5.990   1.858 -0.3271 -0.6708 -0.5439
 8683TIP3    H147540   0.968   5.905   1.882 -1.2585 -0.9198  0.0219
 8683TIP3    H247541   0.847   5.970   1.818 -0.3693 -0.0314 -0.7879
 8684TIP3   OH247542   5.568   3.616   3.409  0.3662  0.0306  0.1498
 8684TIP3    H147543   5.611   3.534   3.434  1.3709  0.1718 -0.9958
 8684TIP3    H247544   5.480   3.590   3.382  0.8516 -0.7809 -0.7444
 8685TIP3   OH247545   0.055   5.928  16.145  0.0935  0.1761 -0.0705
 8685TIP3    H147546   0.078   5.932  16.238 -1.4120 -0.7173  0.3750
 8685TIP3    H247547  -0.003   6.003  16.131  0.0725  0.1329 -0.2161
 8686TIP3   OH247548   2.873   5.623  11.980  0.1148  0.2193 -0.1953
 8686TIP3    H147549   2.853   5.656  12.068 -0.4534 -0.1684 -0.1717
 8686TIP3    H247550   2.871   5.700  11.924  0.7035  0.5019  0.1670
 8687TIP3   OH247551   1.253   5.480  13.174 -0.3106 -0.1200 -0.0149
 8687TIP3    H147552   1.196   5.557  13.165  0.4346  0.4792  0.2636
 8687TIP3    H247553   1.332   5.514  13.217 -0.5482 -1.3148  1.4541
 8688TIP3   OH247554   0.699   2.130  12.632  0.4065  0.7371  0.0264
 8688TIP3    H147555   0.692   2.221  12.661  0.4768  0.8177 -0.2069
 8688TIP3    H247556   0.778   2.097  12.676  1.4836  1.3554 -1.3518
 8689TIP3   OH247557   1.246   6.317  12.138  0.4997 -0.1307  0.6221
 8689TIP3    H147558   1.155   6.329  12.113  0.8384 -1.6660 -1.6761
 8689TIP3    H247559   1.286   6.404  12.126 -0.2521  0.0998 -0.3633
 8690TIP3   OH247560   1.555   2.704   2.001 -0.1881  0.2588 -0.0281
 8690TIP3    H147561   1.541   2.623   2.052 -2.5333  1.0939  0.7710
 8690TIP3    H247562   1.535   2.679   1.911  1.2933 -0.5503 -0.1744
 8691TIP3   OH247563   0.701   5.893   6.203  0.4563  0.4136 -0.9028
 8691TIP3    H147564   0.721   5.949   6.278  1.3701 -0.3628 -0.5446
 8691TIP3    H247565   0.606   5.899   6.193  0.1935 -0.2605  0.9506
 8692TIP3   OH247566   2.472   5.481   1.757  0.6380  0.2091  0.0576
 8692TIP3    H147567   2.475   5.557   1.699  0.8946  0.4516  0.3861
 8692TIP3    H247568   2.503   5.514   1.842  0.2664 -0.1429  0.3317
 8693TIP3   OH247569   1.846   6.208   4.075  0.2348 -0.0470  0.3014
 8693TIP3    H147570   1.870   6.232   3.985  2.3286 -2.1381  0.2176
 8693TIP3    H247571   1.792   6.129   4.065  0.5529 -0.3429  0.8607
 8694TIP3   OH247572   0.963   6.031   3.551  0.0587  0.8020 -0.0807
 8694TIP3    H147573   0.890   6.082   3.518 -0.6747 -0.7806 -1.0610
 8694TIP3    H247574   0.957   6.037   3.646 -0.2079  2.2064 -0.1763
 8695TIP3   OH247575   0.002   3.898   3.408  0.1927 -0.1641 -0.2997
 8695TIP3    H147576   0.089   3.935   3.397  0.5886 -0.1063  2.3965
 8695TIP3    H247577  -0.057   3.963   3.369  1.2086  0.7935 -0.2822
 8696TIP3   OH247578   5.912   4.469  13.192 -0.0178 -0.3953  0.1927
 8696TIP3    H147579   5.885   4.550  13.150  0.2466  0.9072  2.4121
 8696TIP3    H247580   5.831   4.419  13.204 -0.3375  0.0336 -0.1630
 8697TIP3   OH247581   5.299   2.411  13.447  0.2260  0.1783  0.6150
 8697TIP3    H147582   5.237   2.340  13.463  1.4539 -1.0608  0.0637
 8697TIP3    H247583   5.336   2.431  13.533  0.8702 -0.8184  0.5830
 8698TIP3   OH247584   1.369   3.155  11.438 -0.3507  0.7529 -0.0067
 8698TIP3    H147585   1.369   3.244  11.474  1.7064  1.3860 -1.3785
 8698TIP3    H247586   1.337   3.166  11.348 -0.4509  0.0443 -0.0585
 8699TIP3   OH247587   3.170   5.048  16.294  0.2998  0.4182 -0.5628
 8699TIP3    H147588   3.146   5.032  16.385 -1.3543  0.9394 -0.8647
 8699TIP3    H247589   3.092   5.089  16.256  0.7732 -0.2192 -2.3335
 8700TIP3   OH247590   0.426   6.438  11.083  0.1059  0.3755 -0.1691
 8700TIP3    H147591   0.466   6.404  11.002  2.0710  1.7424  0.1664
 8700TIP3    H247592   0.368   6.508  11.053  1.7947  1.7590 -0.3922
 8701TIP3   OH247593   3.467   6.279  14.595 -0.5608  0.1524  0.5969
 8701TIP3    H147594   3.447   6.332  14.672  0.7621 -0.5041  1.4408
 8701TIP3    H247595   3.526   6.333  14.543 -1.1292  0.4361  0.2403
 8702TIP3   OH247596   0.746   6.185   1.115  0.3819 -0.2675  0.1953
 8702TIP3    H147597   0.678   6.251   1.100  1.5260  0.8272 -0.3492
 8702TIP3    H247598   0.721   6.112   1.059  0.1670  0.5155 -0.7544
 8703TIP3   OH247599   1.618   2.644   0.823 -0.8774 -0.0190  0.2144
 8703TIP3    H147600   1.559   2.684   0.758 -1.1081  1.0877  1.0729
 8703TIP3    H247601   1.684   2.600   0.770  1.0595  3.8249 -0.9888
 8704TIP3   OH247602   5.789   2.562  16.040  0.6586 -0.0963 -0.1217
 8704TIP3    H147603   5.827   2.475  16.029  1.2794 -0.2664  2.5934
 8704TIP3    H247604   5.861   2.616  16.072 -0.3066  0.7562  0.6888
 8705TIP3   OH247605   3.118   3.010  12.902  0.5897  0.2767 -0.6369
 8705TIP3    H147606   3.110   3.094  12.947  0.9127  0.7593 -1.4434
 8705TIP3    H247607   3.208   2.982  12.921  0.0178 -0.6429  0.8698
 8706TIP3   OH247608   4.313   5.145  15.760 -0.1883 -0.3943 -0.1919
 8706TIP3    H147609   4.377   5.122  15.693  0.0884  0.7555 -0.3488
 8706TIP3    H247610   4.364   5.151  15.840 -0.1009  0.4510 -0.3036
 8707TIP3   OH247611   2.408   1.529   4.103  0.0052 -0.4797  0.0620
 8707TIP3    H147612   2.460   1.598   4.143 -0.6943  0.9167 -1.3491
 8707TIP3    H247613   2.317   1.557   4.112 -0.2194 -0.4702 -1.7481
 8708TIP3   OH247614   4.998   4.716  11.853 -0.1411 -0.2799  0.4153
 8708TIP3    H147615   4.930   4.761  11.803  2.1930 -0.7188 -3.5565
 8708TIP3    H247616   5.041   4.785  11.903 -1.1984  0.6322  0.1051
 8709TIP3   OH247617   4.995   2.751  15.554 -0.4063 -0.0983 -0.1998
 8709TIP3    H147618   4.905   2.750  15.588 -0.1494  0.5694  0.5126
 8709TIP3    H247619   4.995   2.821  15.488  0.2446  1.7709  1.6889
 8710TIP3   OH247620   4.205   2.506  11.423  0.4253 -0.1503 -0.2896
 8710TIP3    H147621   4.129   2.470  11.377  0.1492  1.2102 -0.9539
 8710TIP3    H247622   4.263   2.431  11.435 -0.8520 -1.1548 -0.0840
 8711TIP3   OH247623   5.451   4.485   1.269 -0.0448 -0.4058  0.3251
 8711TIP3    H147624   5.410   4.563   1.232  1.5591  0.2869 -0.0893
 8711TIP3    H247625   5.395   4.461   1.343 -2.3416 -0.7663 -1.4003
 8712TIP3   OH247626   2.769   5.789  16.991 -0.0365  0.0854  0.2258
 8712TIP3    H147627   2.697   5.780  17.053  0.4387  2.1693  1.1373
 8712TIP3    H247628   2.846   5.761  17.040  0.1725  0.6009  0.1936
 8713TIP3   OH247629   5.861   2.226  13.865  0.2793  0.0255 -0.3431
 8713TIP3    H147630   5.827   2.184  13.786 -0.5066 -0.2838  0.1521
 8713TIP3    H247631   5.883   2.315  13.837 -1.2400  0.3459 -0.6182
 8714TIP3   OH247632   0.431   5.689   2.965 -0.1270  0.5374  0.1964
 8714TIP3    H147633   0.341   5.721   2.979  0.6040  2.3692  1.0904
 8714TIP3    H247634   0.421   5.613   2.908 -2.1954  1.1649 -0.3785
 8715TIP3   OH247635   5.515   5.079   5.467 -0.0537 -0.1052 -0.7528
 8715TIP3    H147636   5.597   5.034   5.483 -1.4724 -2.1348  1.4780
 8715TIP3    H247637   5.497   5.126   5.549 -1.2769 -0.0138 -1.0540
 8716TIP3   OH247638   1.272   3.131   3.362  0.4976  0.2567  0.2192
 8716TIP3    H147639   1.183   3.104   3.384  0.5529  0.3777  0.6003
 8716TIP3    H247640   1.297   3.075   3.288 -0.3928  1.1384 -0.7947
 8717TIP3   OH247641   0.863   4.864  15.984  0.2198  0.5166  0.3234
 8717TIP3    H147642   0.868   4.816  16.067  2.0588 -0.2448 -0.1611
 8717TIP3    H247643   0.895   4.951  16.005 -1.8061  1.1584  0.9193
 8718TIP3   OH247644   1.000   4.661   4.311 -0.2285  0.0528  0.4046
 8718TIP3    H147645   0.961   4.574   4.298  0.7783 -0.7174  2.1295
 8718TIP3    H247646   1.069   4.666   4.245  1.0935 -1.3903  1.5903
 8719TIP3   OH247647   2.840   6.285  12.569  0.3317  0.1796 -0.9548
 8719TIP3    H147648   2.774   6.354  12.578  0.2629 -0.0620  0.9220
 8719TIP3    H247649   2.833   6.257  12.478 -1.8506  0.4665 -0.9314
 8720TIP3   OH247650   0.194   0.382  15.757 -0.3796 -0.3667  0.2549
 8720TIP3    H147651   0.165   0.318  15.691 -0.1436  1.4112 -1.6548
 8720TIP3    H247652   0.114   0.427  15.783 -0.1072  1.0273 -1.1769
 8721TIP3   OH247653   3.579   1.291  10.895  0.2134  0.4817 -0.2417
 8721TIP3    H147654   3.652   1.283  10.834 -0.6710  0.5863 -1.3481
 8721TIP3    H247655   3.602   1.366  10.950  1.0436  0.3666 -0.4169
 8722TIP3   OH247656   6.636   6.424   1.416  0.0353  0.2781 -0.0782
 8722TIP3    H147657   6.639   6.495   1.353 -1.2610 -0.7219 -1.3416
 8722TIP3    H247658   6.664   6.347   1.367 -1.3583 -0.5971  0.4264
 8723TIP3   OH247659   1.450   3.425  14.502 -0.0862  0.2792  0.1219
 8723TIP3    H147660   1.421   3.516  14.506 -0.1286  0.2206  2.3856
 8723TIP3    H247661   1.381   3.380  14.454 -0.9039  1.1350  0.4700
 8724TIP3   OH247662   2.615   1.984   1.143 -0.3240  0.1743  0.3877
 8724TIP3    H147663   2.666   2.056   1.179 -0.2252  0.7707 -0.9009
 8724TIP3    H247664   2.544   1.971   1.205 -2.7516  4.0807 -1.2091
 8725TIP3   OH247665   2.006   3.526   5.013 -0.0810  0.2311 -0.5960
 8725TIP3    H147666   2.075   3.472   5.051 -0.0692  0.1387 -0.7502
 8725TIP3    H247667   2.000   3.601   5.072  1.9157  1.5328 -1.8888
 8726TIP3   OH247668   5.328   0.056  16.702 -0.3088 -0.2314  0.5078
 8726TIP3    H147669   5.300  -0.009  16.767  0.2730 -0.1349  0.8669
 8726TIP3    H247670   5.287   0.027  16.620 -0.1761 -0.9787  0.6908
 8727TIP3   OH247671   1.430   2.134  17.343  0.2747  0.7824  0.1405
 8727TIP3    H147672   1.488   2.114  17.417  1.8865  1.5915 -0.8329
 8727TIP3    H247673   1.393   2.220  17.364  0.0150  0.5993  0.4291
 8728TIP3   OH247674   1.058   6.631  13.962  0.5942 -0.0748  0.0076
 8728TIP3    H147675   1.105   6.709  13.991 -1.1791  1.4480 -0.9826
 8728TIP3    H247676   1.034   6.586  14.043 -0.1425  1.5401  0.7375
 8729TIP3   OH247677   3.605   5.293   2.035  0.1478 -0.0333  1.2449
 8729TIP3    H147678   3.687   5.285   1.985 -1.0860  1.3096 -1.1637
 8729TIP3    H247679   3.626   5.354   2.105  1.4021 -0.3463  1.1795
 8730TIP3   OH247680   6.622   4.083   4.241 -0.0432  0.6504  0.3910
 8730TIP3    H147681   6.685   4.015   4.219 -1.7338 -0.1110 -2.6893
 8730TIP3    H247682   6.671   4.165   4.232  1.5168  0.0060  2.2831
 8731TIP3   OH247683   4.973   1.949  12.804  0.5112  0.2974  0.3507
 8731TIP3    H147684   4.894   1.977  12.759 -0.6608 -1.3047  1.2852
 8731TIP3    H247685   5.045   1.970  12.744 -0.7881  0.1184 -1.3228
 8732TIP3   OH247686   6.488   6.034  16.966 -0.0271  0.0091 -0.3484
 8732TIP3    H147687   6.515   6.030  16.874 -2.3365  0.6929 -1.1271
 8732TIP3    H247688   6.492   5.944  16.996  2.6232  0.0115 -0.4894
 8733TIP3   OH247689   2.284   1.988  15.371  0.4948  0.6237 -0.6680
 8733TIP3    H147690   2.212   2.051  15.371  0.1165  0.2258  0.5910
 8733TIP3    H247691   2.282   1.949  15.284 -0.7861  0.6732 -0.6795
 8734TIP3   OH247692   5.611   4.594  15.378  0.5006 -0.0818 -0.1585
 8734TIP3    H147693   5.545   4.525  15.386 -1.6499  1.6362 -1.8004
 8734TIP3    H247694   5.635   4.593  15.285  1.1862  0.6933  0.0038
 8735TIP3   OH247695   1.343   4.858   2.183 -0.6991 -0.5332  0.1039
 8735TIP3    H147696   1.387   4.796   2.241  0.7854  0.3643 -0.0232
 8735TIP3    H247697   1.354   4.943   2.226  0.6941  0.1973 -1.6159
 8736TIP3   OH247698   2.931   3.352  15.711 -0.3020  0.1844  0.0863
 8736TIP3    H147699   2.984   3.277  15.734 -0.5424 -0.6884 -2.0291
 8736TIP3    H247700   2.841   3.318  15.707 -0.5543  0.8225  0.1246
 8737TIP3   OH247701   5.240   4.016  14.043  0.4202  0.1587  0.8141
 8737TIP3    H147702   5.194   4.007  13.960 -1.0211 -1.1729  1.6992
 8737TIP3    H247703   5.307   4.082  14.026 -0.3828  0.5497 -1.1528
 8738TIP3   OH247704   1.655   1.055   1.598  0.3249 -0.1338  0.1074
 8738TIP3    H147705   1.660   1.151   1.597 -1.7216  0.0057 -0.3637
 8738TIP3    H247706   1.738   1.027   1.560  0.1891  1.4978 -1.5241
 8739TIP3   OH247707   3.779   1.366   3.527  0.0507  0.2710  0.6171
 8739TIP3    H147708   3.684   1.368   3.514  0.4327  0.3228 -3.2935
 8739TIP3    H247709   3.808   1.455   3.511  0.9900 -0.3636 -1.5951
 8740TIP3   OH247710   3.172   5.209   4.962  0.2412 -0.2350  0.0791
 8740TIP3    H147711   3.085   5.237   4.990 -0.0561 -0.9725 -0.1026
 8740TIP3    H247712   3.226   5.288   4.970 -0.7780  0.6409 -1.2370
 8741TIP3   OH247713   4.469   4.104  15.093  0.1993 -0.3593 -0.4734
 8741TIP3    H147714   4.507   4.190  15.110 -0.4942  0.0866 -1.1463
 8741TIP3    H247715   4.380   4.122  15.063  0.5921 -1.2133 -2.2762
 8742TIP3   OH247716   4.460   2.229   4.183  0.3759 -0.3769 -0.1705
 8742TIP3    H147717   4.392   2.161   4.187 -0.2771  0.2756  0.2874
 8742TIP3    H247718   4.487   2.240   4.274 -0.2468  0.6653 -0.0927
 8743TIP3   OH247719   5.951   4.320  12.154  0.0847 -0.1632  0.7244
 8743TIP3    H147720   5.938   4.404  12.111 -1.8785 -0.9267 -0.3210
 8743TIP3    H247721   5.991   4.264  12.087 -0.6165 -0.6427  0.6897
 8744TIP3   OH247722   6.654   3.440   3.747 -0.3464 -0.0152 -0.0318
 8744TIP3    H147723   6.645   3.418   3.840 -1.4292  1.5810  0.2891
 8744TIP3    H247724   6.663   3.536   3.746 -0.0574 -0.0375 -1.5518
 8745TIP3   OH247725   5.474   1.730   5.959  0.8040 -0.7204 -0.0659
 8745TIP3    H147726   5.438   1.648   5.993 -0.4091 -0.1870 -0.0245
 8745TIP3    H247727   5.564   1.709   5.936  0.5129 -2.0675 -0.0397
 8746TIP3   OH247728   0.627   0.800   3.631 -0.1752 -0.0736 -0.5397
 8746TIP3    H147729   0.605   0.725   3.574  1.5971 -0.7021 -0.4687
 8746TIP3    H247730   0.576   0.786   3.710 -0.4442 -0.8130 -0.8341
 8747TIP3   OH247731   0.970   3.016  10.812 -0.6889 -0.2364  0.7898
 8747TIP3    H147732   0.997   3.108  10.805 -0.7515 -0.0549  2.5245
 8747TIP3    H247733   0.972   2.984  10.722  1.6670  0.7957  0.3924
 8748TIP3   OH247734   5.848   1.586   0.895 -0.3378  0.1990 -0.0362
 8748TIP3    H147735   5.834   1.491   0.893 -0.5419  0.2306 -0.2362
 8748TIP3    H247736   5.857   1.608   0.987 -2.9821  0.3675  0.2364
 8749TIP3   OH247737   3.327   4.489  14.095 -0.6374 -0.2658 -0.2990
 8749TIP3    H147738   3.263   4.503  14.025 -0.7535 -1.7917 -0.5434
 8749TIP3    H247739   3.371   4.407  14.072 -0.8361 -0.9482  1.4945
 8750TIP3   OH247740   1.507   2.421   2.161  1.0348  0.0557  0.1142
 8750TIP3    H147741   1.412   2.436   2.171  1.1661  1.6946 -0.6811
 8750TIP3    H247742   1.514   2.329   2.137 -0.3560 -0.1454  0.3705
 8751TIP3   OH247743   0.956   6.771  13.313 -0.0565  0.1208  0.2925
 8751TIP3    H147744   0.944   6.686  13.272 -0.2131  1.5154 -2.8712
 8751TIP3    H247745   1.039   6.764  13.359 -0.2842 -1.8283  0.5063
 8752TIP3   OH247746   4.880   5.308   4.154 -0.3400 -0.1752  0.3108
 8752TIP3    H147747   4.905   5.219   4.129  0.9733  0.4958 -0.9269
 8752TIP3    H247748   4.903   5.314   4.247 -1.4735 -1.4443  0.7071
 8753TIP3   OH247749   6.133   4.252   6.645 -0.1413 -0.3168  0.1311
 8753TIP3    H147750   6.116   4.179   6.585 -2.3294 -1.8714  2.4344
 8753TIP3    H247751   6.076   4.235   6.720  2.6763  1.3093  2.8718
 8754TIP3   OH247752   1.417   0.036  15.623  0.3332 -0.5952  0.1857
 8754TIP3    H147753   1.497   0.081  15.594 -0.4532 -0.9603 -2.9017
 8754TIP3    H247754   1.447  -0.051  15.649  1.2127  0.0448  1.4268
 8755TIP3   OH247755   3.425   5.336  13.323 -0.2290 -0.6916  0.1385
 8755TIP3    H147756   3.515   5.368  13.328 -0.9657  1.5496  0.1879
 8755TIP3    H247757   3.389   5.377  13.244 -1.0461 -2.1070 -0.2802
 8756TIP3   OH247758   4.793   3.024  11.913 -0.1415 -0.4099 -0.1990
 8756TIP3    H147759   4.717   3.064  11.871  0.8108 -0.6304 -2.2572
 8756TIP3    H247760   4.816   3.083  11.984 -0.4141  1.2811 -1.4600
 8757TIP3   OH247761   3.474   5.251   1.244  0.0505  0.0424 -0.3628
 8757TIP3    H147762   3.513   5.193   1.179 -0.6494 -0.8353 -0.0202
 8757TIP3    H247763   3.518   5.229   1.326 -1.1344 -0.9764  0.0330
 8758TIP3   OH247764   2.474   3.560  11.410  0.0661  0.3333 -0.2482
 8758TIP3    H147765   2.512   3.480  11.374  1.7060  0.1757  1.6792
 8758TIP3    H247766   2.539   3.628  11.390  0.5403  0.4209  1.4549
 8759TIP3   OH247767   0.692   0.373   5.862  0.0750 -0.0673 -0.0613
 8759TIP3    H147768   0.659   0.349   5.949 -0.2978  2.5512  0.6063
 8759TIP3    H247769   0.770   0.319   5.851 -0.5709 -1.3811  1.3233
 8760TIP3   OH247770   3.196   5.000  14.651  0.1045 -0.2272 -0.2955
 8760TIP3    H147771   3.239   4.922  14.616  0.4812 -0.9605  1.6791
 8760TIP3    H247772   3.260   5.070  14.642  1.8988 -1.3207  2.6733
 8761TIP3   OH247773   2.142   3.183  16.645  0.0357 -0.3500  0.4711
 8761TIP3    H147774   2.131   3.184  16.740  0.0440 -3.1667  0.5940
 8761TIP3    H247775   2.074   3.124  16.613  0.3655  0.1152 -1.2208
 8762TIP3   OH247776   4.276   1.347   5.305  0.3819 -0.0375  0.2522
 8762TIP3    H147777   4.302   1.363   5.214  0.5217 -0.0045  0.2968
 8762TIP3    H247778   4.292   1.430   5.350  0.4737 -0.1014  0.3417
 8763TIP3   OH247779   5.099   4.548  16.214  0.4883  0.1132  0.5923
 8763TIP3    H147780   5.147   4.479  16.169  0.1940 -0.8250  1.6865
 8763TIP3    H247781   5.074   4.510  16.298  0.7891  1.7181  1.4621
 8764TIP3   OH247782   4.331   4.905  16.267 -0.1363 -0.2297  0.4680
 8764TIP3    H147783   4.255   4.847  16.275  0.1453 -0.3931  2.5081
 8764TIP3    H247784   4.383   4.887  16.345  1.4491  0.6931 -0.3255
 8765TIP3   OH247785   0.769   3.737   0.068 -0.1763  0.4884  0.2626
 8765TIP3    H147786   0.692   3.681   0.078  0.3742 -0.3862 -0.2863
 8765TIP3    H247787   0.797   3.755   0.157  0.0691 -0.7300  0.4545
 8766TIP3   OH247788   5.503   2.724  16.741  0.1461 -0.2633 -0.1922
 8766TIP3    H147789   5.553   2.741  16.821  2.0536  0.8417 -1.5394
 8766TIP3    H247790   5.414   2.707  16.772  0.5479  1.2883  2.0951
 8767TIP3   OH247791   0.200   0.441   4.373 -0.0295 -0.1001  0.6766
 8767TIP3    H147792   0.195   0.385   4.295 -1.0164 -1.4195  1.6320
 8767TIP3    H247793   0.115   0.485   4.376  0.4601  0.8829  0.3588
 8768TIP3   OH247794   0.480   1.370  11.428 -0.3412 -0.0140 -0.3682
 8768TIP3    H147795   0.507   1.378  11.337 -0.1801 -2.9589 -0.6721
 8768TIP3    H247796   0.443   1.456  11.450  0.2315  0.9801 -2.9609
 8769TIP3   OH247797   5.742   6.545   2.328 -0.3634  0.5403 -0.2551
 8769TIP3    H147798   5.684   6.472   2.349  0.9064 -1.3546 -2.7794
 8769TIP3    H247799   5.683   6.619   2.311 -1.7296 -0.0759  1.4477
 8770TIP3   OH247800   5.271   5.383  17.295  0.6535 -0.1733 -0.0132
 8770TIP3    H147801   5.327   5.384  17.217  0.3066 -0.1859 -0.2697
 8770TIP3    H247802   5.237   5.472  17.301 -0.2720 -0.4624 -0.5933
 8771TIP3   OH247803   4.620   5.257   6.993  0.0318 -0.0331 -0.0146
 8771TIP3    H147804   4.594   5.167   7.014 -2.5822 -0.0996 -2.8969
 8771TIP3    H247805   4.691   5.247   6.929 -0.9520 -0.1354 -1.1260
 8772TIP3   OH247806   4.340   0.157  15.819 -0.2974  0.0642 -0.0529
 8772TIP3    H147807   4.290   0.184  15.896 -1.0657  0.5325 -0.6927
 8772TIP3    H247808   4.428   0.190  15.834 -1.1534  3.0246 -0.7491
 8773TIP3   OH247809   0.448   6.044  11.166 -0.6566 -0.4322  0.1904
 8773TIP3    H147810   0.381   6.060  11.232 -0.0235  0.7002  0.5767
 8773TIP3    H247811   0.524   6.094  11.196 -0.3521  0.0992 -1.3826
 8774TIP3   OH247812   3.172   2.242  12.567  0.4539 -0.9741  0.0309
 8774TIP3    H147813   3.233   2.226  12.639 -0.3141  1.2922  1.2913
 8774TIP3    H247814   3.221   2.294  12.504 -0.5236  2.7140  2.0055
 8775TIP3   OH247815   6.608   0.740   3.305  0.0112  0.1377 -0.2425
 8775TIP3    H147816   6.596   0.735   3.210 -0.5825  0.8167 -0.2113
 8775TIP3    H247817   6.591   0.831   3.327  0.7204  0.1114  0.4497
 8776TIP3   OH247818   4.334   5.646   3.428  0.0979 -0.1352  0.4344
 8776TIP3    H147819   4.259   5.621   3.482  0.0304  0.5371  0.6651
 8776TIP3    H247820   4.345   5.574   3.366 -0.0182 -0.7717  1.1416
 8777TIP3   OH247821   0.771   5.092   2.763 -0.5042 -0.2921 -0.1429
 8777TIP3    H147822   0.702   5.072   2.699  0.0680  1.0192 -1.1865
 8777TIP3    H247823   0.843   5.033   2.740  0.0600  0.8185 -1.3482
 8778TIP3   OH247824   2.653   3.370   4.266 -0.4193  0.0518  0.6557
 8778TIP3    H147825   2.615   3.435   4.325  0.7073  0.4084  1.0105
 8778TIP3    H247826   2.748   3.376   4.281 -0.2043 -0.7314 -0.2829
 8779TIP3   OH247827   3.102   5.406  15.713  0.2813 -0.1832  0.4031
 8779TIP3    H147828   3.187   5.450  15.704  0.3267  0.1512  2.2178
 8779TIP3    H247829   3.078   5.419  15.804  0.1362 -3.6762  0.9780
 8780TIP3   OH247830   1.599   6.691  14.247 -0.2772 -0.0225 -0.3221
 8780TIP3    H147831   1.545   6.622  14.210 -0.0535 -0.2976 -0.1418
 8780TIP3    H247832   1.585   6.766  14.190 -0.6384 -0.1731 -0.4324
 8781TIP3   OH247833   6.627   0.730  15.259 -0.1748 -0.6912  0.2647
 8781TIP3    H147834   6.671   0.796  15.204 -0.5472 -0.5361  0.1546
 8781TIP3    H247835   6.699   0.683  15.300  0.1029  0.4275  1.1284
 8782TIP3   OH247836   5.953   4.097   6.418  0.3253 -0.2226 -0.0442
 8782TIP3    H147837   5.987   4.017   6.459  0.3562  0.3428  1.0649
 8782TIP3    H247838   5.865   4.074   6.388  0.3999 -0.7198  0.1131
 8783TIP3   OH247839   6.547   5.365   2.065  0.1712  0.0182  0.0906
 8783TIP3    H147840   6.612   5.304   2.100 -0.0860 -0.2151  0.1666
 8783TIP3    H247841   6.468   5.311   2.052  0.9026 -0.5158 -3.1204
 8784TIP3   OH247842   5.118   4.949  12.482  0.2462 -0.4808 -0.3640
 8784TIP3    H147843   5.061   4.970  12.408 -0.4197 -1.1629 -0.0541
 8784TIP3    H247844   5.191   4.901  12.443  0.7557  0.6042 -0.7947
 8785TIP3   OH247845   3.195   6.090   0.313 -0.0592 -0.1953  0.3394
 8785TIP3    H147846   3.290   6.089   0.317  0.0937  2.1921 -0.7531
 8785TIP3    H247847   3.169   6.145   0.387 -0.4883  0.0903 -0.0154
 8786TIP3   OH247848   4.788   0.085   4.695 -0.2782 -0.2209  0.1077
 8786TIP3    H147849   4.861   0.094   4.757 -1.2856  1.0222  1.1808
 8786TIP3    H247850   4.741   0.006   4.724 -0.2760 -0.1077  0.4225
 8787TIP3   OH247851   2.333   5.603  16.584  0.5271 -0.2878 -0.1635
 8787TIP3    H147852   2.327   5.509  16.599  0.3071 -0.6846 -2.3810
 8787TIP3    H247853   2.273   5.620  16.511  0.6486  1.5538  0.1035
 8788TIP3   OH247854   2.786   3.521  15.416 -0.2797  0.2627  0.1502
 8788TIP3    H147855   2.756   3.586  15.480  0.5662  0.0120  0.8132
 8788TIP3    H247856   2.759   3.437  15.453 -1.5955  0.2203 -0.8272
 8789TIP3   OH247857   2.041   5.449  16.689  0.2857  0.3909  0.6713
 8789TIP3    H147858   2.051   5.476  16.598  1.3634  1.3622  1.0399
 8789TIP3    H247859   2.075   5.523  16.740  1.9169 -1.0406  1.7987
 8790TIP3   OH247860   4.597   4.197   6.030  0.4884 -0.2452  0.1585
 8790TIP3    H147861   4.576   4.161   6.117  1.2092  1.9020  1.2972
 8790TIP3    H247862   4.548   4.279   6.026  3.0129  1.3381 -0.0433
 8791TIP3   OH247863   3.719   5.129   5.814  0.9791 -0.3609 -0.1459
 8791TIP3    H147864   3.633   5.126   5.857  0.0199  0.8096 -1.8177
 8791TIP3    H247865   3.768   5.056   5.852 -0.2764 -0.2606  1.8219
 8792TIP3   OH247866   4.859   1.525  13.561 -0.4958 -0.1769  0.3439
 8792TIP3    H147867   4.781   1.522  13.506  0.5950 -1.8204 -1.2462
 8792TIP3    H247868   4.877   1.433  13.581  2.2738 -0.0908 -1.2713
 8793TIP3   OH247869   6.027   0.990  14.000  0.0180  0.0020  0.4031
 8793TIP3    H147870   5.993   0.964  13.915 -0.7182 -1.3305  1.0855
 8793TIP3    H247871   6.052   0.908  14.043  0.9413  0.6910  1.2440
 8794TIP3   OH247872   3.823   0.239  14.002  0.0680  0.0233  0.6118
 8794TIP3    H147873   3.787   0.303  14.063 -1.4492  2.6948 -2.7227
 8794TIP3    H247874   3.910   0.272  13.981 -0.6383  0.9943 -0.9621
 8795TIP3   OH247875   6.282   5.113   1.327  0.3842  0.2649 -0.5208
 8795TIP3    H147876   6.364   5.077   1.362 -0.1732  0.5794  1.1770
 8795TIP3    H247877   6.258   5.182   1.389 -1.6656 -0.4596 -0.4708
 8796TIP3   OH247878   6.176   1.644  16.265  0.1871  0.5350 -0.3397
 8796TIP3    H147879   6.104   1.687  16.312  2.1536  0.8905  2.5765
 8796TIP3    H247880   6.208   1.711  16.205 -1.8464  0.3522 -1.7500
 8797TIP3   OH247881   1.207   5.339  16.885  0.2826 -0.7557  0.1557
 8797TIP3    H147882   1.149   5.271  16.851 -0.0701 -0.2159 -0.3471
 8797TIP3    H247883   1.273   5.350  16.817  0.7242 -1.0530  0.5297
 8798TIP3   OH247884   5.757   0.558   6.004 -0.3358  0.2986 -0.1113
 8798TIP3    H147885   5.849   0.539   6.022 -0.7795 -1.8053  0.2220
 8798TIP3    H247886   5.719   0.579   6.089 -0.8295 -2.2224  0.3778
 8799TIP3   OH247887   2.207   2.996   2.796 -0.4562  0.4706  0.2535
 8799TIP3    H147888   2.210   3.029   2.706 -1.2545  0.8716  0.3646
 8799TIP3    H247889   2.266   2.920   2.795 -0.7240  0.2535 -0.7022
 8800TIP3   OH247890   3.879   5.234   1.233  0.2898 -0.7415  0.4403
 8800TIP3    H147891   3.913   5.265   1.317 -0.6655  1.5163  0.0524
 8800TIP3    H247892   3.924   5.150   1.219  3.6037  0.7281  1.2358
 8801TIP3   OH247893   0.785   4.774   2.268 -0.6975 -0.4547  0.7188
 8801TIP3    H147894   0.876   4.788   2.242 -1.3306 -0.2360 -1.6360
 8801TIP3    H247895   0.766   4.684   2.242 -1.1610 -0.4996  1.1873
 8802TIP3   OH247896   4.730   4.873   3.571  0.0454 -0.1704 -0.0699
 8802TIP3    H147897   4.752   4.950   3.518 -0.4750 -0.4272 -0.6725
 8802TIP3    H247898   4.722   4.802   3.508 -0.4645 -0.5036  0.3648
 8803TIP3   OH247899   3.616   1.833  15.734  0.0949 -0.2423 -0.5534
 8803TIP3    H147900   3.548   1.768  15.718  0.2977 -0.3468 -1.0121
 8803TIP3    H247901   3.680   1.787  15.789  0.3080 -0.4878 -0.9934
 8804TIP3   OH247902   6.523   6.238   3.300 -0.3677  0.1327 -0.2850
 8804TIP3    H147903   6.503   6.235   3.206  0.3132  1.2564 -0.4925
 8804TIP3    H247904   6.616   6.259   3.303 -0.5516  0.8697  0.6378
 8805TIP3   OH247905   5.556   3.881  10.409  0.1066 -0.0597 -0.2247
 8805TIP3    H147906   5.533   3.796  10.446  0.0407 -0.1427 -0.4524
 8805TIP3    H247907   5.475   3.932  10.415 -0.6120 -0.8294 -2.3787
 8806TIP3   OH247908   4.273   3.172   0.653 -0.0582  0.5645 -0.1691
 8806TIP3    H147909   4.253   3.091   0.698  1.0741 -0.1397 -0.8900
 8806TIP3    H247910   4.192   3.195   0.607 -0.3020 -0.3003 -0.1791
 8807TIP3   OH247911   2.688   6.741  16.453  0.4832 -0.5063 -0.8941
 8807TIP3    H147912   2.748   6.738  16.528 -2.2850 -0.8969  1.5034
 8807TIP3    H247913   2.705   6.825  16.411  0.6364  0.8095  1.6080
 8808TIP3   OH247914   0.513   1.934   5.332 -0.0891 -0.2026 -0.1487
 8808TIP3    H147915   0.592   1.987   5.328 -0.8107  0.8863 -0.4710
 8808TIP3    H247916   0.517   1.880   5.253 -1.3576  2.3956 -2.1343
 8809TIP3   OH247917   2.498   5.567   4.782  0.5289  0.3149 -1.0775
 8809TIP3    H147918   2.429   5.521   4.733 -0.2340  2.0654 -1.7100
 8809TIP3    H247919   2.489   5.658   4.756  1.0287  1.1025  1.2746
 8810TIP3   OH247920   1.073   3.052  17.110 -0.3164  0.0821 -0.6594
 8810TIP3    H147921   1.134   2.992  17.067 -0.9697 -0.2127 -1.1837
 8810TIP3    H247922   1.043   3.109  17.040 -0.0738  0.7124 -0.2556
 8811TIP3   OH247923   2.405   3.243   4.864  0.5299  0.0317  0.5039
 8811TIP3    H147924   2.434   3.196   4.786  0.7799 -0.5196  0.9179
 8811TIP3    H247925   2.345   3.182   4.908 -2.2246  1.5596 -0.8927
 8812TIP3   OH247926   3.538   2.407  12.936  0.1840 -0.6425  0.1578
 8812TIP3    H147927   3.577   2.340  12.880 -3.5450 -2.8960 -0.0786
 8812TIP3    H247928   3.455   2.428  12.894 -0.7811  0.8419  2.5957
 8813TIP3   OH247929   3.964   4.837   1.513 -0.1058  0.2382 -0.5522
 8813TIP3    H147930   3.995   4.747   1.526  1.8686  1.0683  0.9319
 8813TIP3    H247931   3.891   4.828   1.452 -1.4495 -2.6229  1.2294
 8814TIP3   OH247932   1.630   6.447   5.392 -0.0216  0.3412  0.0346
 8814TIP3    H147933   1.604   6.360   5.422 -2.5136  0.6140 -1.1194
 8814TIP3    H247934   1.588   6.507   5.454 -0.0618  0.7661 -0.4022
 8815TIP3   OH247935   2.640   1.567  16.506 -0.1022 -0.4512 -0.2371
 8815TIP3    H147936   2.626   1.475  16.530  0.1152 -0.9727 -1.9293
 8815TIP3    H247937   2.566   1.588  16.448 -0.0210  0.3755 -0.0538
 8816TIP3   OH247938   1.548   3.773  15.976 -0.4725  0.4798  0.0080
 8816TIP3    H147939   1.463   3.784  16.019 -0.9313  3.2143 -1.4182
 8816TIP3    H247940   1.602   3.843  16.013  1.0507 -0.9100  0.5085
 8817TIP3   OH247941   0.200   2.757  11.482  0.5624  0.2582 -0.5330
 8817TIP3    H147942   0.216   2.851  11.489 -0.1372  0.4289 -1.0852
 8817TIP3    H247943   0.105   2.748  11.488  0.5710 -0.3477 -1.1721
 8818TIP3   OH247944   5.793   0.210   4.680  0.4596  0.4449 -0.4079
 8818TIP3    H147945   5.817   0.216   4.772 -1.0445  0.9563 -0.0156
 8818TIP3    H247946   5.876   0.199   4.634  1.2807  0.6933  0.9579
 8819TIP3   OH247947   4.117   3.488   4.649 -0.1947  0.0870  0.2416
 8819TIP3    H147948   4.079   3.405   4.621 -1.3856  0.9699 -0.8755
 8819TIP3    H247949   4.198   3.495   4.599  0.7659 -1.1196  1.5445
 8820TIP3   OH247950   0.360   5.667   5.474  0.1781 -0.4053 -0.3816
 8820TIP3    H147951   0.389   5.668   5.383 -0.9094  1.6027 -0.7503
 8820TIP3    H247952   0.312   5.584   5.483 -0.7473 -0.0813 -1.9977
 8821TIP3   OH247953   6.298   4.696   6.241  0.1580  0.1620 -0.4518
 8821TIP3    H147954   6.318   4.734   6.326 -3.4093  1.6791 -0.0941
 8821TIP3    H247955   6.310   4.768   6.179  0.7759 -0.3650 -0.9650
 8822TIP3   OH247956   5.921   3.055  13.300  0.5763 -0.1594 -0.2859
 8822TIP3    H147957   5.939   3.149  13.298  2.3400 -0.4687 -1.5928
 8822TIP3    H247958   5.891   3.038  13.390  0.0976  1.6453 -0.0644
 8823TIP3   OH247959   1.372   1.156  12.691 -0.1597 -0.4268  0.1260
 8823TIP3    H147960   1.407   1.141  12.603 -0.6384 -2.2705  0.2188
 8823TIP3    H247961   1.375   1.251  12.702  1.9834 -0.3167 -1.0099
 8824TIP3   OH247962   3.096   1.806   5.548  0.2156  0.3070  0.5117
 8824TIP3    H147963   3.111   1.728   5.601 -0.0047  0.5559  0.9539
 8824TIP3    H247964   3.102   1.878   5.611  1.7335  0.7567 -0.1226
 8825TIP3   OH247965   2.933   6.004   1.169 -0.4656 -0.1568 -0.2490
 8825TIP3    H147966   3.022   5.988   1.201 -0.5881  1.9150  1.3360
 8825TIP3    H247967   2.944   6.069   1.100 -0.6227 -1.2972 -1.3849
 8826TIP3   OH247968   0.185   2.909  16.622  0.2220 -0.1302  0.1219
 8826TIP3    H147969   0.202   2.988  16.672 -1.7924  0.4432  0.0065
 8826TIP3    H247970   0.118   2.863  16.673  0.6983 -1.3077 -0.2859
 8827TIP3   OH247971   5.372   5.908  13.312 -0.0944  0.1079  0.0857
 8827TIP3    H147972   5.435   5.841  13.339  0.3300  0.2207 -0.6231
 8827TIP3    H247973   5.311   5.861  13.255  0.1610  0.3136 -0.3539
 8828TIP3   OH247974   4.984   1.017   1.762  0.2392 -0.8360 -0.0229
 8828TIP3    H147975   4.981   0.934   1.715  1.3987 -1.0063  0.1871
 8828TIP3    H247976   5.066   1.014   1.811  2.0260  1.7387 -2.4925
 8829TIP3   OH247977   5.197   1.951   1.972 -0.3515  0.6633  0.0486
 8829TIP3    H147978   5.125   1.887   1.974 -0.5070  0.8468  0.3599
 8829TIP3    H247979   5.182   2.002   1.892 -1.6215  1.8944  1.0172
 8830TIP3   OH247980   4.674   5.485   2.945  0.5270  0.2990  0.1823
 8830TIP3    H147981   4.697   5.393   2.928  1.3945  0.5037  0.2387
 8830TIP3    H247982   4.598   5.501   2.889 -0.1381 -0.6824  0.7640
 8831TIP3   OH247983   4.733   0.820   5.796 -0.2985 -0.0443 -0.5147
 8831TIP3    H147984   4.795   0.871   5.744 -0.3185 -1.9836 -2.5970
 8831TIP3    H247985   4.761   0.833   5.886  1.8652  0.7749 -1.2464
 8832TIP3   OH247986   2.912   4.279   3.214 -0.1210  0.3360  0.2225
 8832TIP3    H147987   2.847   4.335   3.258 -0.5763  0.1770 -0.2387
 8832TIP3    H247988   2.865   4.241   3.140  0.4485  0.0629 -0.0060
 8833TIP3   OH247989   1.335   1.399   4.516 -0.2553 -1.0625  0.2658
 8833TIP3    H147990   1.262   1.432   4.464  0.6067 -0.0610 -0.3428
 8833TIP3    H247991   1.385   1.478   4.539  1.6523 -1.8842 -0.8930
 8834TIP3   OH247992   4.200   1.996   1.145  0.1562  0.1526  0.3259
 8834TIP3    H147993   4.152   2.075   1.120  2.3571  1.4927  0.0543
 8834TIP3    H247994   4.190   1.992   1.240 -0.3927  0.4460  0.2912
 8835TIP3   OH247995   6.464   5.564   0.241 -0.4635  0.3638  0.3673
 8835TIP3    H147996   6.483   5.496   0.176  0.1885 -0.0824  1.0195
 8835TIP3    H247997   6.442   5.517   0.321  1.7360  0.8700  1.3465
 8836TIP3   OH247998   1.079   3.577   3.373 -0.4995  0.1093  0.2638
 8836TIP3    H147999   1.001   3.530   3.345 -0.1768  0.0697 -0.6008
 8836TIP3    H248000   1.132   3.510   3.416 -1.8155  0.5562  2.7450
 8837TIP3   OH248001   6.281   2.045  13.147  0.0348 -0.2769 -0.4562
 8837TIP3    H148002   6.225   2.001  13.211 -1.3760 -0.9501 -2.0575
 8837TIP3    H248003   6.319   2.119  13.195 -0.2520 -1.2502  1.3663
 8838TIP3   OH248004   0.141   4.390   6.243  0.7020 -0.5498  0.2226
 8838TIP3    H148005   0.147   4.334   6.320 -0.0202  0.8193  1.3131
 8838TIP3    H248006   0.173   4.475   6.272 -0.0157  0.1125 -0.8623
 8839TIP3   OH248007   6.275   6.019  16.282 -0.5676 -0.1594  0.0813
 8839TIP3    H148008   6.325   5.949  16.241  0.7131  1.2943 -0.9769
 8839TIP3    H248009   6.333   6.052  16.351 -1.6621 -0.9106  1.3994
 8840TIP3   OH248010   2.488   3.165   2.980  0.0965  0.4159  0.1051
 8840TIP3    H148011   2.480   3.073   2.954  0.7160  1.1250 -2.9879
 8840TIP3    H248012   2.581   3.184   2.970 -0.1759  1.6238 -0.2836
 8841TIP3   OH248013   5.894   3.365   6.063 -0.2558  0.1568  0.1500
 8841TIP3    H148014   5.959   3.393   5.999  0.1252 -0.0223  0.4524
 8841TIP3    H248015   5.909   3.271   6.073  0.4759  0.3605  1.3441
 8842TIP3   OH248016   5.190   5.972   5.196 -0.0454 -0.4971 -0.1219
 8842TIP3    H148017   5.202   5.879   5.174 -0.2875 -0.3348 -0.9688
 8842TIP3    H248018   5.186   5.973   5.291  1.0081 -1.2370 -0.0438
 8843TIP3   OH248019   0.419   1.534   1.735 -0.2491 -0.6610  0.1087
 8843TIP3    H148020   0.372   1.616   1.717  2.3567  1.1561  0.9794
 8843TIP3    H248021   0.438   1.498   1.648 -0.0842  0.4989 -0.3563
 8844TIP3   OH248022   6.614   4.007  16.928 -0.0685 -0.1483 -0.0436
 8844TIP3    H148023   6.660   4.082  16.891 -0.9582  0.4091 -0.0409
 8844TIP3    H248024   6.669   3.932  16.905 -0.6357  0.1243 -2.6544
 8845TIP3   OH248025   2.370   5.370  15.514 -0.4299 -0.4257 -0.4741
 8845TIP3    H148026   2.426   5.332  15.581 -1.1271 -1.6365 -0.5523
 8845TIP3    H248027   2.373   5.308  15.441  0.0325  0.6908 -1.4438
 8846TIP3   OH248028   2.456   0.987  12.156 -0.3248 -0.8591 -0.5996
 8846TIP3    H148029   2.440   1.024  12.069  0.0814 -0.0072 -0.3283
 8846TIP3    H248030   2.495   1.059  12.205 -1.1365 -1.1378  0.4821
 8847TIP3   OH248031   5.885   5.225   5.795  0.3900  0.5152  0.0709
 8847TIP3    H148032   5.881   5.274   5.877 -0.6069 -0.2147  0.4714
 8847TIP3    H248033   5.953   5.159   5.809  1.0348  1.1230 -0.1188
 8848TIP3   OH248034   1.492   3.773   2.599 -0.5385 -0.3224  0.7046
 8848TIP3    H148035   1.454   3.811   2.677  1.2121  1.7268  0.6467
 8848TIP3    H248036   1.519   3.848   2.546 -2.3464 -1.5972 -2.2916
 8849TIP3   OH248037   0.410   3.529  16.487  0.2546 -0.0466 -0.1502
 8849TIP3    H148038   0.454   3.534  16.403  3.2198 -2.9416  1.0063
 8849TIP3    H248039   0.336   3.470  16.472 -1.1405  1.8788 -1.2805
 8850TIP3   OH248040   3.731   0.280  10.898 -0.2951 -0.1251 -0.2107
 8850TIP3    H148041   3.678   0.246  10.826  0.4214  0.1911 -0.9070
 8850TIP3    H248042   3.800   0.331  10.855 -1.1916  2.0221  0.7584
 8851TIP3   OH248043   6.492   4.867  14.528 -0.2861 -0.0503  0.0455
 8851TIP3    H148044   6.479   4.882  14.622  2.0935  1.3908  0.2206
 8851TIP3    H248045   6.456   4.945  14.487 -0.4218 -0.2230 -0.1624
 8852TIP3   OH248046   0.946   3.878  13.861 -0.2876 -0.5118  0.4408
 8852TIP3    H148047   0.974   3.874  13.769  0.8756 -1.1387  0.7999
 8852TIP3    H248048   0.950   3.787  13.890 -1.2134 -0.3913  0.9563
 8853TIP3   OH248049   5.226   6.454   6.925 -0.3609  0.0281  0.0603
 8853TIP3    H148050   5.197   6.372   6.883 -0.3535  0.3006 -0.4823
 8853TIP3    H248051   5.198   6.523   6.865  0.2666  0.3815  0.1697
 8854TIP3   OH248052   4.783   5.957   2.647  0.6776  0.0117  0.0552
 8854TIP3    H148053   4.807   5.989   2.734 -1.4916  2.1314  0.0081
 8854TIP3    H248054   4.813   6.025   2.587 -0.5963  0.1290 -0.4868
 8855TIP3   OH248055   2.510   2.751   5.219  0.1035  0.3940 -0.2722
 8855TIP3    H148056   2.537   2.824   5.276  0.7786  0.0217 -0.0996
 8855TIP3    H248057   2.592   2.709   5.194 -0.3321 -2.2435  2.1691
 8856TIP3   OH248058   6.799   4.803   5.840  0.2721  0.4014  0.0606
 8856TIP3    H148059   6.879   4.856   5.836 -0.2566  1.1989 -0.5276
 8856TIP3    H248060   6.827   4.718   5.873  1.5726  0.2829 -1.2576
 8857TIP3   OH248061   4.637   4.713   0.350  0.3235  0.1807  0.6667
 8857TIP3    H148062   4.629   4.638   0.291 -0.7142  0.6228  0.2267
 8857TIP3    H248063   4.722   4.701   0.393  0.6802 -0.6297 -0.2409
 8858TIP3   OH248064   1.827   3.574  14.186 -0.3312 -0.3079 -0.1237
 8858TIP3    H148065   1.767   3.499  14.188  0.8054 -1.3496 -2.2581
 8858TIP3    H248066   1.912   3.537  14.210  0.0746  0.5028 -0.2886
 8859TIP3   OH248067   0.971   2.826   4.624 -0.4768 -0.1232  0.4029
 8859TIP3    H148068   0.994   2.733   4.633 -2.6243 -0.6002  1.8214
 8859TIP3    H248069   0.879   2.830   4.651 -1.8073  1.7657 -3.6235
 8860TIP3   OH248070   0.706   0.866  13.402 -0.1809  0.0913  0.8667
 8860TIP3    H148071   0.760   0.787  13.398  0.2720  0.4321 -1.2296
 8860TIP3    H248072   0.704   0.898  13.311 -0.1066  2.6476  1.6847
 8861TIP3   OH248073   6.062   4.248   0.993  0.2850  0.4422  0.1328
 8861TIP3    H148074   6.145   4.256   1.040 -0.1308 -0.9703  1.1544
 8861TIP3    H248075   6.081   4.187   0.921  0.1906  0.2635  0.2572
 8862TIP3   OH248076   4.071   0.063  17.135  0.7528 -0.5067  0.4562
 8862TIP3    H148077   4.068   0.058  17.231 -0.2700  0.5400  0.5033
 8862TIP3    H248078   4.020  -0.013  17.106  2.4478 -1.7921  0.6709
 8863TIP3   OH248079   5.088   2.824   0.444 -0.6442 -0.0632  0.1823
 8863TIP3    H148080   5.107   2.782   0.528 -2.0898 -1.5887 -0.1921
 8863TIP3    H248081   5.004   2.787   0.417 -1.1045  1.7646 -1.0834
 8864TIP3   OH248082   0.856   3.347  12.544  0.0428  0.1210 -0.6388
 8864TIP3    H148083   0.931   3.321  12.597  0.3650  0.4305 -0.9379
 8864TIP3    H248084   0.782   3.342  12.604  0.3642  0.2171 -0.2271
 8865TIP3   OH248085   1.336   1.144   2.674 -0.3809 -0.4698  0.6095
 8865TIP3    H148086   1.337   1.050   2.659 -1.0948 -0.5114  0.7916
 8865TIP3    H248087   1.374   1.155   2.761 -0.5542 -0.6173  0.7059
 8866TIP3   OH248088   5.055   4.843   3.664 -0.2019  0.3832  0.4478
 8866TIP3    H148089   5.043   4.749   3.649 -1.6948  0.3213  1.7605
 8866TIP3    H248090   5.002   4.885   3.596  1.9895  0.3767 -1.3755
 8867TIP3   OH248091   6.657   2.108  16.642  0.8083 -0.0905  0.4630
 8867TIP3    H148092   6.570   2.142  16.620  1.8151  2.0593 -0.4677
 8867TIP3    H248093   6.653   2.015  16.618 -1.2044 -0.0416  0.4349
 8868TIP3   OH248094   3.116   5.134   5.855  0.2223 -0.0566  0.2029
 8868TIP3    H148095   3.045   5.073   5.837 -1.5332  0.4851  4.1779
 8868TIP3    H248096   3.140   5.117   5.946  2.3818  2.5682  0.2546
 8869TIP3   OH248097   1.111   2.504  12.625 -0.3663  0.5444 -0.4990
 8869TIP3    H148098   1.170   2.580  12.634 -0.6745  0.7973 -0.5819
 8869TIP3    H248099   1.051   2.530  12.554 -0.9592  0.5369 -0.0061
 8870TIP3   OH248100   5.432   6.342  13.510 -0.2644  0.3218 -0.2023
 8870TIP3    H148101   5.477   6.362  13.592  0.3449  1.2983 -0.7559
 8870TIP3    H248102   5.399   6.253  13.522  2.2535 -0.6624  0.0692
 8871TIP3   OH248103   4.524   6.701  14.569 -0.4835 -0.1982 -0.3061
 8871TIP3    H148104   4.448   6.705  14.511  0.0273  0.4651 -0.9446
 8871TIP3    H248105   4.599   6.696  14.510 -0.0721 -2.1653  0.3244
 8872TIP3   OH248106   6.316   4.724   0.893 -0.0665  0.1837  0.1642
 8872TIP3    H148107   6.386   4.789   0.892 -0.2611  0.4032  0.4626
 8872TIP3    H248108   6.358   4.643   0.922 -0.3805  0.8748  2.8574
 8873TIP3   OH248109   4.117   2.597   5.041  0.2294 -0.0255  0.2952
 8873TIP3    H148110   4.036   2.592   5.091  1.0491  0.4875  1.7295
 8873TIP3    H248111   4.159   2.512   5.052  1.3439  0.7023  2.2045
 8874TIP3   OH248112   1.236   3.591  13.906 -0.5922 -0.1189 -0.1828
 8874TIP3    H148113   1.293   3.517  13.883 -0.8799 -0.2207 -0.5775
 8874TIP3    H248114   1.269   3.620  13.991  1.5625  1.2921 -1.4077
 8875TIP3   OH248115   1.787   5.926   2.611  0.0865  0.1248 -0.4417
 8875TIP3    H148116   1.828   5.940   2.526  1.1270  0.8408  0.1660
 8875TIP3    H248117   1.781   6.013   2.650 -2.6446  0.1668 -0.7555
 8876TIP3   OH248118   4.742   6.372   4.062 -0.0571 -0.4193 -0.5127
 8876TIP3    H148119   4.775   6.434   3.998 -0.8149 -0.0378 -0.5437
 8876TIP3    H248120   4.729   6.291   4.013 -2.7594  0.4693 -1.4094
 8877TIP3   OH248121   5.410   1.201   3.414 -0.1411 -0.1261 -0.0853
 8877TIP3    H148122   5.373   1.222   3.499 -2.7830 -3.6631 -0.1057
 8877TIP3    H248123   5.334   1.179   3.360  1.5934 -0.2732 -2.6274
 8878TIP3   OH248124   6.547   2.503   2.646  0.5451  0.4279  0.0562
 8878TIP3    H148125   6.563   2.437   2.713  0.7070  1.3975  0.9949
 8878TIP3    H248126   6.461   2.481   2.610 -0.6142  1.2095  2.1740
 8879TIP3   OH248127   2.889   0.948  12.857  0.1432 -0.0746  0.1710
 8879TIP3    H148128   2.822   0.970  12.792  2.0637 -1.6483 -2.5160
 8879TIP3    H248129   2.965   1.001  12.833 -0.0136  1.8177  3.2841
 8880TIP3   OH248130   1.175   1.864  12.705  0.0666 -0.5754 -0.1921
 8880TIP3    H148131   1.169   1.802  12.777 -2.3504  1.0552  1.1525
 8880TIP3    H248132   1.120   1.826  12.636  0.5044 -1.0217 -0.3016
 8881TIP3   OH248133   3.110   1.865   2.991  0.1649 -0.4841  0.2799
 8881TIP3    H148134   3.180   1.850   2.928  0.0725 -0.4793  0.1748
 8881TIP3    H248135   3.142   1.938   3.045  0.4413 -0.7970  0.5379
 8882TIP3   OH248136   1.098   0.587   5.811  0.0167  0.6740 -0.2226
 8882TIP3    H148137   1.138   0.639   5.741  0.1593  0.3410 -0.3894
 8882TIP3    H248138   1.141   0.502   5.805  0.7638  0.9411  0.9115
 8883TIP3   OH248139   3.475   2.651   3.856  0.7034 -0.8089 -0.2063
 8883TIP3    H148140   3.537   2.600   3.804  2.5972  3.2730 -2.4802
 8883TIP3    H248141   3.530   2.699   3.918 -0.3753  1.0975 -0.6303
 8884TIP3   OH248142   1.853   6.192  14.663  0.0215 -0.5030 -0.2044
 8884TIP3    H148143   1.904   6.271  14.676 -0.4912 -0.1263 -0.4576
 8884TIP3    H248144   1.915   6.120  14.675  0.2194 -0.1074  1.3068
 8885TIP3   OH248145   6.791   3.105  11.789 -0.0226  0.2933 -0.3474
 8885TIP3    H148146   6.742   3.175  11.833  0.3488  0.0549  0.4668
 8885TIP3    H248147   6.725   3.039  11.769  0.0608 -0.5000  1.6862
 8886TIP3   OH248148   4.355   5.865  16.591 -0.1273  0.3729 -0.3253
 8886TIP3    H148149   4.281   5.868  16.530 -0.3772  0.9390 -0.0103
 8886TIP3    H248150   4.377   5.957  16.606 -0.8583  0.3276  1.3692
 8887TIP3   OH248151   0.255   3.360  15.405  0.6702 -0.3117 -0.3689
 8887TIP3    H148152   0.209   3.279  15.384 -3.7266  1.9226 -0.4916
 8887TIP3    H248153   0.203   3.400  15.475  3.1048  2.0679  0.2691
 8888TIP3   OH248154   2.821   2.038  13.512 -0.0467 -0.0345  0.0367
 8888TIP3    H148155   2.884   2.045  13.584  1.1861 -0.4936 -0.9543
 8888TIP3    H248156   2.770   2.119  13.516  1.1111  0.6967  0.4141
 8889TIP3   OH248157   4.540   0.852   5.437  0.1276 -0.1150  0.3764
 8889TIP3    H148158   4.508   0.776   5.389  0.9844 -0.8397  0.9193
 8889TIP3    H248159   4.635   0.845   5.432  0.3226  2.5062 -2.0284
 8890TIP3   OH248160   3.890   2.683  12.215  0.0671  0.0024 -0.2347
 8890TIP3    H148161   3.859   2.658  12.302  1.2093  0.4472  0.3217
 8890TIP3    H248162   3.950   2.613  12.190 -1.1911 -0.7630 -1.2256
 8891TIP3   OH248163   4.645   0.080   5.602  0.0315  0.0466  0.2878
 8891TIP3    H148164   4.552   0.074   5.624 -0.9133 -1.0069 -3.3844
 8891TIP3    H248165   4.675  -0.011   5.598  1.3482  0.3776  1.6563
 8892TIP3   OH248166   1.535   0.426   1.749  0.2668 -0.0474 -0.0554
 8892TIP3    H148167   1.586   0.492   1.796 -0.9590  1.1018 -0.2538
 8892TIP3    H248168   1.509   0.469   1.667 -2.1800  0.0012  0.6559
 8893TIP3   OH248169   6.053   2.401   0.880 -0.1914 -0.2307  0.1034
 8893TIP3    H148170   6.092   2.489   0.878  0.3521 -0.3126  2.8285
 8893TIP3    H248171   5.961   2.415   0.858  0.1160  0.8282 -0.6082
 8894TIP3   OH248172   5.310   1.535  16.933 -0.4408  0.3276  0.7464
 8894TIP3    H148173   5.274   1.623  16.940  1.4156  1.2141 -0.0776
 8894TIP3    H248174   5.273   1.487  17.007 -2.0376  1.5642  0.8019
 8895TIP3   OH248175   4.763   3.971  15.525  0.5878  0.4094  0.4274
 8895TIP3    H148176   4.677   3.985  15.487  0.5730 -0.4393  0.1245
 8895TIP3    H248177   4.813   3.927  15.456  2.0243  2.9403 -0.2834
 8896TIP3   OH248178   5.906   1.730  11.536 -0.2122  0.0974  0.0198
 8896TIP3    H148179   5.995   1.715  11.507  0.0127  1.1593  0.1455
 8896TIP3    H248180   5.915   1.779  11.618 -0.8643 -1.5460  1.1405
 8897TIP3   OH248181   5.339   4.936   4.084 -0.1509  0.0392  0.0120
 8897TIP3    H148182   5.366   5.027   4.072  0.8486 -0.4599 -1.8359
 8897TIP3    H248183   5.257   4.943   4.132  0.1844  1.8876  0.4232
 8898TIP3   OH248184   1.487   0.478  12.657  0.0083  0.7978  0.1874
 8898TIP3    H148185   1.423   0.456  12.725 -0.8054 -2.3194 -1.3644
 8898TIP3    H248186   1.566   0.432  12.683  0.1764  0.8754 -0.1893
 8899TIP3   OH248187   3.741   2.301  11.237 -0.2566 -0.0602  0.1973
 8899TIP3    H148188   3.809   2.251  11.191 -0.3854 -0.2590  0.2212
 8899TIP3    H248189   3.675   2.319  11.170  0.1754  0.7973 -0.0103
 8900TIP3   OH248190   1.144   4.211  16.943 -0.4496 -0.1701 -0.1927
 8900TIP3    H148191   1.106   4.249  17.022 -0.5628  0.4560 -0.5477
 8900TIP3    H248192   1.072   4.164  16.902 -0.5439  0.0341 -0.2575
 8901TIP3   OH248193   0.394   1.717   2.183  0.3935 -0.0453 -0.2655
 8901TIP3    H148194   0.383   1.718   2.088  1.2433 -1.6653 -0.4127
 8901TIP3    H248195   0.305   1.711   2.218  0.1710 -2.0928 -1.0623
 8902TIP3   OH248196   0.531   6.077   1.412  0.2780 -0.0724 -0.1067
 8902TIP3    H148197   0.529   6.156   1.465  4.4734  1.3557 -1.6555
 8902TIP3    H248198   0.490   6.103   1.329 -0.0454 -0.1545  0.0241
 8903TIP3   OH248199   1.747   5.660   2.516  0.0349 -0.8890  0.6843
 8903TIP3    H148200   1.840   5.667   2.497 -0.5043  0.4235 -1.9439
 8903TIP3    H248201   1.718   5.751   2.529 -0.9816 -1.2402  0.9892
 8904TIP3   OH248202   1.462   1.175  16.645 -0.1351 -0.3436 -0.3343
 8904TIP3    H148203   1.409   1.097  16.661  0.5780 -0.8347 -0.3161
 8904TIP3    H248204   1.475   1.214  16.731  1.0666 -1.2478 -0.0827
 8905TIP3   OH248205   2.793   4.687   2.074  0.1743 -0.5073 -0.1898
 8905TIP3    H148206   2.736   4.610   2.074  1.0915 -1.2428 -1.5612
 8905TIP3    H248207   2.753   4.746   2.011  0.9864 -1.1220 -1.3303
 8906TIP3   OH248208   4.731   1.541  15.075  0.0904  0.4330  0.1841
 8906TIP3    H148209   4.755   1.518  15.165  0.0794  1.3205  0.4204
 8906TIP3    H248210   4.638   1.520  15.069  0.5290 -1.5627 -0.2648
 8907TIP3   OH248211   1.516   3.913   5.356  0.0271  0.3625 -0.2635
 8907TIP3    H148212   1.573   3.898   5.431  0.7421  1.3046 -0.6060
 8907TIP3    H248213   1.560   3.981   5.305 -0.7113  0.1127 -1.2652
 8908TIP3   OH248214   0.525   4.286   3.377  0.2009  0.1153  0.0155
 8908TIP3    H148215   0.537   4.376   3.348  1.9905 -0.0691  0.0638
 8908TIP3    H248216   0.512   4.236   3.297  0.2023  0.2756 -0.0836
 8909TIP3   OH248217   3.773   4.181   4.629 -0.6678 -0.9949 -0.0065
 8909TIP3    H148218   3.693   4.231   4.610 -0.7993 -1.4469 -0.6887
 8909TIP3    H248219   3.800   4.148   4.544  0.4904 -0.5005  0.1537
 8910TIP3   OH248220   2.618   4.709   4.866  0.1444  0.6171 -0.3780
 8910TIP3    H148221   2.710   4.718   4.893  0.6802  1.5566 -2.3307
 8910TIP3    H248222   2.623   4.678   4.776 -1.4616  1.0348 -0.6364
 8911TIP3   OH248223   4.194   4.574  13.769 -0.2913 -0.1362  0.3021
 8911TIP3    H148224   4.240   4.515  13.709 -0.9271 -0.0593 -0.2702
 8911TIP3    H248225   4.183   4.523  13.849  1.0708 -0.0494  0.5737
 8912TIP3   OH248226   1.500   3.042  10.961 -0.0780 -0.0964  0.0279
 8912TIP3    H148227   1.506   3.029  10.866 -3.4486 -3.3207  0.0310
 8912TIP3    H248228   1.434   3.110  10.971  0.3201  0.2848  0.1124
 8913TIP3   OH248229   0.890   1.577   0.870 -0.4324 -0.2143 -0.2852
 8913TIP3    H148230   0.880   1.671   0.876  0.1765 -0.2259  1.9399
 8913TIP3    H248231   0.805   1.545   0.842 -1.1820  0.8981  0.6301
 8914TIP3   OH248232   5.398   1.808  17.120 -0.7361 -0.0194  0.3630
 8914TIP3    H148233   5.447   1.875  17.072 -1.9436 -0.9058 -2.3087
 8914TIP3    H248234   5.366   1.853  17.198  0.1532  1.9359 -0.3297
 8915TIP3   OH248235   0.591   5.999   5.232 -0.0035 -0.2810  0.2303
 8915TIP3    H148236   0.528   5.978   5.301 -1.2931 -0.6571 -1.0071
 8915TIP3    H248237   0.661   5.935   5.242  0.2494  0.1932  1.6842
 8916TIP3   OH248238   4.952   3.457   0.443 -0.1582  0.0493 -0.2951
 8916TIP3    H148239   4.963   3.434   0.536 -0.4748 -0.7324 -0.4382
 8916TIP3    H248240   5.041   3.458   0.408 -0.0492  0.1739 -0.0184
 8917TIP3   OH248241   1.691   2.143   3.661 -0.0429 -0.5452 -0.0819
 8917TIP3    H148242   1.671   2.202   3.734  0.1575 -1.6002  0.8609
 8917TIP3    H248243   1.735   2.068   3.702 -3.9258 -3.3847 -0.5161
 8918TIP3   OH248244   3.105   2.666  11.885 -0.0590 -0.0390 -0.0015
 8918TIP3    H148245   3.135   2.757  11.882 -0.0677 -0.0223  0.3979
 8918TIP3    H248246   3.033   2.663  11.822 -0.9751  0.5811  0.9748
 8919TIP3   OH248247   4.267   3.655   5.175  0.5557 -0.3139  0.6339
 8919TIP3    H148248   4.193   3.697   5.219 -0.1325 -0.9842  0.1389
 8919TIP3    H248249   4.234   3.637   5.087  2.4595  2.6443 -0.8426
 8920TIP3   OH248250   0.202   6.682   4.544  0.1513 -0.2555  0.6372
 8920TIP3    H148251   0.162   6.688   4.458 -2.2152  0.7579  1.6977
 8920TIP3    H248252   0.181   6.594   4.575 -1.8460  0.3940  1.3489
 8921TIP3   OH248253   1.161   4.671   3.843  0.4798 -0.2277  0.0133
 8921TIP3    H148254   1.094   4.638   3.783 -0.5270  0.7757  0.5416
 8921TIP3    H248255   1.238   4.685   3.789 -0.8422  2.1005 -1.4013
 8922TIP3   OH248256   1.078   1.907   1.622  0.0766  0.1226  0.7211
 8922TIP3    H148257   1.019   1.910   1.697 -1.6680  0.5065 -0.6043
 8922TIP3    H248258   1.158   1.951   1.653 -0.8217  0.8276  2.1401
 8923TIP3   OH248259   1.075   1.553  11.409  0.0110 -0.0704 -0.0284
 8923TIP3    H148260   1.132   1.506  11.470 -0.0477 -1.2587 -0.8450
 8923TIP3    H248261   1.080   1.644  11.437  1.0313 -0.3882  0.9211
 8924TIP3   OH248262   3.307   3.684   4.136  0.3928 -0.0433 -0.4658
 8924TIP3    H148263   3.306   3.606   4.080 -2.3590 -0.3459 -0.1376
 8924TIP3    H248264   3.373   3.741   4.096 -0.1453 -1.0003 -2.9482
 8925TIP3   OH248265   0.300   5.546  13.235 -0.1532  0.1692 -0.4150
 8925TIP3    H148266   0.298   5.588  13.149  2.1751 -0.6551 -0.9476
 8925TIP3    H248267   0.312   5.619  13.296 -0.7753  0.6629 -0.8613
 8926TIP3   OH248268   5.763   5.675   3.515 -0.5971 -0.6343  0.9722
 8926TIP3    H148269   5.695   5.659   3.581 -0.6473  0.1824  1.1375
 8926TIP3    H248270   5.769   5.771   3.511  0.4360 -0.7007  0.8468
 8927TIP3   OH248271   2.753   3.272  13.076 -0.0631  0.7105 -0.6695
 8927TIP3    H148272   2.748   3.345  13.014 -0.7459  1.2416 -0.0106
 8927TIP3    H248273   2.846   3.263  13.095 -0.1147  2.9025  0.9591
 8928TIP3   OH248274   6.664   4.291  11.457 -0.8359 -0.6606 -0.4484
 8928TIP3    H148275   6.721   4.366  11.443  0.4605 -1.1697  1.5620
 8928TIP3    H248276   6.578   4.328  11.473  0.3053  0.7426  3.4702
 8929TIP3   OH248277   4.564   3.859  13.210 -0.2265  0.2076 -0.0690
 8929TIP3    H148278   4.623   3.916  13.261  2.0259 -0.4684 -1.7326
 8929TIP3    H248279   4.593   3.770  13.232  1.9231 -0.1120 -3.5009
 8930TIP3   OH248280   4.381   2.630   1.048  0.1246  0.3583  0.2948
 8930TIP3    H148281   4.319   2.569   1.088 -0.8076  0.5389 -0.7848
 8930TIP3    H248282   4.379   2.608   0.955  1.6321  0.4428  0.2310
 8931TIP3   OH248283   3.651   5.618  16.515 -0.2699 -0.4307 -0.3350
 8931TIP3    H148284   3.579   5.571  16.557 -1.4854 -0.5122 -2.3321
 8931TIP3    H248285   3.730   5.584  16.556 -1.3424 -0.2187  2.0673
 8932TIP3   OH248286   1.743   1.483   3.705  0.3663  0.0430  0.3950
 8932TIP3    H148287   1.667   1.468   3.649 -0.1256  4.0960 -0.3069
 8932TIP3    H248288   1.804   1.414   3.681 -1.3595 -0.7109 -2.2897
 8933TIP3   OH248289   4.683   5.724   2.091  0.0644 -0.2883  0.1642
 8933TIP3    H148290   4.591   5.748   2.099 -0.0454 -0.8924  0.8867
 8933TIP3    H248291   4.730   5.807   2.086 -0.5948  0.0161 -1.2218
 8934TIP3   OH248292   3.897   6.107   5.700  0.4225 -0.6887 -0.8741
 8934TIP3    H148293   3.869   6.125   5.790  3.8656  0.6152  0.1031
 8934TIP3    H248294   3.958   6.034   5.708  0.8314 -0.5119 -2.1275
 8935TIP3   OH248295   4.251   3.205  13.984  0.1576  0.3235 -0.0898
 8935TIP3    H148296   4.241   3.298  14.005  2.1854  0.3839  0.8336
 8935TIP3    H248297   4.180   3.162  14.032 -0.4209  1.3276 -0.0228
 8936TIP3   OH248298   1.657   2.906   2.949 -0.0450 -0.2481 -0.4746
 8936TIP3    H148299   1.630   2.827   2.901  1.2950 -0.9915 -0.0670
 8936TIP3    H248300   1.752   2.895   2.960 -0.1384  0.5089  1.2435
 8937TIP3   OH248301   6.698   5.711  14.114 -0.3303 -0.3370  0.6682
 8937TIP3    H148302   6.649   5.762  14.178 -0.7388  0.1185  0.0114
 8937TIP3    H248303   6.780   5.760  14.103  0.0019 -0.7481  1.2890
 8938TIP3   OH248304   6.481   1.708  11.911  0.6237 -0.1204 -0.0426
 8938TIP3    H148305   6.509   1.784  11.961 -0.4269  1.3294 -1.5370
 8938TIP3    H248306   6.483   1.737  11.819 -1.0505 -1.4439 -0.5635
 8939TIP3   OH248307   2.658   6.408   5.532  0.0193 -0.2270 -0.7227
 8939TIP3    H148308   2.589   6.343   5.517  0.6446 -0.7256 -1.5230
 8939TIP3    H248309   2.665   6.455   5.448 -1.0924  1.5499  0.1341
 8940TIP3   OH248310   0.308   4.889  17.231  0.2271  0.4700  0.1172
 8940TIP3    H148311   0.376   4.949  17.261  0.2045 -0.0969  1.3783
 8940TIP3    H248312   0.231   4.910  17.285 -0.4477  0.7377 -0.9139
 8941TIP3   OH248313   2.974   2.776   5.557  0.1440  0.3083  0.1520
 8941TIP3    H148314   2.958   2.698   5.504 -0.4056  0.7838 -0.3915
 8941TIP3    H248315   3.002   2.742   5.642  0.4504 -0.4723 -0.2500
 8942TIP3   OH248316   4.165   6.110  14.917  0.3568 -0.2776  0.3673
 8942TIP3    H148317   4.211   6.030  14.892  0.2325 -0.4168  0.5796
 8942TIP3    H248318   4.086   6.079  14.963 -1.3968 -0.1297 -2.3370
 8943TIP3   OH248319   3.576   3.271   5.155  0.2045 -0.2102 -0.6364
 8943TIP3    H148320   3.584   3.269   5.250 -0.6264 -0.2440 -0.5617
 8943TIP3    H248321   3.482   3.262   5.138  0.5542 -3.2286 -1.5262
 8944TIP3   OH248322   5.148   4.614  13.099 -0.1432  0.4110  0.0900
 8944TIP3    H148323   5.117   4.692  13.053  1.4481  0.9399 -0.1283
 8944TIP3    H248324   5.162   4.550  13.029  0.9428  0.7622 -0.0296
 8945TIP3   OH248325   4.717   4.052   4.977  0.2220  0.3175  0.1529
 8945TIP3    H148326   4.671   4.065   4.895  1.0821  1.2343 -0.1995
 8945TIP3    H248327   4.673   3.977   5.018  0.7972 -1.2112 -1.8720
 8946TIP3   OH248328   5.262   5.149  14.531 -0.3147 -0.1414 -0.0775
 8946TIP3    H148329   5.258   5.134  14.626  0.7381  0.1250  0.0326
 8946TIP3    H248330   5.352   5.180  14.517 -0.8989  1.2416 -0.9525
 8947TIP3   OH248331   5.085   0.204   4.276  0.1521 -0.0922  0.5033
 8947TIP3    H148332   4.999   0.210   4.317 -0.2099 -2.2710  0.1625
 8947TIP3    H248333   5.145   0.243   4.339 -0.6461 -1.6193  2.2900
 8948TIP3   OH248334   3.764   3.506   4.015  1.0944 -0.2571 -0.3933
 8948TIP3    H148335   3.761   3.427   4.068  0.1074 -0.5174 -0.8099
 8948TIP3    H248336   3.783   3.576   4.078  1.7081 -0.7841  0.0172
 8949TIP3   OH248337   0.429   1.595   4.562  0.0466  0.4324 -0.0001
 8949TIP3    H148338   0.442   1.591   4.467  1.1643  0.9239  0.1252
 8949TIP3    H248339   0.337   1.621   4.572  0.0866  0.9806 -0.9484
 8950TIP3   OH248340   3.919   3.964   4.939 -0.1529 -0.1117  0.5703
 8950TIP3    H148341   3.987   3.972   5.006 -0.4327 -2.1205  1.1432
 8950TIP3    H248342   3.859   3.898   4.974 -1.8063  0.7910 -0.4367
 8951TIP3   OH248343   2.861   5.074  12.987  0.2815 -0.1454 -0.0062
 8951TIP3    H148344   2.922   5.085  13.060  0.4675  2.7360 -0.4866
 8951TIP3    H248345   2.913   5.035  12.917  0.6811 -0.7700  0.6142
 8952TIP3   OH248346   2.877   4.413  14.344 -0.0000 -0.4929 -0.1805
 8952TIP3    H148347   2.894   4.479  14.277 -1.1681  0.1394  0.1314
 8952TIP3    H248348   2.787   4.429  14.372 -0.2844 -2.1769 -0.0460
 8953TIP3   OH248349   5.072   5.775  14.561 -0.0176 -0.7579  0.0469
 8953TIP3    H148350   4.997   5.788  14.619 -1.4335 -2.3633 -1.3084
 8953TIP3    H248351   5.088   5.681  14.563  2.3703 -0.3978  0.7180
 8954TIP3   OH248352   6.343   6.451  11.859 -0.1856  0.1271  0.2307
 8954TIP3    H148353   6.311   6.460  11.948  1.3121  0.4615  0.7580
 8954TIP3    H248354   6.378   6.537  11.837 -0.8197  0.1391 -0.8126
 8955TIP3   OH248355   1.582   5.328  13.469 -0.5048  0.2314 -0.3243
 8955TIP3    H148356   1.648   5.360  13.530 -1.6150  0.0961  1.0127
 8955TIP3    H248357   1.506   5.309  13.524 -1.1822 -0.9782 -1.6161
 8956TIP3   OH248358   1.497   6.192  16.133  0.0965 -0.2740  0.7928
 8956TIP3    H148359   1.510   6.187  16.228  3.0475 -0.7853  0.4484
 8956TIP3    H248360   1.581   6.223  16.099 -0.4027 -1.4824 -1.7722
 8957TIP3   OH248361   6.530   5.336  12.446  0.1975 -0.2158 -0.4355
 8957TIP3    H148362   6.475   5.364  12.519  1.7046 -0.1882  0.7410
 8957TIP3    H248363   6.599   5.401  12.442  1.4262 -1.4731 -0.3683
 8958TIP3   OH248364   1.863   3.738  12.313  0.0909  0.2326 -0.0285
 8958TIP3    H148365   1.933   3.696  12.264  0.1962 -0.5239  0.7369
 8958TIP3    H248366   1.797   3.670  12.324 -0.5853  0.8202 -0.3876
 8959TIP3   OH248367   4.034   5.011  13.405  0.2505 -0.1988  0.2262
 8959TIP3    H148368   4.083   4.992  13.485 -0.4905  1.2020  1.0462
 8959TIP3    H248369   3.980   5.087  13.427  0.0233  0.2148 -1.6164
 8960TIP3   OH248370   6.293   1.417  10.257  0.1155 -0.6799  0.1551
 8960TIP3    H148371   6.386   1.398  10.245  0.1143 -0.0195 -0.9945
 8960TIP3    H248372   6.279   1.500  10.212 -1.3100 -1.4211 -0.8380
 8961TIP3   OH248373   5.937   4.847   5.624  0.0947 -0.0532 -0.2233
 8961TIP3    H148374   5.908   4.803   5.704  0.4706  1.5952  0.8851
 8961TIP3    H248375   6.022   4.884   5.647  0.1738  0.5164 -1.3646
 8962TIP3   OH248376   5.733   5.587   5.291 -0.2190  0.3245  0.0519
 8962TIP3    H148377   5.793   5.565   5.220 -1.5237  0.1687 -1.0301
 8962TIP3    H248378   5.650   5.608   5.247 -1.1929 -0.2301  1.5492
 8963TIP3   OH248379   4.207   5.358  15.303 -0.4552 -0.4367  0.0475
 8963TIP3    H148380   4.132   5.357  15.243 -0.3725 -4.2008 -0.2273
 8963TIP3    H248381   4.277   5.314  15.256  0.7336 -0.4049  1.6879
 8964TIP3   OH248382   3.915   6.546  16.590  0.2876 -0.5466  0.3013
 8964TIP3    H148383   3.985   6.593  16.635  0.0644 -1.4599  1.6677
 8964TIP3    H248384   3.882   6.608  16.525  0.6984  0.7958  1.3276
 8965TIP3   OH248385   5.516   3.247  12.348 -0.7429  0.2978 -0.6057
 8965TIP3    H148386   5.505   3.235  12.442 -0.1109 -1.2694 -0.7050
 8965TIP3    H248387   5.611   3.255  12.335 -0.7338 -0.5695 -1.1949
 8966TIP3   OH248388   3.305   1.593  12.048  0.0047 -0.2138  0.3778
 8966TIP3    H148389   3.250   1.671  12.058  0.0477  0.2200 -2.1242
 8966TIP3    H248390   3.244   1.520  12.055 -0.6582  0.2041 -0.7580
 8967TIP3   OH248391   4.499   1.459   1.074 -0.5571 -0.2392  0.1677
 8967TIP3    H148392   4.585   1.431   1.106 -0.4177  0.9501  0.8954
 8967TIP3    H248393   4.465   1.517   1.142 -1.8898 -0.5739 -0.1677
 8968TIP3   OH248394   4.630   4.330  16.211  0.6112  0.7101 -0.3885
 8968TIP3    H148395   4.656   4.238  16.203  0.0800  0.6050 -1.0171
 8968TIP3    H248396   4.555   4.330  16.270  0.9636  0.8100  0.0633
 8969TIP3   OH248397   4.590   5.975  16.333  0.1916  0.3443 -0.1099
 8969TIP3    H148398   4.641   5.963  16.413  0.0989 -0.1618 -0.1242
 8969TIP3    H248399   4.567   5.887  16.305  0.0729  0.5228 -0.6015
 8970TIP3   OH248400   3.324   6.098  14.413  0.1902 -0.1199  0.0778
 8970TIP3    H148401   3.322   6.159  14.339 -0.9376  2.5689  2.1731
 8970TIP3    H248402   3.373   6.144  14.481 -0.5559 -1.6335  1.7039
 8971TIP3   OH248403   0.224   2.019   1.734  0.3226  0.0046 -0.0135
 8971TIP3    H148404   0.180   2.069   1.803  0.7331  0.7334 -0.2647
 8971TIP3    H248405   0.153   1.995   1.674 -0.0931 -0.9785  0.8527
 8972TIP3   OH248406   5.901   0.971  16.991 -0.1956  0.2185 -0.2202
 8972TIP3    H148407   5.996   0.963  17.003 -0.3123  1.5545  2.2502
 8972TIP3    H248408   5.871   0.881  16.978  1.3000 -0.3426 -0.0508
 8973TIP3   OH248409   6.092   1.594   0.426 -1.2726 -0.2817  0.0508
 8973TIP3    H148410   6.019   1.624   0.479 -1.3652  0.6483 -0.5830
 8973TIP3    H248411   6.065   1.613   0.336 -0.1245  0.3758 -0.1707
 8974TIP3   OH248412   4.203   6.129  13.966 -0.0234  0.0491 -0.8202
 8974TIP3    H148413   4.221   6.222  13.976 -0.8005  0.2954 -1.5780
 8974TIP3    H248414   4.108   6.124  13.956  0.0269 -0.8155 -0.9566
 8975TIP3   OH248415   4.562   2.868  13.806  0.3202 -0.2111  0.3090
 8975TIP3    H148416   4.536   2.937  13.867  1.5303 -0.9929  1.7991
 8975TIP3    H248417   4.619   2.912  13.743 -1.6596  0.7909 -0.8628
 8976TIP3   OH248418   2.661   6.129   3.097  0.6970  0.1713 -0.3619
 8976TIP3    H148419   2.703   6.044   3.101  0.5214  0.0272 -1.3694
 8976TIP3    H248420   2.614   6.129   3.013  3.2509  2.4121 -1.9729
 8977TIP3   OH248421   2.935   0.334  11.353 -0.5757 -0.1095  0.2784
 8977TIP3    H148422   2.888   0.297  11.278 -0.4155 -1.7728  0.9479
 8977TIP3    H248423   3.008   0.383  11.315 -1.2654  0.2086 -0.6761
 8978TIP3   OH248424   4.589   3.029   5.291  0.3175 -0.1774 -0.5428
 8978TIP3    H148425   4.511   3.061   5.336  0.0683 -0.2906 -0.8903
 8978TIP3    H248426   4.579   2.934   5.293  1.1053 -0.2535  0.5825
 8979TIP3   OH248427   2.737   3.520  13.433 -0.1885 -0.2220  0.0350
 8979TIP3    H148428   2.761   3.570  13.356  0.7816  0.5760  0.8298
 8979TIP3    H248429   2.672   3.575  13.478 -0.2116 -0.3479  0.1565
 8980TIP3   OH248430   3.531   4.296  12.797 -0.1586  0.3109 -0.5102
 8980TIP3    H148431   3.459   4.340  12.841  0.8656  1.3482  0.1906
 8980TIP3    H248432   3.497   4.277  12.709 -0.8977  1.8738 -0.6049
 8981TIP3   OH248433   5.948   0.697  12.517 -0.1945  0.4415 -0.2292
 8981TIP3    H148434   5.878   0.758  12.494  1.0962  2.0840 -0.0059
 8981TIP3    H248435   6.014   0.751  12.560  0.9988 -1.1456  0.0421
 8982TIP3   OH248436   3.379   1.235   2.553  0.0083  0.0092  0.1024
 8982TIP3    H148437   3.471   1.244   2.529 -0.4340  2.2299 -0.9918
 8982TIP3    H248438   3.377   1.159   2.611  2.5108 -0.1322  0.1144
 8983TIP3   OH248439   4.925   3.206   5.668  0.2605  0.7493 -0.5320
 8983TIP3    H148440   4.881   3.123   5.647  0.7110  0.9799 -2.6026
 8983TIP3    H248441   4.854   3.263   5.698 -0.1983 -0.0874  0.0335
 8984TIP3   OH248442   1.150   1.883  17.062 -0.1000  0.0812  0.3812
 8984TIP3    H148443   1.240   1.857  17.085  0.9374  0.7483 -2.4820
 8984TIP3    H248444   1.146   1.976  17.085  0.1291  0.1771  0.0418
 8985TIP3   OH248445   1.174   4.007   5.918  0.0661 -0.1363 -0.9127
 8985TIP3    H148446   1.259   4.031   5.881  0.5843  0.8023  0.8161
 8985TIP3    H248447   1.112   4.024   5.846  0.9659  2.1371 -1.2400
 8986TIP3   OH248448   1.828   5.312  14.120  0.1579  0.1440 -0.1212
 8986TIP3    H148449   1.869   5.304  14.206  0.5376  0.6431 -0.2530
 8986TIP3    H248450   1.887   5.266  14.060  0.2247  0.3498 -0.2155
 8987TIP3   OH248451   1.581   2.765  13.740 -0.3936 -0.0712  0.2114
 8987TIP3    H148452   1.673   2.744  13.725 -0.1161  0.7695  0.7042
 8987TIP3    H248453   1.537   2.680  13.741  0.7446 -0.7002  2.5383
 8988TIP3   OH248454   0.241   3.280   1.155 -0.4815  0.1534 -0.3994
 8988TIP3    H148455   0.162   3.298   1.103  0.6961  0.9873 -1.9758
 8988TIP3    H248456   0.281   3.204   1.112  0.3310  0.6383 -0.5096
 8989TIP3   OH248457   3.831   5.825   3.952  0.2958 -0.3103  0.1809
 8989TIP3    H148458   3.925   5.822   3.969  0.2392 -0.9629  0.4241
 8989TIP3    H248459   3.790   5.813   4.037 -0.0039 -0.6389 -0.0049
 8990TIP3   OH248460   5.528   1.650   3.593  0.4125 -0.5407 -0.0023
 8990TIP3    H148461   5.560   1.586   3.657 -1.1945 -2.4495 -1.0122
 8990TIP3    H248462   5.506   1.727   3.645  2.5208 -0.6975  1.2355
 8991TIP3   OH248463   3.915   5.047  10.950  0.3169  0.5345  0.0984
 8991TIP3    H148464   3.892   5.111  11.018  0.2857 -0.5051  1.1041
 8991TIP3    H248465   3.973   4.986  10.995 -2.0326 -1.8705  0.0578
 8992TIP3   OH248466   2.289   0.012  14.935 -0.1360 -0.3211 -0.0119
 8992TIP3    H148467   2.325   0.012  14.847 -0.1578 -0.9549 -0.0285
 8992TIP3    H248468   2.364  -0.006  14.992 -0.2326 -0.5520  0.0441
 8993TIP3   OH248469   4.781   3.807  12.825 -0.4323 -0.6134 -0.3372
 8993TIP3    H148470   4.732   3.751  12.885 -0.4621 -1.4546 -1.1245
 8993TIP3    H248471   4.873   3.780  12.837 -0.3967 -0.5108 -0.3785
 8994TIP3   OH248472   2.271   0.379  11.820 -0.0867  0.5210  0.2679
 8994TIP3    H148473   2.291   0.468  11.849  2.9612  0.5267 -1.4767
 8994TIP3    H248474   2.344   0.354  11.764 -1.4246 -2.6728 -0.3108
 8995TIP3   OH248475   3.125   3.463   4.274  0.3979  0.2737  0.2046
 8995TIP3    H148476   3.136   3.558   4.283  0.2303  0.3025  0.1209
 8995TIP3    H248477   3.117   3.431   4.364 -0.3988  0.4486  0.2058
 8996TIP3   OH248478   3.017   2.463  11.422 -0.3910 -0.5976 -0.1391
 8996TIP3    H148479   3.105   2.444  11.453 -0.7600 -1.2608  0.5138
 8996TIP3    H248480   3.030   2.523  11.348  0.6532 -1.4072 -0.6336
 8997TIP3   OH248481   4.332   2.463   0.590  0.3700  0.4886  0.1931
 8997TIP3    H148482   4.284   2.483   0.509 -1.8076  0.3162  1.3670
 8997TIP3    H248483   4.416   2.428   0.560 -0.8281 -0.7184 -2.0227
 8998TIP3   OH248484   0.460   0.409   3.421 -0.0448  0.9430 -0.1131
 8998TIP3    H148485   0.417   0.453   3.348  0.1809 -1.8846 -2.0881
 8998TIP3    H248486   0.389   0.362   3.465  0.1009  1.2287  0.4398
 8999TIP3   OH248487   3.644   6.167   5.200 -0.8899 -0.2540 -0.5207
 8999TIP3    H148488   3.583   6.215   5.256  1.9449  2.7277  0.3039
 8999TIP3    H248489   3.708   6.130   5.261 -0.8123 -1.7837 -1.4714
 9000TIP3   OH248490   2.624   4.131  13.048  0.2794  0.3121 -0.1423
 9000TIP3    H148491   2.538   4.173  13.040  0.5298  1.0476  0.8239
 9000TIP3    H248492   2.676   4.168  12.977  0.5146  1.7220  0.7287
 9001TIP3   OH248493   4.484   4.759  12.165 -0.7873 -0.2231 -0.2446
 9001TIP3    H148494   4.422   4.830  12.180 -2.2778 -0.9818 -2.3313
 9001TIP3    H248495   4.454   4.689  12.223 -0.5125  0.1765  0.3820
 9002TIP3   OH248496   0.053   3.859   5.880  0.3586  0.0443  0.1120
 9002TIP3    H148497   0.045   3.793   5.811  0.2148 -0.2708  0.4236
 9002TIP3    H248498   0.071   3.941   5.834  0.1824 -0.1485 -0.3022
 9003TIP3   OH248499   2.675   1.842   4.664 -0.3677  0.5328  0.2778
 9003TIP3    H148500   2.605   1.846   4.598  0.9800 -2.2836 -1.5275
 9003TIP3    H248501   2.629   1.826   4.746 -1.9716 -2.7440 -1.0543
 9004TIP3   OH248502   4.254   5.243   4.388 -0.0189 -0.1876  0.0508
 9004TIP3    H148503   4.268   5.337   4.384 -0.4562 -0.1419 -0.5715
 9004TIP3    H248504   4.275   5.212   4.299 -0.6468 -0.5613  0.0268
 9005TIP3   OH248505   6.260   1.855  13.701 -0.0493 -0.0146  0.4368
 9005TIP3    H148506   6.166   1.848  13.683  0.1561  1.5226 -1.6735
 9005TIP3    H248507   6.270   1.938  13.748  0.3741  0.6803 -0.8297
 9006TIP3   OH248508   2.232   0.070  16.229  0.6187  0.1824 -0.3294
 9006TIP3    H148509   2.275   0.148  16.194  2.1836 -0.0059  1.0699
 9006TIP3    H248510   2.259   0.066  16.320 -1.2742 -0.7576  0.2630
 9007TIP3   OH248511   3.549   0.005  15.714  0.3287 -0.3291 -0.0165
 9007TIP3    H148512   3.475  -0.055  15.724 -0.3580  0.4893 -0.1030
 9007TIP3    H248513   3.626  -0.052  15.716 -0.2322 -1.0812  1.2150
 9008TIP3   OH248514   3.910   2.839   6.352 -0.3912  0.7415  0.4691
 9008TIP3    H148515   3.901   2.753   6.313 -0.3021 -0.0241  2.0549
 9008TIP3    H248516   3.819   2.869   6.363 -0.4160  0.9529 -0.2788
 9009TIP3   OH248517   6.797   0.685   1.388 -0.0029  0.0707  0.2718
 9009TIP3    H148518   6.879   0.639   1.408 -0.2133 -0.5487 -0.2606
 9009TIP3    H248519   6.759   0.636   1.315 -2.1613 -1.2980  2.1562
 9010TIP3   OH248520   2.138   5.238   0.823  0.3663  0.1483 -0.0349
 9010TIP3    H148521   2.071   5.216   0.888 -0.4229 -1.3707 -1.2819
 9010TIP3    H248522   2.189   5.308   0.863 -0.1119 -0.7007  2.1950
 9011TIP3   OH248523   5.886   4.032  13.330  0.6469  0.1331  0.1825
 9011TIP3    H148524   5.954   4.096  13.310  0.1286  1.1569  1.5642
 9011TIP3    H248525   5.835   4.024  13.249  1.4721  0.5064 -0.3804
 9012TIP3   OH248526   4.809   6.282   4.798 -0.5340  0.2393 -0.2088
 9012TIP3    H148527   4.768   6.313   4.717 -2.4250  2.1670  1.3888
 9012TIP3    H248528   4.791   6.188   4.800 -0.5396  0.1774 -1.9310
 9013TIP3   OH248529   2.303   5.347   6.160  1.0298  0.1324  0.3922
 9013TIP3    H148530   2.335   5.301   6.238 -1.9688 -3.0587 -0.0011
 9013TIP3    H248531   2.340   5.298   6.087 -1.1907 -1.0222 -0.0490
 9014TIP3   OH248532   5.690   1.978   0.730 -0.7805  0.1945  0.1338
 9014TIP3    H148533   5.659   1.989   0.640 -0.5895  2.7073  0.3246
 9014TIP3    H248534   5.614   2.000   0.784 -0.3197  0.6423  0.5966
 9015TIP3   OH248535   1.842   5.365  15.263  0.2089  0.1035 -0.2587
 9015TIP3    H148536   1.835   5.456  15.291 -2.7583 -0.3805  0.8298
 9015TIP3    H248537   1.862   5.317  15.343  0.1538 -0.4015 -0.5470
 9016TIP3   OH248538   2.836   2.187  14.334  0.0286  0.4080 -0.0147
 9016TIP3    H148539   2.773   2.245  14.292  0.3168  0.4558 -0.3897
 9016TIP3    H248540   2.815   2.192  14.427 -1.9786 -1.3119 -0.2983
 9017TIP3   OH248541   2.994   2.126  14.836 -0.0386  0.0807  0.2630
 9017TIP3    H148542   3.026   2.204  14.882 -0.1856  0.2439  0.0883
 9017TIP3    H248543   3.071   2.070  14.827 -0.3129 -0.6422  2.0816
 9018TIP3   OH248544   1.720   1.703   0.106 -0.5620 -0.1868  0.6044
 9018TIP3    H148545   1.694   1.784   0.064  2.1703 -0.6182 -2.3499
 9018TIP3    H248546   1.785   1.729   0.172  1.2913  0.0966 -1.2186
 9019TIP3   OH248547   4.217   2.323  16.666  0.5317  0.0001 -0.0820
 9019TIP3    H148548   4.311   2.340  16.668  0.1998  2.2017 -0.4285
 9019TIP3    H248549   4.179   2.395  16.716 -0.8503 -2.4616  2.7943
 9020TIP3   OH248550   5.626   0.031  15.494  0.2425 -0.2229 -0.2510
 9020TIP3    H148551   5.604  -0.017  15.414  1.6629  0.1793 -0.9238
 9020TIP3    H248552   5.659   0.116  15.462  1.1748 -0.1989  0.7320
 9021TIP3   OH248553   6.559   4.402   5.878  0.4724  0.4838 -0.1401
 9021TIP3    H148554   6.557   4.444   5.792  0.7339  0.4560 -0.1613
 9021TIP3    H248555   6.471   4.416   5.914  0.1900  0.0265 -0.6340
 9022TIP3   OH248556   0.564   3.470  14.025  0.4148 -0.1093  0.0516
 9022TIP3    H148557   0.630   3.533  14.054 -0.1182  0.6538 -0.3511
 9022TIP3    H248558   0.591   3.445  13.937  1.7215 -1.9977  0.9150
 9023TIP3   OH248559   0.200   4.899  16.828 -0.0653 -0.1278  0.0308
 9023TIP3    H148560   0.181   4.992  16.837  0.2528  0.1546 -1.8138
 9023TIP3    H248561   0.276   4.885  16.884 -0.8332  0.4302  1.2638
 9024TIP3   OH248562   0.145   5.946   0.042 -0.2977  0.2174  0.8215
 9024TIP3    H148563   0.170   5.937   0.134  3.1154  0.2483  0.0112
 9024TIP3    H248564   0.181   5.869  -0.001 -1.4525  0.4246 -0.5972
 9025TIP3   OH248565   0.316   4.847  13.204  0.2514  0.0584 -0.3638
 9025TIP3    H148566   0.278   4.763  13.229  0.7432 -0.6505 -1.8661
 9025TIP3    H248567   0.275   4.868  13.120 -1.3037  2.3082  0.8792
 9026TIP3   OH248568   1.788   1.502   6.386 -0.6848  0.2715  0.0858
 9026TIP3    H148569   1.724   1.457   6.331  0.0097 -0.0978 -0.4394
 9026TIP3    H248570   1.786   1.593   6.356 -1.3626  0.3823  0.4579
 9027TIP3   OH248571   2.747   1.228   4.193 -0.0795  0.0146 -0.4881
 9027TIP3    H148572   2.758   1.133   4.197 -0.1539  0.0334  0.5260
 9027TIP3    H248573   2.698   1.244   4.113  1.6698 -0.6318 -1.7447
 9028TIP3   OH248574   0.366   4.681  11.334  0.3948 -0.0784  0.2485
 9028TIP3    H148575   0.353   4.589  11.312  1.9465  0.0026 -1.2377
 9028TIP3    H248576   0.377   4.681  11.429 -1.7845 -1.1033  0.5496
 9029TIP3   OH248577   1.300   4.308  16.489  0.3253 -0.3002  0.6095
 9029TIP3    H148578   1.336   4.230  16.445 -2.1409 -1.1530 -0.0426
 9029TIP3    H248579   1.304   4.376  16.422 -1.1076 -0.9361 -0.1578
 9030TIP3   OH248580   3.179   3.627   4.908  0.4422 -0.5519 -0.0026
 9030TIP3    H148581   3.182   3.573   4.987 -1.4794  1.3448  1.4568
 9030TIP3    H248582   3.142   3.710   4.936 -2.5110 -0.5243 -3.2717
 9031TIP3   OH248583   1.266   4.413   3.901  0.3795  0.0778  0.0037
 9031TIP3    H148584   1.267   4.467   3.822  1.5153 -1.3215 -1.0029
 9031TIP3    H248585   1.226   4.330   3.872  0.9174 -0.4963  0.8629
 9032TIP3   OH248586   3.636   2.535   2.077  0.2002  0.2518 -0.4427
 9032TIP3    H148587   3.719   2.488   2.073 -0.8406 -1.7287  0.2358
 9032TIP3    H248588   3.572   2.475   2.040 -1.0454  1.5412 -0.4956
 9033TIP3   OH248589   2.192   2.542  12.439 -0.0313 -0.6464 -0.1949
 9033TIP3    H148590   2.257   2.482  12.404  1.1621  0.0589  0.7054
 9033TIP3    H248591   2.159   2.590  12.362  1.4841 -0.1127 -0.5489
 9034TIP3   OH248592   0.481   2.851  12.808  0.2215  0.0349 -0.2584
 9034TIP3    H148593   0.537   2.838  12.732 -1.3201 -0.4153 -1.3771
 9034TIP3    H248594   0.532   2.908  12.866  1.8032 -0.3480 -1.1995
 9035TIP3   OH248595   0.851   0.196  16.020  0.1936 -0.6406 -0.4258
 9035TIP3    H148596   0.863   0.245  16.101  1.1148 -0.8045 -0.4454
 9035TIP3    H248597   0.937   0.200  15.976 -0.9718  1.7973 -2.7540
 9036TIP3   OH248598   2.839   5.700  14.908 -0.3939  0.8323  0.1729
 9036TIP3    H148599   2.781   5.699  14.985 -0.1336 -1.2016  0.4091
 9036TIP3    H248600   2.903   5.768  14.928 -0.2890  0.3064  1.8109
 9037TIP3   OH248601   3.091   1.164  15.334  0.1124 -0.0106 -0.2476
 9037TIP3    H148602   3.053   1.128  15.254 -1.1411 -0.1702  0.3967
 9037TIP3    H248603   3.129   1.248  15.307 -2.2814  1.0508 -0.6346
 9038TIP3   OH248604   6.209   0.003   3.714  0.4999 -0.2031 -0.0632
 9038TIP3    H148605   6.189   0.085   3.669 -0.1700  0.8423  2.0052
 9038TIP3    H248606   6.245  -0.054   3.646 -0.2835  1.3262 -1.8381
 9039TIP3   OH248607   3.624   0.031   4.695 -0.6400 -0.4083 -0.3559
 9039TIP3    H148608   3.693   0.097   4.684  0.8644 -1.7857  0.3298
 9039TIP3    H248609   3.602   0.036   4.788 -0.7328 -0.6778 -0.3647
 9040TIP3   OH248610   3.342   2.644   1.708  0.0385 -0.0197 -0.3506
 9040TIP3    H148611   3.349   2.551   1.730 -0.1184  0.3504  1.3420
 9040TIP3    H248612   3.387   2.651   1.623  1.2419 -1.4105  0.1243
 9041TIP3   OH248613   5.104   2.159  17.164  0.0114 -0.0012 -0.3252
 9041TIP3    H148614   5.036   2.127  17.105  0.1203 -2.3080  0.6689
 9041TIP3    H248615   5.061   2.164  17.250  0.1767  2.1037 -0.3197
 9042TIP3   OH248616   5.017   5.609  12.052 -0.3757 -0.8692 -0.3517
 9042TIP3    H148617   5.073   5.573  12.121  0.1668 -2.4033 -1.5328
 9042TIP3    H248618   5.078   5.648  11.990 -0.8585  0.4628 -0.0172
 9043TIP3   OH248619   0.896   6.309   4.780 -0.2632 -0.3019  0.1973
 9043TIP3    H148620   0.931   6.373   4.842  1.6779  0.7802 -1.8622
 9043TIP3    H248621   0.801   6.309   4.796 -0.1901  2.2176  1.0830
 9044TIP3   OH248622   3.199   5.040  14.954  0.0633 -0.3235 -0.1364
 9044TIP3    H148623   3.199   4.998  14.868  0.2917 -0.6267  0.0089
 9044TIP3    H248624   3.178   4.969  15.015 -0.4477 -0.0342  0.0261
 9045TIP3   OH248625   3.839   4.487   5.855 -0.5636  0.0842  0.6900
 9045TIP3    H148626   3.788   4.445   5.924 -2.5137  0.7195 -0.2918
 9045TIP3    H248627   3.840   4.423   5.784 -0.8561  0.4796  0.3305
 9046TIP3   OH248628   4.901   2.705  10.846 -0.0240  0.2852  0.2064
 9046TIP3    H148629   4.810   2.733  10.837 -1.0954 -2.4904  1.3612
 9046TIP3    H248630   4.933   2.694  10.756 -0.3986  2.3680 -0.2215
 9047TIP3   OH248631   2.064   0.810   2.068 -0.0528 -0.2884 -0.1295
 9047TIP3    H148632   2.097   0.858   1.992 -3.0317  0.4081 -1.1165
 9047TIP3    H248633   2.128   0.828   2.138  0.0549  3.5025 -1.0021
 9048TIP3   OH248634   4.183   0.630   0.718 -0.7313 -0.2112  0.0471
 9048TIP3    H148635   4.170   0.724   0.712  0.9307  0.0248 -0.1470
 9048TIP3    H248636   4.100   0.597   0.753 -0.8333  1.4807  1.5583
 9049TIP3   OH248637   3.429   3.927  11.160  0.0427  0.1003  0.4671
 9049TIP3    H148638   3.493   3.982  11.115 -0.2018  0.3711  0.4536
 9049TIP3    H248639   3.384   3.880  11.090  0.0043  0.1509  0.4574
 9050TIP3   OH248640   4.790   5.983  10.345  0.0973  0.4709  0.1594
 9050TIP3    H148641   4.754   5.900  10.377 -1.9458  1.4523  0.5683
 9050TIP3    H248642   4.862   6.002  10.404  1.3894 -1.5560 -0.6554
 9051TIP3   OH248643   5.913   0.484  10.475 -0.0821  0.3085  0.2927
 9051TIP3    H148644   5.998   0.526  10.461 -0.6752  1.7026  0.6927
 9051TIP3    H248645   5.854   0.528  10.414 -0.3026 -1.4576 -0.8338
 9052TIP3   OH248646   2.155   4.765  15.445 -0.6965 -0.2079 -0.1553
 9052TIP3    H148647   2.161   4.677  15.409 -1.6742  0.3878 -1.8818
 9052TIP3    H248648   2.204   4.820  15.384 -0.6113  0.5479  0.5661
 9053TIP3   OH248649   0.219   5.700  16.067 -0.0659 -0.2378 -0.4614
 9053TIP3    H148650   0.166   5.777  16.084  1.7392  0.7352  1.1408
 9053TIP3    H248651   0.243   5.667  16.153 -1.1462 -2.9178 -1.0766
 9054TIP3   OH248652   6.202   6.569   2.201  0.6816 -0.0953 -0.2865
 9054TIP3    H148653   6.129   6.567   2.139  0.1016 -1.1047  0.3931
 9054TIP3    H248654   6.280   6.574   2.146  0.1338  0.2296 -1.0529
 9055TIP3   OH248655   6.471   4.908  17.187 -0.6340 -0.4091 -1.0525
 9055TIP3    H148656   6.545   4.965  17.166 -0.1315 -1.2725 -1.6922
 9055TIP3    H248657   6.394   4.960  17.164 -0.2144  0.3202 -0.8284
 9056TIP3   OH248658   5.469   3.689  15.081 -0.1044  0.6162  0.1280
 9056TIP3    H148659   5.529   3.645  15.142 -1.5671 -1.1476  0.3859
 9056TIP3    H248660   5.386   3.692  15.127 -1.0086  0.1040 -1.4070
 9057TIP3   OH248661   6.591   1.748   3.692 -0.0850 -0.0527  0.0217
 9057TIP3    H148662   6.653   1.692   3.738 -0.6750 -0.0468  0.8476
 9057TIP3    H248663   6.554   1.692   3.624  1.0059  0.0238 -0.6695
 9058TIP3   OH248664   2.018   3.512   1.968 -1.0281  0.0673 -0.5032
 9058TIP3    H148665   2.063   3.499   2.051  0.8208 -0.4033 -1.5305
 9058TIP3    H248666   2.082   3.558   1.913 -2.5709  1.2948 -1.3644
 9059TIP3   OH248667   5.531   1.631  15.634  0.1006 -0.3283  0.3785
 9059TIP3    H148668   5.524   1.624  15.539 -0.2989  0.0842  0.3763
 9059TIP3    H248669   5.441   1.633  15.665  0.2277 -0.0867  0.7423
 9060TIP3   OH248670   0.848   1.251  16.253  0.6530  0.2154 -0.3060
 9060TIP3    H148671   0.764   1.282  16.286  0.9251  1.1811 -0.4939
 9060TIP3    H248672   0.909   1.263  16.326  0.5634 -0.8469 -0.0385
 9061TIP3   OH248673   6.101   2.759  15.629  0.1447 -0.3992 -0.0310
 9061TIP3    H148674   6.107   2.844  15.587 -1.5203 -1.2587 -2.1595
 9061TIP3    H248675   6.133   2.697  15.564 -2.5281 -1.7808 -0.1556
 9062TIP3   OH248676   4.188   2.192  11.540  1.4828  0.2034  0.0851
 9062TIP3    H148677   4.093   2.194  11.547  1.3196 -0.1399 -1.6065
 9062TIP3    H248678   4.206   2.129  11.470  2.8833  1.2733 -0.5680
 9063TIP3   OH248679   2.558   5.037   2.829 -0.4914 -0.0377  0.6077
 9063TIP3    H148680   2.588   5.112   2.777 -0.8840 -0.1083  0.2738
 9063TIP3    H248681   2.639   4.993   2.854 -0.2463  0.6108  0.9858
 9064TIP3   OH248682   6.047   3.258  14.080 -0.2730 -0.0849 -0.5483
 9064TIP3    H148683   6.096   3.231  14.158 -0.4263 -0.8471 -0.7062
 9064TIP3    H248684   5.958   3.226  14.096 -0.1905 -0.6815 -1.2530
 9065TIP3   OH248685   1.462   6.108   5.745 -0.7606  0.0536 -0.0620
 9065TIP3    H148686   1.440   6.132   5.655 -1.3386 -0.7318 -0.1369
 9065TIP3    H248687   1.511   6.184   5.778  1.5406 -0.5737 -1.7659
 9066TIP3   OH248688   1.225   0.290   0.449  0.3026 -0.2543 -0.0133
 9066TIP3    H148689   1.168   0.224   0.408  1.7331 -2.2882  1.1146
 9066TIP3    H248690   1.167   0.341   0.505 -0.8065 -0.6622 -0.7593
 9067TIP3   OH248691   4.220   3.555  16.612  0.5787  0.0058 -0.1872
 9067TIP3    H148692   4.293   3.493  16.605  0.8108  0.1323  0.9889
 9067TIP3    H248693   4.216   3.577  16.705  1.1217  2.5255 -0.6974
 9068TIP3   OH248694   0.557   4.984   3.036 -0.0404 -0.6659 -1.0271
 9068TIP3    H148695   0.523   4.914   2.981  1.1410 -2.2480  0.1620
 9068TIP3    H248696   0.501   5.059   3.017 -0.9297 -1.7224 -2.8355
 9069TIP3   OH248697   2.325   2.378   2.577 -0.3456 -0.0419 -0.6059
 9069TIP3    H148698   2.272   2.451   2.609  0.0232 -0.0310 -0.0137
 9069TIP3    H248699   2.350   2.330   2.656  0.3038 -0.1980 -0.8993
 9070TIP3   OH248700   1.396   2.169  12.802  0.1120  0.4116 -0.0481
 9070TIP3    H148701   1.388   2.143  12.894 -0.5608  0.5074 -0.0704
 9070TIP3    H248702   1.305   2.170  12.770  0.2862  0.9785 -0.5426
 9071TIP3   OH248703   3.421   6.615   4.894  0.1722 -0.1248  0.2724
 9071TIP3    H148704   3.478   6.639   4.821 -1.5109  0.4153 -0.9139
 9071TIP3    H248705   3.423   6.519   4.894 -0.3449 -0.1565 -0.9472
 9072TIP3   OH248706   0.185   1.063   2.943 -0.5420 -0.5988  0.0986
 9072TIP3    H148707   0.247   0.996   2.916  0.0942 -0.7219  1.7398
 9072TIP3    H248708   0.218   1.144   2.906 -0.6156 -0.9954 -0.8459
 9073TIP3   OH248709   2.556   0.368   3.401 -0.2446  0.4169 -0.7006
 9073TIP3    H148710   2.606   0.445   3.374  1.5749  0.0229  1.2765
 9073TIP3    H248711   2.572   0.303   3.333  1.4002  0.5500 -0.4728
 9074TIP3   OH248712   5.333   4.787  11.416  0.3124  0.7564  0.7360
 9074TIP3    H148713   5.370   4.751  11.336  0.9042 -2.4410  2.2835
 9074TIP3    H248714   5.257   4.837  11.388  0.3042 -0.5348 -1.7883
 9075TIP3   OH248715   1.957   3.617  13.663  0.3937 -0.2174  0.3557
 9075TIP3    H148716   1.894   3.545  13.659 -1.1713  1.1192  0.1638
 9075TIP3    H248717   1.979   3.625  13.756 -0.5139 -0.0416  0.5613
 9076TIP3   OH248718   1.575   0.743   0.125  0.4295 -0.1467 -0.0016
 9076TIP3    H148719   1.635   0.704   0.188 -0.0923 -0.3515  0.3708
 9076TIP3    H248720   1.490   0.741   0.168  0.2873  0.8558 -0.2147
 9077TIP3   OH248721   0.284   6.319   0.883  0.2828 -0.5001  0.5024
 9077TIP3    H148722   0.379   6.326   0.871  1.0144 -2.3663  3.8575
 9077TIP3    H248723   0.254   6.409   0.886  2.2007  0.1876  0.7112
 9078TIP3   OH248724   5.103   4.825  15.590 -0.0223  0.1523  0.3306
 9078TIP3    H148725   5.173   4.784  15.540  1.7569  1.3832  1.6863
 9078TIP3    H248726   5.038   4.851  15.525  1.2272 -0.1547 -1.0878
 9079TIP3   OH248727   0.470   4.233  12.535  0.3055  0.8279  0.3405
 9079TIP3    H148728   0.529   4.306  12.515  0.6712  0.2705 -0.7270
 9079TIP3    H248729   0.412   4.266  12.602  0.8746  1.8972  0.3221
 9080TIP3   OH248730   5.933   5.745  15.833  0.5110 -0.0469  0.2117
 9080TIP3    H148731   5.989   5.691  15.777 -1.0082 -0.5198 -0.9301
 9080TIP3    H248732   5.866   5.685  15.866 -1.8180  1.2142 -1.8930
 9081TIP3   OH248733   0.155   0.754  11.709 -0.1526  0.0693 -0.1398
 9081TIP3    H148734   0.133   0.843  11.736 -0.7081  0.0519 -0.5010
 9081TIP3    H248735   0.107   0.698  11.769 -1.2840  0.0303 -1.0340
 9082TIP3   OH248736   4.605   0.446   5.565  0.0153 -0.4355 -1.0788
 9082TIP3    H148737   4.625   0.432   5.657 -0.1907 -0.7511 -1.0770
 9082TIP3    H248738   4.657   0.522   5.539  0.0967 -0.3665 -0.7109
 9083TIP3   OH248739   4.850   1.510   0.292  0.7235 -0.7092 -0.3720
 9083TIP3    H148740   4.930   1.469   0.323  1.7801  1.5706  0.1140
 9083TIP3    H248741   4.803   1.536   0.371  0.2216 -0.7238 -0.6586
 9084TIP3   OH248742   2.547   1.017   2.582  0.1747 -0.2109 -0.4211
 9084TIP3    H148743   2.459   1.004   2.618 -0.8780  1.3399 -2.2549
 9084TIP3    H248744   2.533   1.064   2.500  2.8124  1.2940 -0.1177
 9085TIP3   OH248745   4.140   5.515   2.617 -0.2362 -0.3926  0.3916
 9085TIP3    H148746   4.224   5.479   2.589 -0.0672  0.1324  0.2189
 9085TIP3    H248747   4.096   5.442   2.662  0.2034 -0.7383  0.2606
 9086TIP3   OH248748   4.718   1.672  12.024 -0.1699 -0.1191 -0.6730
 9086TIP3    H148749   4.726   1.716  12.109  0.4229  1.3650 -1.4684
 9086TIP3    H248750   4.625   1.678  12.003 -0.1179  0.6666 -0.7064
 9087TIP3   OH248751   3.863   2.680   2.650 -0.5725 -0.1110  0.2713
 9087TIP3    H148752   3.866   2.623   2.573 -1.5469 -0.7305  0.6807
 9087TIP3    H248753   3.943   2.658   2.698  0.1104  0.3671 -0.5971
 9088TIP3   OH248754   5.209   1.282  13.163  0.3726 -0.1851  0.2940
 9088TIP3    H148755   5.287   1.334  13.182 -0.4701  0.6611  1.6083
 9088TIP3    H248756   5.186   1.242  13.246 -1.0369  0.2260  0.1274
 9089TIP3   OH248757   2.106   6.346   4.060 -0.0487  0.1555 -0.3931
 9089TIP3    H148758   2.023   6.373   4.020 -0.3938 -0.1222  0.1255
 9089TIP3    H248759   2.120   6.257   4.028  0.1239  0.2589 -0.6009
 9090TIP3   OH248760   2.541   6.389  12.425  0.5412  0.0691 -0.2495
 9090TIP3    H148761   2.457   6.426  12.398  0.7349 -0.3096 -1.4255
 9090TIP3    H248762   2.529   6.294  12.419  0.7778 -0.0178  0.4738
 9091TIP3   OH248763   1.899   2.163  14.901 -0.8058  0.2674  0.1258
 9091TIP3    H148764   1.813   2.149  14.861 -0.4626  1.2574 -0.9945
 9091TIP3    H248765   1.896   2.252  14.935 -1.1707 -0.6329  2.5926
 9092TIP3   OH248766   4.827   6.363   5.432 -0.3613 -0.7262  0.1907
 9092TIP3    H148767   4.771   6.286   5.440 -0.3544 -0.6505  1.0505
 9092TIP3    H248768   4.862   6.377   5.520 -0.4368  0.3110  0.0744
 9093TIP3   OH248769   6.328   4.011   4.443  0.4092 -0.0553  0.4877
 9093TIP3    H148770   6.318   3.946   4.513  0.5804 -0.3156  0.2693
 9093TIP3    H248771   6.372   3.964   4.373  1.9594  0.7036  0.9188
 9094TIP3   OH248772   2.816   5.916   2.588 -0.1653  0.3877  0.2970
 9094TIP3    H148773   2.774   5.940   2.505  0.3561 -1.8242 -0.6964
 9094TIP3    H248774   2.743   5.906   2.649 -0.6219  1.3854 -0.0572
 9095TIP3   OH248775   4.552   1.208  15.132 -0.1104 -0.6467 -0.0639
 9095TIP3    H148776   4.541   1.303  15.132  0.7469 -0.5283 -0.9039
 9095TIP3    H248777   4.514   1.179  15.215  0.2897  0.5096  0.5481
 9096TIP3   OH248778   5.299   4.551   0.551  0.0684  0.1572 -0.3805
 9096TIP3    H148779   5.234   4.617   0.575 -0.0659 -0.0429 -0.1851
 9096TIP3    H248780   5.295   4.487   0.622  0.7954  0.3684 -0.1485
 9097TIP3   OH248781   0.225   3.153   0.182  0.0670 -0.3809  0.2636
 9097TIP3    H148782   0.180   3.068   0.188 -0.6573  0.0650  1.6809
 9097TIP3    H248783   0.315   3.134   0.209  0.2158 -0.9056 -0.5789
 9098TIP3   OH248784   4.495   2.123   1.316  0.1407 -0.6056 -0.4848
 9098TIP3    H148785   4.557   2.195   1.328 -0.6394 -0.0882  0.6824
 9098TIP3    H248786   4.413   2.155   1.355  0.3386 -2.9014  2.1365
 9099TIP3   OH248787   6.046   1.792   3.063 -0.1028 -0.0485 -0.2936
 9099TIP3    H148788   6.083   1.741   3.135  0.4809  0.8931  0.0954
 9099TIP3    H248789   5.962   1.823   3.097  0.3634  0.7525  0.1669
 9100TIP3   OH248790   0.799   2.777   2.140 -0.4074  0.1970  0.5610
 9100TIP3    H148791   0.750   2.826   2.074 -2.4520 -2.4637 -0.0904
 9100TIP3    H248792   0.856   2.719   2.090 -1.3321 -1.2196  1.0664
 9101TIP3   OH248793   2.707   4.689  16.737  0.4478 -0.3578  0.1995
 9101TIP3    H148794   2.614   4.702  16.718  0.9368  0.3483 -1.8805
 9101TIP3    H248795   2.744   4.658  16.655  1.9962 -1.0713  1.1314
 9102TIP3   OH248796   5.470   3.107   2.298 -0.7865  0.0502 -0.4953
 9102TIP3    H148797   5.490   3.015   2.313  0.6673  0.1549 -1.5464
 9102TIP3    H248798   5.423   3.135   2.377  1.6589 -0.7636  1.4017
 9103TIP3   OH248799   6.199   4.939  14.060 -0.2351 -0.6028 -0.0222
 9103TIP3    H148800   6.218   5.030  14.037 -1.1324 -0.7329 -1.4290
 9103TIP3    H248801   6.148   4.944  14.141  1.8554 -0.0250  1.3277
 9104TIP3   OH248802   4.330   2.864   1.194  0.0832 -0.0859 -0.2747
 9104TIP3    H148803   4.364   2.793   1.140 -1.6119 -1.6396  0.6032
 9104TIP3    H248804   4.364   2.847   1.281  0.3542  0.6925 -0.2158
 9105TIP3   OH248805   4.285   0.384  11.493  0.1406  0.6459  0.4539
 9105TIP3    H148806   4.279   0.390  11.398 -0.4343  2.5089  0.5667
 9105TIP3    H248807   4.197   0.362  11.522  0.9571 -3.3319  0.4533
 9106TIP3   OH248808   1.085   4.753   2.218 -0.4030 -0.0930  0.2555
 9106TIP3    H148809   1.085   4.658   2.216 -1.3110 -0.1225  0.9634
 9106TIP3    H248810   1.172   4.778   2.188 -0.6969 -1.0985 -1.5541
 9107TIP3   OH248811   1.578   4.572   6.412 -0.1936 -0.2764  0.2642
 9107TIP3    H148812   1.570   4.605   6.501  0.9216 -0.6388  0.5137
 9107TIP3    H248813   1.644   4.503   6.417  0.5400  0.2872 -0.9789
 9108TIP3   OH248814   4.415   1.693  12.714 -0.0924  0.3647 -0.3301
 9108TIP3    H148815   4.439   1.740  12.794 -1.4197  0.3417  0.1158
 9108TIP3    H248816   4.492   1.641  12.692  1.0061  1.8773 -0.1965
 9109TIP3   OH248817   2.114   4.909  16.624 -0.6916  0.4038  0.2358
 9109TIP3    H148818   2.028   4.883  16.656 -0.0961 -1.4974  0.4179
 9109TIP3    H248819   2.130   4.851  16.550  0.2873  0.9744 -0.0131
 9110TIP3   OH248820   1.349   6.344  11.258 -0.8593  0.1580  0.2922
 9110TIP3    H148821   1.314   6.290  11.329 -1.5303 -0.7618 -0.7052
 9110TIP3    H248822   1.272   6.387  11.220 -0.3570  1.7565  0.9763
 9111TIP3   OH248823   6.158   5.921   4.035  0.0539  0.0177 -0.3776
 9111TIP3    H148824   6.233   5.872   4.068  0.6593  1.5068  0.5860
 9111TIP3    H248825   6.181   6.013   4.052 -2.4134  0.4691  0.8505
 9112TIP3   OH248826   1.524   2.470  14.119  0.2925  0.1682 -0.2646
 9112TIP3    H148827   1.591   2.411  14.154 -1.0908 -1.8839 -0.8677
 9112TIP3    H248828   1.446   2.414  14.110 -0.1901  1.2117 -4.0130
 9113TIP3   OH248829   4.355   5.213   2.858 -0.1934 -0.6867 -0.3129
 9113TIP3    H148830   4.357   5.306   2.880 -1.4417 -0.5781 -0.5793
 9113TIP3    H248831   4.428   5.201   2.797  0.5510 -0.0863  0.4346
 9114TIP3   OH248832   3.632   2.504   6.171 -0.0270  0.2048  0.2298
 9114TIP3    H148833   3.712   2.497   6.224 -0.7241  0.6436  1.3689
 9114TIP3    H248834   3.572   2.556   6.224 -1.4334 -0.9333 -0.1636
 9115TIP3   OH248835   3.935   1.438  11.288 -0.2014  0.0203  0.0338
 9115TIP3    H148836   3.848   1.399  11.300 -0.0272 -0.4037 -0.0505
 9115TIP3    H248837   3.947   1.494  11.364  0.0459 -1.0542  0.8062
 9116TIP3   OH248838   2.581   0.039  14.223  0.1320 -0.1395  0.2133
 9116TIP3    H148839   2.597  -0.054  14.235  0.9242  0.3233  3.5808
 9116TIP3    H248840   2.500   0.056  14.271  1.0935  1.2175  1.4288
 9117TIP3   OH248841   4.382   5.903   6.094 -0.4308 -0.1957 -0.2515
 9117TIP3    H148842   4.394   5.957   6.172  1.3218 -0.3658 -0.3667
 9117TIP3    H248843   4.307   5.847   6.116  1.8973 -2.5472  2.7533
 9118TIP3   OH248844   6.702   5.467  14.950  0.1175 -0.0633  0.3985
 9118TIP3    H148845   6.707   5.498  15.040 -0.9155  1.5271 -0.0456
 9118TIP3    H248846   6.741   5.539  14.898 -0.2225 -0.5096 -0.4969
 9119TIP3   OH248847   1.292   4.039  15.262  0.0724 -0.3533  0.1854
 9119TIP3    H148848   1.198   4.049  15.247 -0.1539  1.0684  2.0848
 9119TIP3    H248849   1.300   3.957  15.311 -0.4693  0.5459  1.8457
 9120TIP3   OH248850   2.547   0.813  13.518  0.2294  0.5216 -0.7809
 9120TIP3    H148851   2.597   0.731  13.520  2.3362  1.7569 -0.1021
 9120TIP3    H248852   2.506   0.813  13.431  0.9877 -0.7764 -1.1713
 9121TIP3   OH248853   1.481   6.374   0.573  0.1177  0.0460  0.0654
 9121TIP3    H148854   1.409   6.340   0.625 -0.9178 -0.9234 -1.8871
 9121TIP3    H248855   1.492   6.310   0.503  1.1721  1.4747 -1.1327
 9122TIP3   OH248856   3.668   4.482   1.260 -0.1024  0.2171  0.3259
 9122TIP3    H148857   3.691   4.574   1.268 -1.5168  0.5777  0.3637
 9122TIP3    H248858   3.622   4.461   1.342  0.2948 -0.5647  0.3665
 9123TIP3   OH248859   2.191   1.911   6.017 -0.4580 -0.3697  0.1518
 9123TIP3    H148860   2.177   1.958   6.099  1.4939  0.4937  0.0298
 9123TIP3    H248861   2.263   1.957   5.975 -1.4747 -0.7160 -2.1229
 9124TIP3   OH248862   2.341   2.090   3.055 -0.0773  0.7323 -0.1654
 9124TIP3    H148863   2.332   1.995   3.057 -1.0460  0.6619 -2.9547
 9124TIP3    H248864   2.262   2.123   3.097  0.0503  0.3068  0.4188
 9125TIP3   OH248865   1.307   5.104  12.064 -0.3870 -0.1705  0.0348
 9125TIP3    H148866   1.272   5.191  12.083 -1.1294 -0.7542  1.4895
 9125TIP3    H248867   1.261   5.045  12.124 -0.3953 -1.6854 -1.3666
 9126TIP3   OH248868   5.887   6.089  15.333 -0.0306  0.0404  0.6052
 9126TIP3    H148869   5.827   6.033  15.384 -1.4579  1.0087  0.0639
 9126TIP3    H248870   5.857   6.178  15.351  2.9813  0.8106  2.4233
 9127TIP3   OH248871   5.251   1.495  11.676 -0.3093 -0.2454  0.7318
 9127TIP3    H148872   5.287   1.559  11.615 -1.8799  1.4611  1.5033
 9127TIP3    H248873   5.169   1.467  11.636  1.2402 -3.4587 -0.6032
 9128TIP3   OH248874   2.269   1.036  15.761 -0.4837 -0.2191 -0.1990
 9128TIP3    H148875   2.227   0.973  15.702 -0.3598  0.6348 -1.2254
 9128TIP3    H248876   2.207   1.109  15.765  1.2988  1.6116 -2.7021
 9129TIP3   OH248877   3.113   1.414  11.449  0.1237 -0.0514  0.0360
 9129TIP3    H148878   3.127   1.393  11.357 -1.2122 -2.3282  0.2723
 9129TIP3    H248879   3.058   1.493  11.447 -0.0895 -0.2048 -1.1281
 9130TIP3   OH248880   2.624   4.330  10.804  0.0340 -0.5121 -0.9488
 9130TIP3    H148881   2.631   4.411  10.753  0.8142 -0.3734 -0.6493
 9130TIP3    H248882   2.537   4.296  10.785 -0.4855  0.6504 -0.7108
 9131TIP3   OH248883   0.774   5.047   1.644 -0.5960  0.1861  0.1897
 9131TIP3    H148884   0.751   5.135   1.612  0.9132  0.6487  0.2814
 9131TIP3    H248885   0.740   5.044   1.733  0.5599  1.2497  0.7043
 9132TIP3   OH248886   2.532   0.444  13.313  0.1665  0.2552 -0.0551
 9132TIP3    H148887   2.614   0.468  13.356 -0.0046  1.2355 -0.2462
 9132TIP3    H248888   2.464   0.491  13.361 -0.4447 -1.4299  0.8240
 9133TIP3   OH248889   0.480   2.126  14.968 -0.0830 -0.1346 -0.1780
 9133TIP3    H148890   0.541   2.199  14.960  0.9860 -1.0640 -0.7554
 9133TIP3    H248891   0.395   2.163  14.941  0.6184  0.6501 -1.4122
 9134TIP3   OH248892   6.298   0.001  12.492 -0.0664  0.6223  0.0038
 9134TIP3    H148893   6.296  -0.089  12.524 -0.4801  0.1009 -1.4150
 9134TIP3    H248894   6.206   0.024  12.478  0.1012  0.6684 -1.1582
 9135TIP3   OH248895   5.948   3.339  13.800  0.5904  0.3915  0.3335
 9135TIP3    H148896   6.008   3.413  13.788  0.0896  0.5856 -1.0772
 9135TIP3    H248897   6.006   3.264  13.814  1.1074  0.9551  1.3159
 9136TIP3   OH248898   3.842   4.033  11.583  0.3627 -0.2579 -0.1474
 9136TIP3    H148899   3.774   4.010  11.520 -0.9454  2.2812  0.2258
 9136TIP3    H248900   3.913   4.070  11.530 -0.6174  1.6121 -0.1974
 9137TIP3   OH248901   4.355   3.077  12.407 -0.1176 -0.5910 -0.0454
 9137TIP3    H148902   4.444   3.042  12.400 -0.1547 -0.7694  0.3287
 9137TIP3    H248903   4.300   3.013  12.362 -0.2113 -1.1318  0.8168
 9138TIP3   OH248904   6.655   5.825  12.198 -0.6474 -0.4868 -0.4476
 9138TIP3    H148905   6.699   5.746  12.229  2.0395  0.0807 -2.4558
 9138TIP3    H248906   6.698   5.896  12.246 -1.2930 -0.0522 -0.4940
 9139TIP3   OH248907   1.386   4.629  11.695 -0.1253 -0.3262  0.1574
 9139TIP3    H148908   1.326   4.558  11.670 -0.9043 -0.0391  1.1390
 9139TIP3    H248909   1.471   4.586  11.705 -0.1458 -0.7517 -1.2205
 9140TIP3   OH248910   3.761   0.881   3.920  0.5801 -0.2480  0.3914
 9140TIP3    H148911   3.806   0.798   3.911  1.2611  0.2278 -0.9090
 9140TIP3    H248912   3.675   0.859   3.957  1.5407 -1.2559  2.1407
 9141TIP3   OH248913   1.665   6.344  12.574  0.3392  0.3319 -0.1207
 9141TIP3    H148914   1.673   6.299  12.659  1.1336  0.7417  0.0270
 9141TIP3    H248915   1.704   6.284  12.511 -1.3936 -0.5377 -0.4115
 9142TIP3   OH248916   3.458   6.211   0.901 -0.0659 -0.4853 -0.0397
 9142TIP3    H148917   3.524   6.145   0.921 -0.3544 -1.2621 -1.5070
 9142TIP3    H248918   3.375   6.167   0.919 -0.2830 -0.7560 -1.5771
 9143TIP3   OH248919   2.193   6.517  17.033  0.0346  0.1895  0.0693
 9143TIP3    H148920   2.247   6.487  16.959  1.6750  2.2769  0.2860
 9143TIP3    H248921   2.240   6.594  17.066 -0.8143 -0.4774  3.1129
 9144TIP3   OH248922   4.125   5.195   2.473 -0.4554  0.1582  0.0173
 9144TIP3    H148923   4.177   5.261   2.519 -0.9826  1.1379 -0.7522
 9144TIP3    H248924   4.130   5.221   2.381 -1.2476 -0.4803 -0.2163
 9145TIP3   OH248925   6.003   2.818  12.949 -0.1810  0.4658 -0.0037
 9145TIP3    H148926   6.032   2.737  12.908  0.1031  0.5631  0.0046
 9145TIP3    H248927   5.960   2.866  12.878  0.7464  0.8535 -0.3224
 9146TIP3   OH248928   3.018   1.023  15.103 -0.0652  0.1573 -0.1268
 9146TIP3    H148929   2.941   1.053  15.056 -0.4750  0.3424  0.6597
 9146TIP3    H248930   3.025   0.930  15.081 -0.8156  0.0176  0.2109
 9147TIP3   OH248931   5.542   6.156  16.298  0.0492  0.7983  0.3657
 9147TIP3    H148932   5.605   6.084  16.303 -0.3717  0.3126 -0.9271
 9147TIP3    H248933   5.594   6.234  16.279  0.3329  0.5231  0.0229
 9148TIP3   OH248934   2.018   6.628  16.570 -0.3423  0.0897 -0.2155
 9148TIP3    H148935   2.038   6.680  16.647 -1.3604 -1.9456  1.5501
 9148TIP3    H248936   2.050   6.540  16.591 -2.8491 -1.1376 -0.9944
 9149TIP3   OH248937   3.360   6.002   4.556 -0.0960 -0.2549  0.3068
 9149TIP3    H148938   3.423   6.072   4.539  0.2619 -0.5147  0.5611
 9149TIP3    H248939   3.303   6.002   4.479  0.7167 -0.5647 -0.3073
 9150TIP3   OH248940   2.468   1.545   1.938 -0.3029 -0.1258  0.3259
 9150TIP3    H148941   2.422   1.603   1.877  0.0814  1.2664  1.3212
 9150TIP3    H248942   2.555   1.584   1.947  0.0550 -1.0171  0.8180
 9151TIP3   OH248943   5.654   6.695  11.463  0.5640  0.2582 -0.2110
 9151TIP3    H148944   5.720   6.738  11.517  2.4801 -0.7442 -1.6534
 9151TIP3    H248945   5.572   6.736  11.489  1.9532  2.9577  0.2792
 9152TIP3   OH248946   2.377   1.916   6.657  0.5687 -0.4880 -0.4042
 9152TIP3    H148947   2.288   1.888   6.678  0.6246 -1.2569 -1.1396
 9152TIP3    H248948   2.427   1.901   6.738  0.1793 -0.6928 -0.1994
 9153TIP3   OH248949   0.646   3.212   3.381  0.3609 -0.0854  0.6301
 9153TIP3    H148950   0.619   3.123   3.404  0.2439  0.7093  4.2514
 9153TIP3    H248951   0.607   3.266   3.449 -0.0689  2.8651 -1.7991
 9154TIP3   OH248952   5.895   2.670   2.341  0.1724  0.0170  0.8698
 9154TIP3    H148953   5.827   2.603   2.339 -0.6608  0.8345  1.1333
 9154TIP3    H248954   5.848   2.751   2.362  1.0523  0.7984 -0.0564
 9155TIP3   OH248955   1.540   1.889  14.534 -0.6948  0.7007 -0.1470
 9155TIP3    H148956   1.630   1.858  14.529 -1.1938 -0.6393 -2.5019
 9155TIP3    H248957   1.542   1.958  14.599  1.4598 -1.1313  1.9066
 9156TIP3   OH248958   5.890   4.160   1.168  0.1462 -0.5263 -0.1563
 9156TIP3    H148959   5.942   4.194   1.095 -0.5557  0.1990 -0.3345
 9156TIP3    H248960   5.832   4.232   1.193 -0.5865 -1.2132  0.2148
 9157TIP3   OH248961   1.248   6.006  16.327  0.0248  0.1839  0.1171
 9157TIP3    H148962   1.207   6.092  16.316 -0.4678 -0.0735 -0.0771
 9157TIP3    H248963   1.239   5.964  16.241 -3.1476 -1.5377  1.1542
 9158TIP3   OH248964   1.697   2.132  13.093 -0.3074  0.2337  0.0797
 9158TIP3    H148965   1.644   2.099  13.165 -1.3591  1.0317 -0.2919
 9158TIP3    H248966   1.713   2.055  13.038 -1.7730  0.0813 -0.1977
 9159TIP3   OH248967   2.576   2.134   0.910 -0.0934 -0.1977 -0.2628
 9159TIP3    H148968   2.570   2.065   0.976  2.3958  0.1970  0.4849
 9159TIP3    H248969   2.573   2.215   0.961 -1.2592  0.2232 -0.9667
 9160TIP3   OH248970   4.873   4.860   4.267 -0.1503  0.1095  0.1050
 9160TIP3    H148971   4.924   4.853   4.348  1.0512  0.5071 -0.5863
 9160TIP3    H248972   4.799   4.802   4.280  0.2044 -0.0928  1.3575
 9161TIP3   OH248973   3.388   3.480   3.518 -0.1009  0.1241  0.3511
 9161TIP3    H148974   3.335   3.558   3.502  1.2906  1.2979  1.2156
 9161TIP3    H248975   3.473   3.501   3.480 -0.3268 -1.9293 -1.4976
 9162TIP3   OH248976   3.221   6.080   0.884 -0.3085  0.7899  0.6055
 9162TIP3    H148977   3.125   6.087   0.881 -0.1957  3.8745  0.8544
 9162TIP3    H248978   3.244   6.036   0.802 -1.8854  2.2109 -0.6992
 9163TIP3   OH248979   5.940   1.322  11.897 -0.6413  0.3500 -0.2340
 9163TIP3    H148980   6.015   1.367  11.858 -0.1445  0.0597  0.3499
 9163TIP3    H248981   5.863   1.368  11.864 -0.1887  0.8653 -0.5813
 9164TIP3   OH248982   1.341   4.082   4.563 -0.1588  0.1187  0.1772
 9164TIP3    H148983   1.307   4.170   4.546  2.2017  0.7662 -1.5706
 9164TIP3    H248984   1.299   4.027   4.497  1.1718  0.6865 -1.1854
 9165TIP3   OH248985   0.957   6.697  16.173  0.1450 -0.9047 -0.0831
 9165TIP3    H148986   0.951   6.757  16.248 -1.1626  0.5696 -1.2845
 9165TIP3    H248987   0.988   6.615  16.210 -0.4862 -0.2323  2.0863
 9166TIP3   OH248988   4.075   0.031   1.187  0.1454 -0.3453  0.6175
 9166TIP3    H148989   4.043  -0.017   1.263 -0.4837 -0.2705  0.4046
 9166TIP3    H248990   4.037  -0.015   1.112 -0.6466  0.6030  0.4160
 9167TIP3   OH248991   6.233   0.790   2.525  0.0699  0.0578  0.2041
 9167TIP3    H148992   6.185   0.710   2.504 -0.3755  0.5765 -0.8515
 9167TIP3    H248993   6.252   0.829   2.440 -0.1630  1.3196  0.7102
 9168TIP3   OH248994   4.350   2.014  17.229  0.2745  0.7242  0.0535
 9168TIP3    H148995   4.258   2.036  17.219  0.1620  0.1034 -0.3562
 9168TIP3    H248996   4.380   1.993  17.140  0.3539 -0.7641  0.4056
 9169TIP3   OH248997   1.085   6.061  15.785 -0.1044  0.7144 -0.0855
 9169TIP3    H148998   1.077   6.147  15.826 -1.5599  0.7765 -0.4581
 9169TIP3    H248999   1.072   6.076  15.692 -1.6864 -0.0540 -0.0176
 9170TIP3   OH249000   0.353   1.777   1.608 -0.0519 -0.1831 -0.6609
 9170TIP3    H149001   0.293   1.750   1.538  1.2400  0.9265 -2.3087
 9170TIP3    H249002   0.298   1.826   1.669 -1.5140 -2.4462 -0.0346
 9171TIP3   OH249003   5.973   1.702   4.620 -0.0216 -0.0711  0.2629
 9171TIP3    H149004   5.995   1.779   4.568 -0.0879  0.1335  0.5374
 9171TIP3    H249005   5.917   1.735   4.690  0.6466 -0.2389  0.8778
 9172TIP3   OH249006   1.297   1.052   3.085  0.3106  0.0660  0.1010
 9172TIP3    H149007   1.268   1.099   3.163  1.1932 -0.6996  0.9193
 9172TIP3    H249008   1.348   1.116   3.035  0.9309  0.1799  0.8671
 9173TIP3   OH249009   3.213   1.930  10.763  0.2637 -0.5417 -0.3406
 9173TIP3    H149010   3.151   1.915  10.835 -0.2083 -0.8839 -0.8068
 9173TIP3    H249011   3.193   1.860  10.700 -0.5317  0.7724 -1.6140
 9174TIP3   OH249012   1.331   4.564  17.361  0.0444 -0.0375  0.3903
 9174TIP3    H149013   1.317   4.472  17.383  1.1756 -0.6487 -1.2163
 9174TIP3    H249014   1.396   4.595  17.425  1.6126 -1.1276 -0.6122
 9175TIP3   OH249015   5.186   0.443  13.547 -0.2840  0.4667 -0.4626
 9175TIP3    H149016   5.119   0.505  13.516 -0.6016 -0.0259 -0.7711
 9175TIP3    H249017   5.141   0.392  13.614 -0.6258 -0.7085 -1.5326
 9176TIP3   OH249018   2.222   3.364   5.143  0.2055  0.0836 -0.0221
 9176TIP3    H149019   2.267   3.359   5.059  0.4397  0.1688  0.0978
 9176TIP3    H249020   2.268   3.303   5.200 -0.0051 -0.0368  0.0216
 9177TIP3   OH249021   2.262   6.723   5.967 -0.4484 -0.4677 -0.3109
 9177TIP3    H149022   2.245   6.733   6.061  1.3932  2.6199 -0.1627
 9177TIP3    H249023   2.357   6.734   5.959 -0.7009  0.5561 -2.6414
 9178TIP3   OH249024   0.087   3.829  15.993  0.1015  0.1762 -0.0846
 9178TIP3    H149025   0.164   3.876  16.024 -0.6139  1.3055  0.0211
 9178TIP3    H249026   0.120   3.743  15.967  1.6336  1.1140 -1.3735
 9179TIP3   OH249027   4.400   6.502  17.195 -0.1835  0.6864  0.2782
 9179TIP3    H149028   4.475   6.560  17.201 -0.6328  1.4244 -0.8891
 9179TIP3    H249029   4.349   6.536  17.121 -0.9612 -0.6055  0.1860
 9180TIP3   OH249030   0.416   1.060  12.686  0.1667  0.0057 -0.3564
 9180TIP3    H149031   0.411   1.023  12.597  0.7999  2.3529 -1.4617
 9180TIP3    H249032   0.509   1.061  12.706  0.1439  0.7865 -0.2705
 9181TIP3   OH249033   4.441   5.870  10.443 -0.2009 -0.1259 -0.4162
 9181TIP3    H149034   4.506   5.804  10.419 -0.2886  0.5606 -2.8318
 9181TIP3    H249035   4.375   5.821  10.493  0.0192 -1.7834 -1.6373
 9182TIP3   OH249036   2.086   3.346   4.687 -0.3479  0.7197  0.2427
 9182TIP3    H149037   2.164   3.350   4.632 -0.5072  1.1577  0.0378
 9182TIP3    H249038   2.077   3.435   4.721  0.5566  0.1280  2.1318
 9183TIP3   OH249039   2.658   2.256  10.601  0.3750 -0.0089  0.0730
 9183TIP3    H149040   2.584   2.310  10.572  0.7476  0.0454 -0.7886
 9183TIP3    H249041   2.719   2.319  10.640  1.4856  0.4638 -2.2563
 9184TIP3   OH249042   4.847   5.674   1.657  0.0159  0.1387  0.0860
 9184TIP3    H149043   4.912   5.604   1.672 -0.0074  0.1699  0.3404
 9184TIP3    H249044   4.777   5.654   1.719 -1.2123 -1.1190 -1.6314
 9185TIP3   OH249045   1.545   1.915  15.095 -0.2991 -0.3587 -0.4452
 9185TIP3    H149046   1.582   1.958  15.018 -0.6943  0.9678  0.0793
 9185TIP3    H249047   1.552   1.981  15.165  0.9376 -1.8442  0.9149
 9186TIP3   OH249048   2.533   2.232  17.004  0.0347 -0.6823  0.6172
 9186TIP3    H149049   2.560   2.176  17.077  1.0819 -0.2395  0.5714
 9186TIP3    H249050   2.608   2.233  16.945 -0.9499 -1.3909 -0.7095
 9187TIP3   OH249051   5.262   3.222   3.677  0.1330  0.2818  0.4106
 9187TIP3    H149052   5.224   3.155   3.733  0.6556  0.9005  1.5408
 9187TIP3    H249053   5.298   3.174   3.603 -0.8087 -0.5293  0.4500
 9188TIP3   OH249054   6.646   1.108   4.159  0.2443  0.5112  0.0032
 9188TIP3    H149055   6.697   1.041   4.113  1.2312  1.7896 -0.8432
 9188TIP3    H249056   6.698   1.129   4.236  0.6676  1.3203 -0.4940
 9189TIP3   OH249057   3.129   1.980  13.115  0.2119  0.2462  0.5724
 9189TIP3    H149058   3.078   2.061  13.122  0.3872  0.7816 -2.6916
 9189TIP3    H249059   3.076   1.923  13.061  1.0511 -1.0124  1.0404
 9190TIP3   OH249060   2.336   4.328  13.669  0.2054  0.4364  0.3393
 9190TIP3    H149061   2.414   4.299  13.620  0.1283  1.3320 -0.3312
 9190TIP3    H249062   2.365   4.329  13.760  0.0837 -2.1792  0.4881
 9191TIP3   OH249063   2.550   2.181   4.767  0.0103 -0.2264 -0.1927
 9191TIP3    H149064   2.602   2.186   4.687  0.5306 -0.7716  0.1053
 9191TIP3    H249065   2.581   2.255   4.820 -0.5274  0.3019 -0.5933
 9192TIP3   OH249066   5.654   6.456  12.501  0.9969  0.2942 -0.1151
 9192TIP3    H149067   5.638   6.405  12.581  1.5329  2.4021  1.4286
 9192TIP3    H249068   5.570   6.500  12.484  0.9859  0.1196 -0.5003
 9193TIP3   OH249069   0.481   6.468  13.369 -0.0599 -0.2427  0.1840
 9193TIP3    H149070   0.422   6.477  13.295  0.2536 -1.4651 -0.2518
 9193TIP3    H249071   0.538   6.544  13.365  0.2185 -0.5044 -1.0923
 9194TIP3   OH249072   5.356   3.316  11.531 -0.0108 -0.1829 -0.3859
 9194TIP3    H149073   5.410   3.345  11.457  1.1530 -0.7595  0.2169
 9194TIP3    H249074   5.365   3.386  11.596 -0.1367 -0.1991 -0.3514
 9195TIP3   OH249075   2.780   4.134  12.384 -0.4751 -0.4497 -0.1994
 9195TIP3    H149076   2.843   4.087  12.439  0.7509  1.7144  0.3597
 9195TIP3    H249077   2.830   4.157  12.306 -0.7053  0.7876 -0.0002
 9196TIP3   OH249078   2.696   1.725  11.230  0.2918 -0.2229  0.5993
 9196TIP3    H149079   2.777   1.773  11.210  0.4453 -0.0375  1.5819
 9196TIP3    H249080   2.725   1.635  11.247  0.4743  0.0684  2.0251
 9197TIP3   OH249081   2.697   1.075  12.687  0.1673  0.9620 -0.2045
 9197TIP3    H149082   2.613   1.089  12.731 -0.1819  1.0063 -0.8740
 9197TIP3    H249083   2.683   1.103  12.597  0.2758 -0.9424 -0.8752
 9198TIP3   OH249084   0.351   6.291   4.480 -0.1348 -0.1486 -0.4748
 9198TIP3    H149085   0.309   6.312   4.396 -1.7724 -1.0312  0.0728
 9198TIP3    H249086   0.300   6.340   4.545 -0.4312 -1.3645  0.2328
 9199TIP3   OH249087   3.894   5.665   4.633 -0.0642 -0.3776 -0.3197
 9199TIP3    H149088   3.878   5.582   4.679  1.5416 -0.1635  0.7025
 9199TIP3    H249089   3.974   5.648   4.582  0.0632  0.4137 -0.3877
 9200TIP3   OH249090   5.015   1.454  13.887  0.0036  0.3484  0.3907
 9200TIP3    H149091   4.959   1.412  13.953  0.3790  0.7641  0.9779
 9200TIP3    H249092   5.099   1.409  13.894  0.0983  0.5118  0.3123
 9201TIP3   OH249093   6.429   4.811   0.624 -0.4487  0.2599  0.2645
 9201TIP3    H149094   6.451   4.878   0.688  0.9188  1.6950 -1.5978
 9201TIP3    H249095   6.334   4.812   0.621 -0.6467 -0.6769  3.0251
 9202TIP3   OH249096   4.223   2.676  16.584  0.1496 -0.1382  0.2538
 9202TIP3    H149097   4.180   2.637  16.661 -2.2478 -0.9861 -1.3983
 9202TIP3    H249098   4.167   2.750  16.561 -0.1979 -0.9543 -1.6756
 9203TIP3   OH249099   6.357   2.988   1.039  0.0071 -0.0605  0.4937
 9203TIP3    H149100   6.301   2.911   1.036 -0.8097  0.5318 -0.1173
 9203TIP3    H249101   6.430   2.967   0.981 -1.6233  0.6303 -2.0109
 9204TIP3   OH249102   3.040   4.206  12.273 -0.3248 -0.2635 -0.4561
 9204TIP3    H149103   3.091   4.126  12.283 -1.5023 -0.7372  4.3573
 9204TIP3    H249104   3.092   4.274  12.316 -1.0693  0.6587 -0.9607
 9205TIP3   OH249105   6.250   3.366   1.545  0.2315  0.4040 -0.0669
 9205TIP3    H149106   6.284   3.440   1.495  1.0939 -0.2620 -0.4879
 9205TIP3    H249107   6.200   3.406   1.616 -0.5383  1.3768 -1.1206
 9206TIP3   OH249108   6.760   1.334  14.444 -0.2064  0.6580 -0.5550
 9206TIP3    H149109   6.769   1.247  14.403  0.8536  0.7279 -0.4966
 9206TIP3    H249110   6.829   1.386  14.404  0.6325  0.8344  1.0414
 9207TIP3   OH249111   6.157   5.672  15.103 -0.0646  0.0100 -0.2960
 9207TIP3    H149112   6.185   5.755  15.140 -0.3073  0.0393 -0.1759
 9207TIP3    H249113   6.154   5.612  15.177  1.0522 -0.3661 -0.5310
 9208TIP3   OH249114   0.885   5.775  10.470 -0.7132 -0.1588 -0.1224
 9208TIP3    H149115   0.914   5.690  10.504  0.5495  1.4230  3.1366
 9208TIP3    H249116   0.798   5.787  10.508 -0.7952  0.0975 -0.3923
 9209TIP3   OH249117   6.579   4.572  12.544 -0.5871  0.1365  0.2318
 9209TIP3    H149118   6.546   4.657  12.512 -2.6731 -1.0127 -0.9042
 9209TIP3    H249119   6.523   4.551  12.619  1.5017  0.8042  2.0976
 9210TIP3   OH249120   3.490   1.058   1.363 -0.3836 -0.2122  0.1432
 9210TIP3    H149121   3.440   1.130   1.402 -1.4195 -1.2923  0.8717
 9210TIP3    H249122   3.535   1.098   1.289  1.4857  1.9235  2.2289
 9211TIP3   OH249123   1.011   4.777   2.761 -0.2203 -0.0850 -0.6773
 9211TIP3    H149124   1.037   4.760   2.670  0.0346 -2.3967 -0.2352
 9211TIP3    H249125   0.915   4.772   2.760 -0.3027  1.1318 -0.9977
 9212TIP3   OH249126   3.194   2.429  12.039 -0.2200  0.5733  0.1013
 9212TIP3    H149127   3.165   2.495  11.976  0.6957  0.7680 -0.1365
 9212TIP3    H249128   3.242   2.365  11.986 -0.4016  0.1437  0.4477
 9213TIP3   OH249129   3.697   4.454   5.241 -0.0616 -0.4334  0.1259
 9213TIP3    H149130   3.638   4.484   5.311 -1.6587 -0.5000 -1.1303
 9213TIP3    H249131   3.644   4.392   5.191  0.9217 -0.1193 -1.3527
 9214TIP3   OH249132   3.556   2.625  10.806  0.3694  0.1602  0.0481
 9214TIP3    H149133   3.549   2.529  10.802  2.0984  0.0211 -0.1473
 9214TIP3    H249134   3.466   2.654  10.823 -0.7824 -1.3066 -2.8299
 9215TIP3   OH249135   5.582   5.000  15.914  0.0666  0.0187  0.5746
 9215TIP3    H149136   5.518   4.935  15.883 -1.8292  2.0069  0.0360
 9215TIP3    H249137   5.641   5.012  15.840 -0.3709 -0.1609  0.1863
 9216TIP3   OH249138   5.805   1.364   1.714  0.4533  0.0633 -0.0921
 9216TIP3    H149139   5.799   1.422   1.639  0.1285  0.4159  0.2045
 9216TIP3    H249140   5.899   1.357   1.731  0.5048  0.3347 -0.2604
 9217TIP3   OH249141   0.547   0.166   1.102 -0.4353 -0.4781 -0.3635
 9217TIP3    H149142   0.472   0.120   1.064  0.4654 -2.9623  0.6804
 9217TIP3    H249143   0.614   0.099   1.112  0.4594  0.7076  2.6550
 9218TIP3   OH249144   1.072   4.612  14.680  0.6737  0.2910 -0.6975
 9218TIP3    H149145   1.129   4.632  14.754 -1.1234 -1.3626  1.2742
 9218TIP3    H249146   0.986   4.595  14.719  0.1792 -3.1767 -2.8092
 9219TIP3   OH249147   0.180   3.844  13.052  0.1866  0.3044  0.0504
 9219TIP3    H149148   0.091   3.877  13.044  0.1873  0.0245 -1.5334
 9219TIP3    H249149   0.234   3.907  13.004  0.2402 -1.6012 -2.6715
 9220TIP3   OH249150   1.508   4.746  14.520 -0.4934  0.3260 -0.1535
 9220TIP3    H149151   1.568   4.770  14.450 -0.0292 -1.4928 -0.4523
 9220TIP3    H249152   1.429   4.797  14.504  0.1987  1.1429 -1.0359
 9221TIP3   OH249153   0.455   0.636   2.013 -0.0561  0.8258 -0.0704
 9221TIP3    H149154   0.447   0.543   1.992  0.3706  0.7564  0.0580
 9221TIP3    H249155   0.373   0.658   2.057 -2.0635  1.5558 -3.8016
 9222TIP3   OH249156   5.766   6.479   1.948  0.0412  0.1563 -0.2144
 9222TIP3    H149157   5.694   6.512   2.002 -0.4834  0.0188 -0.8180
 9222TIP3    H249158   5.726   6.410   1.895  0.5534  0.2869 -0.7760
 9223TIP3   OH249159   0.305   5.504  12.519 -0.4160 -0.1863  0.7149
 9223TIP3    H149160   0.366   5.460  12.578  0.7210  1.1851  0.6258
 9223TIP3    H249161   0.361   5.558  12.463 -1.5124 -0.8505 -1.1250
 9224TIP3   OH249162   1.768   2.931  13.296  0.4235  0.6720 -0.6226
 9224TIP3    H149163   1.678   2.912  13.272  0.3738 -0.3986  0.3163
 9224TIP3    H249164   1.770   3.026  13.308 -0.6204  0.6935 -0.5137
 9225TIP3   OH249165   1.861   1.079  15.237  0.0335 -0.4202  0.2172
 9225TIP3    H149166   1.837   1.088  15.145 -0.1992  0.1089  0.3231
 9225TIP3    H249167   1.939   1.023  15.237  0.8768  0.7256 -0.4120
 9226TIP3   OH249168   3.429   5.069  17.143 -0.0466  0.1638 -0.9021
 9226TIP3    H149169   3.493   5.141  17.148  1.3700 -1.0800 -0.5922
 9226TIP3    H249170   3.397   5.060  17.233  1.1590 -0.7816 -0.5465
 9227TIP3   OH249171   1.230   6.543   5.381  0.5326 -0.1742  0.5679
 9227TIP3    H149172   1.229   6.634   5.353  0.4039 -0.3162  0.1031
 9227TIP3    H249173   1.138   6.522   5.397  0.4586 -0.4989 -0.2442
 9228TIP3   OH249174   1.480   1.348  14.118  0.3211 -0.9623  0.4837
 9228TIP3    H149175   1.573   1.367  14.106  0.2076 -0.9214 -0.3293
 9228TIP3    H249176   1.444   1.426  14.161  0.2870 -0.2091 -0.8833
 9229TIP3   OH249177   1.020   4.694  15.832 -0.0030 -0.3254  0.3501
 9229TIP3    H149178   0.955   4.760  15.854  0.6405  0.2253  0.6692
 9229TIP3    H249179   0.974   4.631  15.779 -0.8079  0.0246  0.6174
 9230TIP3   OH249180   6.578   3.736  16.689  0.1292  0.1008 -0.3014
 9230TIP3    H149181   6.656   3.788  16.710  0.6588 -0.9468  0.3990
 9230TIP3    H249182   6.594   3.651  16.729 -0.1001 -1.0854 -2.6172
 9231TIP3   OH249183   5.902   5.105  15.246  0.2423 -0.4244 -0.1803
 9231TIP3    H149184   5.938   5.039  15.186  0.1560 -0.0781 -0.6219
 9231TIP3    H249185   5.884   5.180  15.190 -1.4832 -0.6871 -0.0332
 9232TIP3   OH249186   5.325   2.995   0.407  0.0255 -0.0936 -0.6068
 9232TIP3    H149187   5.296   3.079   0.443 -0.6163  0.1775 -1.7048
 9232TIP3    H249188   5.245   2.945   0.396  0.5186 -1.3861  1.2623
 9233TIP3   OH249189   0.540   4.713   5.402 -0.0398 -0.3596  0.3242
 9233TIP3    H149190   0.632   4.722   5.379 -0.0095 -0.7282  0.2903
 9233TIP3    H249191   0.496   4.783   5.354  0.1622 -0.4607 -0.0100
 9234TIP3   OH249192   5.447   3.182  16.791 -0.2153 -0.0189  0.1199
 9234TIP3    H149193   5.380   3.206  16.726 -0.7589  0.0390  0.6968
 9234TIP3    H249194   5.515   3.138  16.740 -0.3161  0.6300 -0.5995
 9235TIP3   OH249195   6.416   5.599   1.554  0.3403  0.5421 -0.1373
 9235TIP3    H149196   6.365   5.546   1.493  0.5963  0.9567 -0.7261
 9235TIP3    H249197   6.363   5.678   1.568  1.4827  1.7428 -2.0393
 9236TIP3   OH249198   0.984   4.366  12.644  0.0254  0.1503 -0.0586
 9236TIP3    H149199   1.064   4.313  12.647 -0.6817 -1.0145 -0.9913
 9236TIP3    H249200   0.927   4.321  12.581 -2.0414  0.0027  1.7973
 9237TIP3   OH249201   1.051   1.962  15.540  0.0137  0.2562 -0.0630
 9237TIP3    H149202   0.990   1.916  15.598 -0.9162  0.9406 -0.4522
 9237TIP3    H249203   1.006   1.965  15.456  1.6231 -1.2863 -1.0278
 9238TIP3   OH249204   5.359   0.719   4.415  0.5277  0.3360 -0.2578
 9238TIP3    H149205   5.400   0.658   4.476  1.7482  0.5327 -0.8440
 9238TIP3    H249206   5.322   0.787   4.471  0.4195 -0.1901  0.3262
 9239TIP3   OH249207   3.601   1.400   2.010 -0.3195 -0.2961 -0.3923
 9239TIP3    H149208   3.542   1.351   2.067 -1.3823 -0.4769 -1.5914
 9239TIP3    H249209   3.637   1.469   2.065 -1.5173 -0.3049  0.4349
 9240TIP3   OH249210   6.386   2.325  10.890 -0.3594  0.1039  0.0215
 9240TIP3    H149211   6.434   2.333  10.972 -3.6996  0.0711  2.1600
 9240TIP3    H249212   6.357   2.414  10.870 -0.1419  0.0056 -0.7865
 9241TIP3   OH249213   1.190   6.663  10.629 -0.5988 -0.0646 -0.0027
 9241TIP3    H149214   1.130   6.600  10.588  0.5276 -2.6394  2.0237
 9241TIP3    H249215   1.242   6.697  10.557 -2.0255 -0.5850 -1.3312
 9242TIP3   OH249216   2.511   5.612   0.487  0.2748  0.4524  0.6086
 9242TIP3    H149217   2.458   5.636   0.563 -0.6894  1.8379 -0.4527
 9242TIP3    H249218   2.601   5.635   0.512  0.5031 -2.0115  2.4675
 9243TIP3   OH249219   5.397   4.286  11.475 -0.1362  0.0931  0.5456
 9243TIP3    H149220   5.414   4.274  11.381  0.8569  0.6280  0.6422
 9243TIP3    H249221   5.338   4.362  11.478  0.5612  0.6507  0.3914
 9244TIP3   OH249222   3.022   1.904   2.372 -0.3750  0.4037  0.0411
 9244TIP3    H149223   3.031   1.906   2.468  0.6936  0.7504 -0.0615
 9244TIP3    H249224   2.928   1.891   2.358 -0.5144  0.1124  1.1382
 9245TIP3   OH249225   6.279   0.669  10.962  0.2382  0.2224 -0.3072
 9245TIP3    H149226   6.316   0.707  11.042 -1.7680  1.4525  0.1049
 9245TIP3    H249227   6.258   0.745  10.907 -0.8376 -0.4656 -0.8846
 9246TIP3   OH249228   1.564   0.974  11.760 -0.3225 -0.0936  0.4058
 9246TIP3    H149229   1.628   1.008  11.822  1.4878 -1.7184 -0.4485
 9246TIP3    H249230   1.616   0.924  11.697 -2.2538  0.0878 -1.4559
 9247TIP3   OH249231   0.934   4.159  14.881 -0.2515  0.1574  0.1043
 9247TIP3    H149232   0.952   4.245  14.844  1.8637 -0.0169  0.5766
 9247TIP3    H249233   1.005   4.104  14.848 -0.2757 -0.8447  1.6125
 9248TIP3   OH249234   4.019   3.678   5.299  0.7154 -0.8961  0.1064
 9248TIP3    H149235   3.937   3.728   5.300  1.2874  0.0940 -1.0733
 9248TIP3    H249236   3.995   3.594   5.260  0.1607 -0.8380  0.2988
 9249TIP3   OH249237   0.752   5.985   2.551  0.3499  0.3648  0.1660
 9249TIP3    H149238   0.827   6.038   2.578  0.0139  1.5626 -1.1733
 9249TIP3    H249239   0.782   5.941   2.472  0.2137 -0.5605  0.6096
 9250TIP3   OH249240   3.746   4.517  14.753  0.0918 -0.0268  0.3191
 9250TIP3    H149241   3.704   4.431  14.756 -0.7750  0.3935  2.3307
 9250TIP3    H249242   3.837   4.500  14.778  0.0590 -0.4252  0.1779
 9251TIP3   OH249243   1.782   1.680  15.774  0.3655  0.4615 -0.2042
 9251TIP3    H149244   1.801   1.702  15.683  1.2359  1.2485  0.1388
 9251TIP3    H249245   1.759   1.764  15.814  0.8461  0.2796  0.4827
 9252TIP3   OH249246   1.663   5.149   3.900  0.7289 -0.2031  0.6468
 9252TIP3    H149247   1.756   5.155   3.880  0.7535  0.7351  1.0283
 9252TIP3    H249248   1.658   5.147   3.995  0.3736 -0.6841  0.6264
 9253TIP3   OH249249   1.350   4.304   2.797  0.0012 -0.0930  0.3927
 9253TIP3    H149250   1.266   4.347   2.811 -0.1946 -0.4717  0.4054
 9253TIP3    H249251   1.351   4.231   2.859  0.5541  0.2016  0.7439
 9254TIP3   OH249252   0.397   6.591  10.765  0.2784 -0.4428 -0.1790
 9254TIP3    H149253   0.451   6.630  10.697  0.3430 -1.6625 -0.8637
 9254TIP3    H249254   0.445   6.512  10.791  0.6893  0.4343  1.9158
 9255TIP3   OH249255   2.068   1.851  14.383 -0.1545  0.0548 -0.1975
 9255TIP3    H149256   2.057   1.785  14.315 -2.3050  0.3174 -0.1864
 9255TIP3    H249257   1.990   1.842  14.438 -0.0450  1.9602  0.3638
 9256TIP3   OH249258   3.334   5.027   4.841  0.1505  0.0305 -0.2778
 9256TIP3    H149259   3.355   4.995   4.928  1.5869  0.0401 -0.5954
 9256TIP3    H249260   3.284   5.107   4.857 -1.9094 -1.3223  0.5054
 9257TIP3   OH249261   3.395   5.435  13.037 -0.5675 -0.3318  0.6958
 9257TIP3    H149262   3.316   5.387  13.061 -1.3692  0.2078 -0.7016
 9257TIP3    H249263   3.364   5.524  13.019  0.3611 -0.1059  0.1466
 9258TIP3   OH249264   3.299   1.287  11.926 -0.8667 -0.1323  0.4717
 9258TIP3    H149265   3.388   1.252  11.923 -1.0200 -0.6010  1.0794
 9258TIP3    H249266   3.292   1.341  11.848  0.5079  1.2607  1.2495
 9259TIP3   OH249267   2.801   0.989  14.055  0.8423 -0.3995  0.1350
 9259TIP3    H149268   2.723   0.949  14.015 -0.2276 -0.2491  1.9570
 9259TIP3    H249269   2.818   1.066  14.000 -0.9235  0.1298  0.2511
 9260TIP3   OH249270   2.142   4.440   5.794  0.2491 -0.9783 -0.3954
 9260TIP3    H149271   2.110   4.454   5.705  0.4642 -1.0929 -0.4923
 9260TIP3    H249272   2.237   4.433   5.784  0.3160 -0.5272 -0.0979
 9261TIP3   OH249273   5.344   4.047  15.266  0.0149 -0.1997  0.3223
 9261TIP3    H149274   5.269   4.019  15.319 -0.4180  2.4021  1.2143
 9261TIP3    H249275   5.414   4.063  15.329  0.6887 -0.6145 -0.2975
 9262TIP3   OH249276   3.261   4.028   0.897 -0.9360  0.4201  0.5334
 9262TIP3    H149277   3.252   3.955   0.836  0.7361  0.4170  0.2234
 9262TIP3    H249278   3.229   4.104   0.848 -2.4369 -0.0328  0.7639
 9263TIP3   OH249279   3.603   2.685  14.847 -0.6957  0.4167 -0.1516
 9263TIP3    H149280   3.674   2.745  14.821 -0.2012 -0.1189 -0.0574
 9263TIP3    H249281   3.541   2.688  14.775 -0.4733  0.7291 -0.3330
 9264TIP3   OH249282   6.333   1.681  17.196  0.0671 -0.3183 -0.3872
 9264TIP3    H149283   6.401   1.614  17.193  0.8378  0.4532 -0.3203
 9264TIP3    H249284   6.301   1.686  17.106  0.4824 -0.2905 -0.5346
 9265TIP3   OH249285   2.764   3.991  15.904  0.0208 -0.3428  0.2052
 9265TIP3    H149286   2.807   3.964  15.823  1.6289  1.2953  0.4511
 9265TIP3    H249287   2.836   4.014  15.962 -1.1720  1.4341  1.0455
 9266TIP3   OH249288   3.593   1.078  14.409  0.1509 -0.4384 -0.0313
 9266TIP3    H149289   3.677   1.055  14.449 -0.0685 -0.9191  0.1548
 9266TIP3    H249290   3.616   1.134  14.335  0.4821  2.3635  2.0126
 9267TIP3   OH249291   4.789   0.816  12.377 -0.2718 -0.4418  0.6566
 9267TIP3    H149292   4.864   0.870  12.404 -0.0965 -0.8412  0.9816
 9267TIP3    H249293   4.826   0.755  12.313  0.1042 -1.8877  2.2025
 9268TIP3   OH249294   6.530   2.762  14.068 -0.2467  0.6066 -0.4838
 9268TIP3    H149295   6.464   2.820  14.108  1.1475  1.6205  0.4374
 9268TIP3    H249296   6.576   2.818  14.005  0.5456  0.2681 -0.2190
 9269TIP3   OH249297   4.846   1.529   5.057  0.1231  0.4876 -0.2476
 9269TIP3    H149298   4.839   1.550   4.964 -2.3797  1.5727  0.0978
 9269TIP3    H249299   4.932   1.561   5.083  0.3775  1.2713 -1.9247
 9270TIP3   OH249300   1.603   2.017  12.277 -0.0866 -0.2787 -0.2554
 9270TIP3    H149301   1.526   2.066  12.306  0.4138  1.1430 -1.2291
 9270TIP3    H249302   1.677   2.065  12.313  0.3989 -1.0059 -0.2599
 9271TIP3   OH249303   5.968   3.512   0.901 -0.3054 -0.7273  0.3049
 9271TIP3    H149304   6.064   3.515   0.901 -0.3308  0.5520  0.5289
 9271TIP3    H249305   5.943   3.561   0.822 -0.7966  0.8971  1.4281
 9272TIP3   OH249306   5.949   4.799   3.873  0.2630 -0.6574  0.3311
 9272TIP3    H149307   6.035   4.764   3.898 -0.1468 -0.7545  1.6747
 9272TIP3    H249308   5.919   4.847   3.950 -0.2003  0.7492 -0.6759
 9273TIP3   OH249309   5.526   5.520   4.883 -0.3895 -0.4683  0.1725
 9273TIP3    H149310   5.594   5.515   4.816  0.2374  0.1543  0.7396
 9273TIP3    H249311   5.465   5.450   4.861  1.8653 -2.9146  1.2170
 9274TIP3   OH249312   4.298   0.547  12.900  0.1395 -0.0067  0.1495
 9274TIP3    H149313   4.230   0.569  12.836  0.0121  1.1685  0.6702
 9274TIP3    H249314   4.369   0.511  12.846  0.1000  1.1133 -0.6963
 9275TIP3   OH249315   4.205   2.928  15.944 -0.0802  0.0718 -0.0476
 9275TIP3    H149316   4.225   2.838  15.969  1.6154  0.2239 -0.6912
 9275TIP3    H249317   4.177   2.970  16.025 -0.3097 -0.8849  0.3767
 9276TIP3   OH249318   0.107   4.966  16.161 -0.5278  0.0037 -0.5704
 9276TIP3    H149319   0.139   4.878  16.139  1.2355  0.4862 -0.1329
 9276TIP3    H249320   0.075   4.959  16.250  0.0903 -0.0955 -0.3506
 9277TIP3   OH249321   5.930   5.047  15.976  0.4510 -0.0368  0.2052
 9277TIP3    H149322   5.888   5.064  15.892 -0.6383  0.4003  0.8052
 9277TIP3    H249323   6.024   5.056  15.959  0.4029 -1.9647 -1.3891
 9278TIP3   OH249324   5.172   0.285  15.606  0.3202  0.0146 -0.0897
 9278TIP3    H149325   5.077   0.296  15.605 -0.0195 -2.4016 -0.9288
 9278TIP3    H249326   5.191   0.243  15.689  0.8284  1.3447  0.5030
 9279TIP3   OH249327   5.992   1.810   1.205  0.4686  0.4830  0.1749
 9279TIP3    H149328   6.047   1.793   1.128  0.3596  0.6124  0.0666
 9279TIP3    H249329   5.919   1.862   1.170  0.3364  0.4051  0.3375
 9280TIP3   OH249330   2.511   3.684  16.363  0.1882 -0.4407  0.6013
 9280TIP3    H149331   2.493   3.644  16.278  3.4042  2.7822 -1.9189
 9280TIP3    H249332   2.598   3.651  16.386  0.8372  1.3365  0.8314
 9281TIP3   OH249333   4.195   3.169  13.601  0.0459 -0.0902 -0.4804
 9281TIP3    H149334   4.247   3.135  13.529 -0.0913  0.3994 -0.8159
 9281TIP3    H249335   4.257   3.217  13.655 -0.1526  1.0355 -1.2211
 9282TIP3   OH249336   1.512   1.801   2.685 -0.3293  0.1866 -0.0810
 9282TIP3    H149337   1.497   1.799   2.780  3.1222 -1.9661  0.6164
 9282TIP3    H249338   1.515   1.709   2.659 -1.1250  0.7339 -2.3251
 9283TIP3   OH249339   1.823   0.576  16.037 -0.1153  0.0536  0.0425
 9283TIP3    H149340   1.820   0.668  16.012  0.0109 -0.0535 -0.3864
 9283TIP3    H249341   1.902   0.568  16.091  0.4266  0.0097 -0.7339
 9284TIP3   OH249342   4.699   4.659   3.368  0.4651 -0.1628  0.3841
 9284TIP3    H149343   4.696   4.742   3.319  0.3102  1.3652  2.8401
 9284TIP3    H249344   4.626   4.608   3.333 -1.0137  1.7676  0.4808
 9285TIP3   OH249345   3.807   1.094  11.137  0.2291  0.3801 -0.0342
 9285TIP3    H149346   3.900   1.113  11.152 -0.1380  1.6953  0.6994
 9285TIP3    H249347   3.761   1.169  11.174 -1.2893 -1.4834  2.1529
 9286TIP3   OH249348   2.528   6.723   3.591 -0.1633 -0.7131 -0.4731
 9286TIP3    H149349   2.557   6.645   3.543  1.3392 -0.7266  0.4029
 9286TIP3    H249350   2.565   6.713   3.678  0.4669  1.2030 -0.4771
 9287TIP3   OH249351   0.258   3.664   2.156  0.2705  0.1506 -0.0783
 9287TIP3    H149352   0.203   3.693   2.083 -1.3172  0.0657  1.0363
 9287TIP3    H249353   0.196   3.640   2.225  1.6495 -1.5203  0.6740
 9288TIP3   OH249354   1.090   2.165   3.953  0.0502  0.5426 -0.0096
 9288TIP3    H149355   1.179   2.136   3.932 -0.1574 -0.2754  0.2197
 9288TIP3    H249356   1.078   2.140   4.045 -1.0083 -0.8794 -0.5096
 9289TIP3   OH249357   2.984   1.192   5.786 -0.0820 -0.5308  0.3765
 9289TIP3    H149358   3.008   1.279   5.816 -0.6531 -0.6235  1.1206
 9289TIP3    H249359   2.997   1.195   5.691 -1.1424  0.7139  0.2486
 9290TIP3   OH249360   2.095   0.579   1.295  0.6614  0.0126  0.5423
 9290TIP3    H149361   2.113   0.673   1.295  1.1575 -0.0836 -0.0141
 9290TIP3    H249362   2.055   0.562   1.210 -0.9307 -0.0060  1.2483
 9291TIP3   OH249363   6.727   4.982   5.019  0.1205 -1.1696  0.5611
 9291TIP3    H149364   6.735   4.887   5.032 -1.7002 -1.5714 -0.7583
 9291TIP3    H249365   6.804   5.006   4.967 -0.1638 -2.2295 -0.3864
 9292TIP3   OH249366   5.580   3.224  13.258  0.4911 -0.5232 -0.1952
 9292TIP3    H149367   5.571   3.173  13.338 -0.5393 -0.1438 -0.0598
 9292TIP3    H249368   5.658   3.277  13.272  0.4258 -0.5955  0.4808
 9293TIP3   OH249369   0.680   0.994  16.422  0.0671  0.2340 -0.5429
 9293TIP3    H149370   0.740   1.063  16.453  0.3613 -0.2062 -0.1127
 9293TIP3    H249371   0.701   0.984  16.329  1.0485 -0.3019 -0.2694
 9294TIP3   OH249372   6.497   4.777  11.416 -0.3032  0.1369  0.5437
 9294TIP3    H149373   6.447   4.858  11.406 -2.0812 -0.4481  3.4229
 9294TIP3    H249374   6.450   4.713  11.363 -1.3784  0.0846  1.5312
 9295TIP3   OH249375   3.954   3.651   3.746  0.2967 -0.4874 -0.5580
 9295TIP3    H149376   3.870   3.630   3.704 -1.7475 -1.0746  3.3490
 9295TIP3    H249377   3.992   3.566   3.766  1.0705 -0.2279 -0.9005
 9296TIP3   OH249378   2.351   1.714   1.718 -0.3407  0.0728 -0.0226
 9296TIP3    H149379   2.319   1.713   1.628 -1.4059  0.1771  0.3279
 9296TIP3    H249380   2.272   1.696   1.771  0.4124 -0.7861  0.8393
 9297TIP3   OH249381   3.394   5.851  13.252 -0.6474 -0.4440 -0.1143
 9297TIP3    H149382   3.334   5.779  13.235  0.6156 -1.8025  0.8986
 9297TIP3    H249383   3.451   5.855  13.175  0.2575 -1.5830  0.4700
 9298TIP3   OH249384   3.352   6.443   3.260  0.4038  0.3485  0.6060
 9298TIP3    H149385   3.417   6.464   3.327  2.5966  2.1817 -1.8684
 9298TIP3    H249386   3.353   6.519   3.202 -1.2586 -1.1970 -1.5870
 9299TIP3   OH249387   5.715   4.545   1.092 -0.6714  0.0617  0.0518
 9299TIP3    H149388   5.682   4.626   1.055  0.1172  0.0018 -0.8345
 9299TIP3    H249389   5.675   4.476   1.039  0.7522 -0.0122 -0.9763
 9300TIP3   OH249390   1.574   4.745  10.594 -0.0640 -0.0246 -0.2082
 9300TIP3    H149391   1.502   4.802  10.567 -1.1269  0.2174  2.6984
 9300TIP3    H249392   1.531   4.668  10.631  1.1994 -0.3748  0.6047
 9301TIP3   OH249393   6.190   0.360   5.378 -0.0632  0.2913  0.4066
 9301TIP3    H149394   6.167   0.273   5.412 -0.0997 -0.0691 -0.5072
 9301TIP3    H249395   6.278   0.350   5.343  1.4084  1.5244  3.3464
 9302TIP3   OH249396   0.370   4.719   0.559 -0.3486  0.2722 -0.2918
 9302TIP3    H149397   0.463   4.741   0.546 -0.0829 -0.3914  0.4232
 9302TIP3    H249398   0.338   4.701   0.471  0.3151  0.0671 -0.5006
 9303TIP3   OH249399   4.556   6.195  13.484  0.1795 -0.4912  0.5154
 9303TIP3    H149400   4.626   6.199  13.419  0.5159 -2.7254  0.6613
 9303TIP3    H249401   4.476   6.211  13.434  0.6177 -0.0400 -0.0503
 9304TIP3   OH249402   2.084   4.341   2.156 -0.0410 -0.2169 -0.1211
 9304TIP3    H149403   2.014   4.405   2.147 -0.0949 -0.5276 -3.1438
 9304TIP3    H249404   2.066   4.277   2.087  1.5845 -1.9603  0.9672
 9305TIP3   OH249405   0.685   3.563  11.448  0.1795 -0.7380  0.3826
 9305TIP3    H149406   0.741   3.638  11.467 -0.5147 -0.3639  0.9953
 9305TIP3    H249407   0.742   3.487  11.460  1.1088 -0.3008 -1.0548
 9306TIP3   OH249408   2.842   4.596   1.719 -0.1577  0.0165  0.3463
 9306TIP3    H149409   2.907   4.638   1.776 -2.7738  0.2349  3.4791
 9306TIP3    H249410   2.800   4.669   1.673  1.9597 -0.1608 -2.1097
 9307TIP3   OH249411   5.557   2.390   4.148  0.2662 -0.1865 -0.6228
 9307TIP3    H149412   5.481   2.443   4.122  0.9095  0.0246 -2.1997
 9307TIP3    H249413   5.632   2.442   4.119  0.9353 -1.6016 -1.4959
 9308TIP3   OH249414   4.395   1.386   3.503 -0.0702  0.2684 -0.0151
 9308TIP3    H149415   4.345   1.462   3.474  1.4116  1.4752  0.4425
 9308TIP3    H249416   4.332   1.314   3.505 -1.9103  1.8356  1.0669
 9309TIP3   OH249417   6.568   5.254  16.332  0.1237 -0.0250  0.0691
 9309TIP3    H149418   6.558   5.288  16.421  1.5229  1.4389 -0.2869
 9309TIP3    H249419   6.662   5.261  16.314 -0.0085 -1.0872 -1.2331
 9310TIP3   OH249420   5.397   0.219   3.781 -0.0361  0.0173  0.5159
 9310TIP3    H149421   5.355   0.203   3.696 -0.4864  0.7584  0.5916
 9310TIP3    H249422   5.340   0.282   3.824  1.1440  1.0395  0.6242
 9311TIP3   OH249423   4.225   0.142  16.752 -0.2732 -0.0247  0.2540
 9311TIP3    H149424   4.274   0.192  16.817  0.5257 -0.7018  0.1954
 9311TIP3    H249425   4.160   0.203  16.717  0.4329  0.8431  0.4486
 9312TIP3   OH249426   1.439   3.289   3.947 -0.9903  0.0002  0.1593
 9312TIP3    H149427   1.455   3.378   3.981 -0.5961  0.1600 -0.4366
 9312TIP3    H249428   1.344   3.280   3.950 -1.0159  0.3294  0.5063
 9313TIP3   OH249429   4.245   5.667   2.983 -0.3622  0.1313 -0.1178
 9313TIP3    H149430   4.175   5.649   3.046  0.4493  2.9683  1.7820
 9313TIP3    H249431   4.200   5.694   2.903 -1.4371  0.4739  0.5863
 9314TIP3   OH249432   4.457   6.384  12.618 -0.3485  0.1326 -0.0541
 9314TIP3    H149433   4.464   6.476  12.595 -1.7912 -0.1047 -1.7080
 9314TIP3    H249434   4.526   6.369  12.682  0.5073  2.1419 -0.4463
 9315TIP3   OH249435   4.533   6.215  10.894 -0.1204 -0.3614  0.3294
 9315TIP3    H149436   4.474   6.290  10.901  0.2109  0.0834 -1.2178
 9315TIP3    H249437   4.480   6.146  10.855  0.1447 -0.2127 -0.3138
 9316TIP3   OH249438   0.654   1.431   0.946 -0.2627 -0.7530  0.7014
 9316TIP3    H149439   0.702   1.355   0.913  0.6836  0.3128 -0.4394
 9316TIP3    H249440   0.649   1.417   1.040  0.9304 -1.6560  0.6512
 9317TIP3   OH249441   4.564   2.152   3.946 -0.0761 -0.4840  0.3447
 9317TIP3    H149442   4.652   2.187   3.934  1.9680 -3.6645  3.8908
 9317TIP3    H249443   4.543   2.171   4.038 -3.1905  0.1684 -0.3711
 9318TIP3   OH249444   2.389   2.501   2.872 -0.4495  0.3344 -0.8488
 9318TIP3    H149445   2.300   2.516   2.839 -1.3552  0.9611  1.6665
 9318TIP3    H249446   2.401   2.567   2.940  2.7289  1.5374 -2.3951
 9319TIP3   OH249447   3.868   0.803   2.349  0.0816 -0.2164 -0.1595
 9319TIP3    H149448   3.882   0.823   2.442  2.1145  0.7188 -0.6018
 9319TIP3    H249449   3.798   0.738   2.348  0.0625 -0.2880  2.0342
 9320TIP3   OH249450   3.281   0.661  13.939  0.1778 -0.0624 -0.2853
 9320TIP3    H149451   3.340   0.731  13.968  0.5360 -0.8470  0.9272
 9320TIP3    H249452   3.196   0.704  13.932  0.3524  0.4722  0.6336
 9321TIP3   OH249453   4.013   6.638   6.169 -0.2936  0.4550 -0.3229
 9321TIP3    H149454   3.928   6.660   6.131 -0.6801  0.5994  0.6003
 9321TIP3    H249455   4.040   6.558   6.124 -1.0673  0.2344 -0.3962
 9322TIP3   OH249456   1.758   6.795  14.044  0.3874  0.1544  0.0732
 9322TIP3    H149457   1.835   6.738  14.040 -0.1145 -0.5538  0.3514
 9322TIP3    H249458   1.765   6.840  14.128 -0.1976 -0.9267  0.7229
 9323TIP3   OH249459   1.681   2.893   5.133  0.4000 -0.1145 -0.4504
 9323TIP3    H149460   1.599   2.901   5.181  0.3851  0.7815 -0.5982
 9323TIP3    H249461   1.699   2.799   5.131  0.9124 -0.1555  2.1577
 9324TIP3   OH249462   5.925   5.886   2.646 -0.4327  0.4278 -0.4974
 9324TIP3    H149463   5.888   5.936   2.573 -0.0157 -0.0877 -1.0757
 9324TIP3    H249464   6.016   5.916   2.651 -0.2016 -0.2139 -0.7987
 9325TIP3   OH249465   1.209   3.089  11.995  0.0446 -0.1121 -0.2358
 9325TIP3    H149466   1.289   3.115  11.950  1.5795 -0.4749  2.1020
 9325TIP3    H249467   1.180   3.168  12.041 -0.3663 -0.2425 -0.2646
 9326TIP3   OH249468   4.317   5.672   5.852  0.4260  0.4729 -0.2390
 9326TIP3    H149469   4.393   5.630   5.892 -0.4286  0.5773  1.6119
 9326TIP3    H249470   4.296   5.745   5.911 -0.9676  0.5679 -0.8041
 9327TIP3   OH249471   5.097   6.123  16.928 -0.5619 -0.2325 -0.1405
 9327TIP3    H149472   5.026   6.158  16.874  0.1264 -0.2102 -1.0464
 9327TIP3    H249473   5.081   6.029  16.931 -0.4566 -0.2706 -0.6233
 9328TIP3   OH249474   0.300   0.157   6.103 -0.0885 -0.0491  0.4901
 9328TIP3    H149475   0.222   0.202   6.074  0.3096  0.1703 -0.2567
 9328TIP3    H249476   0.330   0.206   6.179  0.9831  1.6871 -0.9745
 9329TIP3   OH249477   6.470   6.046  13.419  0.3224 -0.1609 -0.4010
 9329TIP3    H149478   6.388   6.081  13.455  0.4300  0.0644 -0.3685
 9329TIP3    H249479   6.446   6.010  13.334  0.1434 -0.3194 -0.2830
 9330TIP3   OH249480   5.305   2.362  16.407 -0.2791 -0.3131 -0.1815
 9330TIP3    H149481   5.299   2.339  16.314  4.4833 -0.0078 -0.8090
 9330TIP3    H249482   5.321   2.278  16.451 -1.3734 -0.3155  0.2331
 9331TIP3   OH249483   2.000   3.760  12.680 -0.0679  0.8796  0.2681
 9331TIP3    H149484   1.938   3.688  12.687 -0.1495  0.8866 -0.3637
 9331TIP3    H249485   1.970   3.811  12.605  2.2934 -0.6791 -1.8614
 9332TIP3   OH249486   5.288   0.192   6.409 -0.0427  0.1484 -0.2202
 9332TIP3    H149487   5.193   0.191   6.414  0.0057  0.5989  2.6178
 9332TIP3    H249488   5.317   0.126   6.472  1.5694 -0.6736 -1.7090
 9333TIP3   OH249489   5.653   3.660  13.663  0.0330  0.0592 -0.0886
 9333TIP3    H149490   5.597   3.587  13.688 -0.7169  0.7333  0.2464
 9333TIP3    H249491   5.669   3.707  13.746  1.8901 -0.6385  0.0133
 9334TIP3   OH249492   1.128   3.728   5.706  0.2629  0.5008  0.6635
 9334TIP3    H149493   1.213   3.713   5.666 -0.4117 -4.1547  0.3110
 9334TIP3    H249494   1.079   3.778   5.642  2.0251  1.2947 -0.1230
 9335TIP3   OH249495   3.124   6.438   5.533 -0.2319  0.4032  0.2913
 9335TIP3    H149496   3.162   6.424   5.446 -0.6033  0.6054  0.0950
 9335TIP3    H249497   3.199   6.438   5.592  0.1108  1.1959 -0.1378
 9336TIP3   OH249498   1.755   1.449  15.970  0.4233  0.6583  0.5296
 9336TIP3    H149499   1.789   1.537  15.953  1.9460 -0.0652 -0.3135
 9336TIP3    H249500   1.794   1.395  15.902  1.9480 -1.2417  2.7813
 9337TIP3   OH249501   1.072   6.549  14.544 -0.3656  0.4776  0.0443
 9337TIP3    H149502   1.102   6.499  14.620  0.9635  0.1526 -0.6592
 9337TIP3    H249503   1.049   6.635  14.579 -2.2111 -0.4366  1.1968
 9338TIP3   OH249504   6.320   0.923  15.183  0.1820 -0.2514  0.8110
 9338TIP3    H149505   6.346   0.842  15.138 -3.3537 -0.8151 -0.5037
 9338TIP3    H249506   6.261   0.894  15.252  0.7253  1.0876  1.8713
 9339TIP3   OH249507   5.107   6.091   3.134 -0.1957  0.3294 -0.6555
 9339TIP3    H149508   5.174   6.132   3.079  0.5898  0.2445  0.2099
 9339TIP3    H249509   5.026   6.136   3.110  0.2562  0.8076 -1.3420
 9340TIP3   OH249510   1.188   4.618  12.854 -0.2180  0.0758 -0.1395
 9340TIP3    H149511   1.102   4.579  12.869  0.0111 -0.2499  0.3682
 9340TIP3    H249512   1.170   4.703  12.814 -0.9387  1.2196  2.3705
 9341TIP3   OH249513   1.964   1.408  12.444 -0.3589 -0.0553  0.2114
 9341TIP3    H149514   2.011   1.348  12.502  0.4547 -0.3336 -0.6837
 9341TIP3    H249515   1.980   1.372  12.356 -0.5254  1.0316 -0.2753
 9342TIP3   OH249516   2.872   0.085  10.827  0.3159  0.3307 -0.7959
 9342TIP3    H149517   2.928   0.024  10.875 -3.0056 -1.9641  0.4945
 9342TIP3    H249518   2.893   0.070  10.735  0.9067 -1.3925 -0.4089
 9343TIP3   OH249519   1.240   5.799  14.804 -0.0132  0.1365  0.3468
 9343TIP3    H149520   1.191   5.747  14.741  0.1422  0.3070  0.0803
 9343TIP3    H249521   1.176   5.823  14.871 -0.4709  0.9542 -0.3641
 9344TIP3   OH249522   2.024   6.326  16.361  0.0905  0.2743 -0.3426
 9344TIP3    H149523   2.015   6.357  16.451 -0.7705 -0.5735 -0.1130
 9344TIP3    H249524   2.016   6.230  16.368 -0.6778  0.2490 -1.3960
 9345TIP3   OH249525   4.364   1.717  16.668  0.1983  0.2682 -0.0566
 9345TIP3    H149526   4.301   1.754  16.606 -0.0648 -0.1040 -0.0142
 9345TIP3    H249527   4.324   1.730  16.754 -0.5011 -1.2569 -0.1214
 9346TIP3   OH249528   3.718   5.060   2.211 -0.0579 -0.3746  0.3135
 9346TIP3    H149529   3.758   5.118   2.147 -1.4481 -0.7048 -0.8963
 9346TIP3    H249530   3.792   5.027   2.263  1.1100 -0.1547 -1.1545
 9347TIP3   OH249531   3.281   3.970   5.287  0.0644 -0.7313  0.0659
 9347TIP3    H149532   3.318   3.975   5.199  2.0351 -2.7003  0.7016
 9347TIP3    H249533   3.305   4.054   5.327  0.5200 -0.4522 -0.7611
 9348TIP3   OH249534   1.651   0.196  15.575 -0.4076 -0.0956 -0.3546
 9348TIP3    H149535   1.656   0.214  15.669 -0.3002  1.6980 -0.6617
 9348TIP3    H249536   1.725   0.243  15.538 -0.2726 -1.0439 -1.3221
 9349TIP3   OH249537   4.083   0.948  16.545  0.1152 -0.5076  0.2572
 9349TIP3    H149538   4.025   1.014  16.508 -0.2676 -0.8931  0.1635
 9349TIP3    H249539   4.107   0.982  16.632  0.4094  0.0381 -0.0348
 9350TIP3   OH249540   0.279   6.287  12.340 -0.1793 -0.3042  0.6033
 9350TIP3    H149541   0.352   6.336  12.380 -0.5248  1.7072 -1.0790
 9350TIP3    H249542   0.317   6.201  12.320  1.6134  0.5081  0.2540
 9351TIP3   OH249543   3.056   6.341  15.117 -0.4948  0.1572  0.2477
 9351TIP3    H149544   3.063   6.419  15.171  0.8769  0.4306 -0.2757
 9351TIP3    H249545   3.073   6.268  15.177  0.6196  0.4324  0.3007
 9352TIP3   OH249546   0.559   6.117   2.306 -0.2921 -0.0864  0.1908
 9352TIP3    H149547   0.652   6.139   2.295 -0.0287 -0.8417  0.7622
 9352TIP3    H249548   0.532   6.169   2.382 -0.5743  0.7774 -0.4863
 9353TIP3   OH249549   0.449   2.804  14.620 -0.1168  0.0501  0.9275
 9353TIP3    H149550   0.539   2.815  14.651  0.2005 -0.0716  0.0632
 9353TIP3    H249551   0.401   2.878  14.658  0.4555  0.4073  0.9601
 9354TIP3   OH249552   4.353   5.349   2.526 -0.0743 -0.0883 -0.2037
 9354TIP3    H149553   4.420   5.320   2.588  0.9134  0.2658 -1.0731
 9354TIP3    H249554   4.403   5.382   2.450 -1.1984  1.1273 -0.4589
 9355TIP3   OH249555   0.210   6.679  13.896  0.0291  0.9118  0.0176
 9355TIP3    H149556   0.284   6.668  13.956  0.1547  0.7483 -0.1689
 9355TIP3    H249557   0.247   6.668  13.809 -0.5671 -1.2812 -0.0167
 9356TIP3   OH249558   5.876   6.636   4.810  0.5030 -0.0084  0.3497
 9356TIP3    H149559   5.827   6.712   4.842  0.5889  1.3960 -2.5039
 9356TIP3    H249560   5.821   6.561   4.833  0.2180  0.8849  2.8969
 9357TIP3   OH249561   4.558   4.028  12.374  0.8298 -0.1334  0.3184
 9357TIP3    H149562   4.557   3.934  12.390  0.5834 -0.4545 -1.4729
 9357TIP3    H249563   4.581   4.037  12.282 -1.0163  1.4917 -0.0320
 9358TIP3   OH249564   0.521   0.905  15.841 -0.0021  0.0093 -0.1022
 9358TIP3    H149565   0.519   1.000  15.828 -3.0812 -0.0321 -0.5173
 9358TIP3    H249566   0.599   0.891  15.895  1.4610  2.5456 -1.3404
 9359TIP3   OH249567   3.507   1.361   3.523  0.1272  0.3570 -0.0196
 9359TIP3    H149568   3.504   1.407   3.439 -0.5592  0.8043  0.2502
 9359TIP3    H249569   3.419   1.369   3.559 -0.2321 -1.7544 -0.2760
 9360TIP3   OH249570   6.313   2.315  11.783 -0.2930 -0.2218 -0.3958
 9360TIP3    H149571   6.302   2.374  11.857  0.5657 -0.4197 -0.0994
 9360TIP3    H249572   6.364   2.365  11.720  0.9548 -0.8384  0.1044
 9361TIP3   OH249573   0.939   1.438   0.466 -0.2492 -0.0281  0.4308
 9361TIP3    H149574   0.924   1.348   0.438  1.1679 -0.2985  0.4844
 9361TIP3    H249575   1.026   1.437   0.507  0.1374  1.5170 -0.2685
 9362TIP3   OH249576   4.262   3.784  14.567 -0.2055  0.4163 -0.6093
 9362TIP3    H149577   4.194   3.725  14.534  1.0877 -0.5874 -1.5517
 9362TIP3    H249578   4.314   3.729  14.626 -1.0799  1.5732  1.3411
 9363TIP3   OH249579   4.364   6.072  11.588 -0.4234 -0.0997 -0.2938
 9363TIP3    H149580   4.316   6.091  11.508 -1.7440 -2.3528 -0.1012
 9363TIP3    H249581   4.451   6.047  11.558 -0.6072  0.0138 -0.9343
 9364TIP3   OH249582   4.245   6.573   3.817  0.1737  0.2734 -0.2596
 9364TIP3    H149583   4.216   6.606   3.902 -0.5407 -0.2517 -0.2893
 9364TIP3    H249584   4.329   6.531   3.835  0.4820  0.9911  0.0035
 9365TIP3   OH249585   6.135   5.288   2.559 -0.0889 -0.4504 -0.2166
 9365TIP3    H149586   6.165   5.243   2.638 -1.0403  0.8516  0.9379
 9365TIP3    H249587   6.205   5.273   2.495  0.2985 -2.2735  0.5587
 9366TIP3   OH249588   4.362   2.056  12.571  0.4956 -0.6320 -0.0717
 9366TIP3    H149589   4.397   1.985  12.518 -1.1077 -0.8459 -0.8926
 9366TIP3    H249590   4.277   2.025  12.600 -0.3887  1.0592 -0.7194
 9367TIP3   OH249591   4.533   5.227   0.559  0.1458  0.1507 -0.3520
 9367TIP3    H149592   4.594   5.291   0.594 -0.3188  0.0256  0.7063
 9367TIP3    H249593   4.571   5.202   0.475  1.9012 -0.4030  0.5572
 9368TIP3   OH249594   2.446   3.964   0.325 -0.1656  0.1982  0.0552
 9368TIP3    H149595   2.376   3.963   0.260 -0.0012  0.0611 -0.1197
 9368TIP3    H249596   2.430   3.886   0.378  1.1218 -1.0985 -1.3432
 9369TIP3   OH249597   5.348   5.429  16.391 -0.4489  0.2462  0.1312
 9369TIP3    H149598   5.424   5.389  16.434 -0.0295  1.7344  0.8415
 9369TIP3    H249599   5.280   5.429  16.458 -0.2106  1.3513  0.3975
 9370TIP3   OH249600   0.739   5.669   2.550 -0.2204  0.2330 -0.0973
 9370TIP3    H149601   0.753   5.705   2.638  2.0803 -0.0337 -0.2753
 9370TIP3    H249602   0.669   5.722   2.513 -1.1653  0.4171  1.8463
 9371TIP3   OH249603   0.202   2.577  15.629  0.2472  1.0003  0.0650
 9371TIP3    H149604   0.227   2.549  15.717  0.4105 -2.4555 -0.9110
 9371TIP3    H249605   0.284   2.595  15.585  0.2454  1.5142  0.2714
 9372TIP3   OH249606   3.647   0.663   2.827  0.1430 -0.1175  0.6204
 9372TIP3    H149607   3.671   0.607   2.900  1.2311 -0.3260  0.1247
 9372TIP3    H249608   3.685   0.620   2.750 -1.3433 -0.1417 -0.1381
 9373TIP3   OH249609   6.678   5.133  13.387 -0.5524  0.3919  0.2309
 9373TIP3    H149610   6.737   5.081  13.442  1.6869  2.1287 -0.4046
 9373TIP3    H249611   6.733   5.166  13.316 -2.0586  2.8519  0.0804
 9374TIP3   OH249612   2.098   5.055   5.617  0.0022 -0.3727 -0.5261
 9374TIP3    H149613   2.095   5.125   5.682  0.3128 -1.7331  1.0194
 9374TIP3    H249614   2.016   5.065   5.569 -0.0824  0.8869 -0.1803
 9375TIP3   OH249615   2.178   5.537   3.212  0.4915 -0.1937 -0.9295
 9375TIP3    H149616   2.206   5.456   3.254 -0.1441  0.8747  1.7605
 9375TIP3    H249617   2.092   5.517   3.174  0.4348 -0.8217 -0.4688
 9376TIP3   OH249618   6.564   5.980   0.226 -0.4420  0.0795 -0.1494
 9376TIP3    H149619   6.544   5.948   0.138  0.3846  2.2090 -1.1909
 9376TIP3    H249620   6.480   5.979   0.272 -0.9376 -0.7789 -1.0551
 9377TIP3   OH249621   2.352   4.231   1.352  0.1410 -0.5392 -0.0300
 9377TIP3    H149622   2.392   4.205   1.269 -0.5966 -2.0576  0.0710
 9377TIP3    H249623   2.425   4.230   1.414  0.6149  0.2033 -0.5477
 9378TIP3   OH249624   2.004   2.616   1.645  0.7680  0.4252 -0.8335
 9378TIP3    H149625   2.078   2.670   1.617  1.0470 -0.3653 -1.7037
 9378TIP3    H249626   1.992   2.637   1.738  2.3837  0.2373 -0.5571
 9379TIP3   OH249627   2.162   1.519   0.076 -0.7454 -0.0285  0.3155
 9379TIP3    H149628   2.168   1.442   0.134 -1.8644 -0.9728 -0.7773
 9379TIP3    H249629   2.075   1.513   0.037 -0.1979  0.8465 -1.1051
 9380TIP3   OH249630   0.745   6.779   4.621 -0.4640  0.7471  0.0565
 9380TIP3    H149631   0.734   6.708   4.557  1.1902  0.8431 -0.4016
 9380TIP3    H249632   0.658   6.816   4.631 -2.0016 -2.8814  2.2084
 9381TIP3   OH249633   6.532   4.243   2.074 -0.1594  0.2091 -0.4917
 9381TIP3    H149634   6.447   4.280   2.050 -0.6637 -1.3291 -1.2287
 9381TIP3    H249635   6.555   4.285   2.156 -0.9328  1.7275 -1.0215
 9382TIP3   OH249636   5.282   5.715  11.113  0.1257 -0.1113  0.0284
 9382TIP3    H149637   5.329   5.718  11.197  1.9086 -1.7094 -0.8555
 9382TIP3    H249638   5.238   5.630  11.113  0.2252 -0.1666 -0.7021
 9383TIP3   OH249639   2.107   5.332  13.626 -0.4237  0.2106 -0.6768
 9383TIP3    H149640   2.161   5.385  13.567  1.7985 -0.0328  1.0218
 9383TIP3    H249641   2.168   5.269  13.665 -2.4075 -1.6609 -0.3727
 9384TIP3   OH249642   5.071   1.815   0.671  0.2598  0.6142  0.7610
 9384TIP3    H149643   5.001   1.880   0.672 -0.1611  0.2540 -0.9847
 9384TIP3    H249644   5.139   1.855   0.616 -0.0969 -0.4531 -0.5226
 9385TIP3   OH249645   1.500   2.535  12.484  0.1559 -0.3312  0.8141
 9385TIP3    H149646   1.491   2.440  12.497  0.5770 -0.5304 -0.2294
 9385TIP3    H249647   1.460   2.551  12.399  0.5667  0.3394  0.7403
 9386TIP3   OH249648   2.666   3.803  16.101  0.5072 -0.0476 -0.1527
 9386TIP3    H149649   2.684   3.863  16.028  0.5043  0.4283  0.2370
 9386TIP3    H249650   2.753   3.773  16.129  0.5482  0.2663  0.0613
 9387TIP3   OH249651   0.886   6.340  13.788  0.3455  0.2874 -0.4601
 9387TIP3    H149652   0.867   6.365  13.697 -3.1329  1.0366  0.3224
 9387TIP3    H249653   0.806   6.363  13.836  2.3524  0.6823  2.9839
 9388TIP3   OH249654   3.623   3.102  13.377  0.2033 -0.2632  0.0964
 9388TIP3    H149655   3.582   3.021  13.407  0.2595 -0.2089  0.3188
 9388TIP3    H249656   3.650   3.083  13.287  2.1788 -1.2377  0.8299
 9389TIP3   OH249657   6.692   1.188  11.108  0.2678  0.2104  0.4720
 9389TIP3    H149658   6.668   1.202  11.016  1.6462 -0.5400 -0.0416
 9389TIP3    H249659   6.618   1.140  11.145 -1.0706  1.9983  0.2410
 9390TIP3   OH249660   4.729   1.898  12.680  0.5189  0.1794  0.5131
 9390TIP3    H149661   4.737   1.808  12.712 -1.9504  0.3067  1.7606
 9390TIP3    H249662   4.669   1.892  12.606  0.1110  0.8226  0.7853
 9391TIP3   OH249663   2.504   2.736  10.690 -0.2415  0.1373  0.2048
 9391TIP3    H149664   2.587   2.773  10.723 -1.0598  3.0582 -0.6622
 9391TIP3    H249665   2.527   2.649  10.660  2.5684  0.8665 -0.0855
 9392TIP3   OH249666   3.299   6.112   4.073 -0.7045  0.4958  0.1534
 9392TIP3    H149667   3.282   6.034   4.021 -1.0938  0.1735  0.7450
 9392TIP3    H249668   3.345   6.171   4.014 -1.7657  0.4334 -0.7707
 9393TIP3   OH249669   4.068   4.590  13.027 -0.7886 -0.1661  0.1980
 9393TIP3    H149670   4.116   4.644  12.964 -0.2114  0.0395  0.8032
 9393TIP3    H249671   4.042   4.651  13.095 -0.4683 -0.5876  0.6992
 9394TIP3   OH249672   0.129   6.765   0.682  0.9173 -0.0563 -0.1646
 9394TIP3    H149673   0.104   6.808   0.764  0.9977 -2.1578  1.0334
 9394TIP3    H249674   0.059   6.786   0.621 -0.5608 -0.6361  1.2658
 9395TIP3   OH249675   0.857   4.618  10.524 -0.0449 -0.2476  0.9483
 9395TIP3    H149676   0.934   4.674  10.520 -0.9975  1.3705  3.0440
 9395TIP3    H249677   0.892   4.529  10.525  1.6685  0.3715  0.0535
 9396TIP3   OH249678   2.332   0.611  11.522  0.2977  0.6491 -0.0971
 9396TIP3    H149679   2.273   0.614  11.447  2.1640  1.0835 -1.6341
 9396TIP3    H249680   2.414   0.576  11.486  1.6098  1.9717  1.4600
 9397TIP3   OH249681   0.955   1.926   0.010  0.3782  0.4730 -0.1304
 9397TIP3    H149682   0.898   2.002   0.022 -0.8877 -0.1701 -1.6170
 9397TIP3    H249683   1.021   1.954  -0.053 -1.1906 -0.1166 -2.1505
 9398TIP3   OH249684   2.401   6.068  11.834  0.0652  0.0462  0.2749
 9398TIP3    H149685   2.461   6.043  11.905  0.1853  0.5459  0.3520
 9398TIP3    H249686   2.453   6.126  11.778 -0.8504  1.9821  1.3289
 9399TIP3   OH249687   1.002   0.819   4.454 -0.3545  0.3553 -0.9603
 9399TIP3    H149688   0.987   0.736   4.498  0.3634  0.7045 -0.0128
 9399TIP3    H249689   1.060   0.868   4.513 -2.2675  2.3005 -0.5383
 9400TIP3   OH249690   2.941   1.688  14.253 -0.4151  0.1747 -0.4199
 9400TIP3    H149691   2.994   1.628  14.306  2.3792  3.0485  0.4066
 9400TIP3    H249692   2.993   1.702  14.174 -1.1987  1.1624 -0.7808
 9401TIP3   OH249693   3.970   3.403  16.043 -0.0799  0.0155  0.5023
 9401TIP3    H149694   3.886   3.428  16.004  0.2020 -0.9622 -0.8145
 9401TIP3    H249695   4.035   3.444  15.987  0.3295  0.3491  1.2189
 9402TIP3   OH249696   4.603   0.766  13.979 -0.3823 -0.2773 -0.2046
 9402TIP3    H149697   4.617   0.814  14.060  0.9642 -0.3271 -0.3904
 9402TIP3    H249698   4.543   0.695  14.003 -0.4344  0.0350  0.6162
 9403TIP3   OH249699   5.472   1.026  10.551  0.3766  0.5542 -0.3927
 9403TIP3    H149700   5.496   1.090  10.485  4.8258 -0.3511  0.0519
 9403TIP3    H249701   5.466   1.076  10.633  0.6831  0.8235 -0.5369
 9404TIP3   OH249702   4.711   2.191   3.627 -0.4821  0.3295 -0.1397
 9404TIP3    H149703   4.684   2.265   3.681  1.6494 -0.1939  1.7914
 9404TIP3    H249704   4.731   2.230   3.542  1.9677  2.3220  1.2096
 9405TIP3   OH249705   1.924   6.659   0.616 -0.0614 -0.2178  0.1787
 9405TIP3    H149706   1.836   6.638   0.647  0.0010  0.4279  0.8246
 9405TIP3    H249707   1.939   6.749   0.645  0.5628 -0.0951 -0.4927
 9406TIP3   OH249708   6.114   6.331   1.835  0.7469 -0.2332  0.6656
 9406TIP3    H149709   6.084   6.368   1.918  0.5660 -0.6622  0.7944
 9406TIP3    H249710   6.200   6.372   1.820  1.1370 -0.7239  1.4546
 9407TIP3   OH249711   0.857   3.915   5.918 -0.5407  0.7674 -0.1185
 9407TIP3    H149712   0.858   3.820   5.925 -1.1215  0.8624  1.7361
 9407TIP3    H249713   0.772   3.934   5.877 -0.3215  0.4984 -0.7179
 9408TIP3   OH249714   1.738   4.100  13.879  0.4172 -0.5969 -0.2177
 9408TIP3    H149715   1.786   4.030  13.836  1.6826 -0.0435  0.2493
 9408TIP3    H249716   1.799   4.173  13.883  0.4081 -0.6257  2.5097
 9409TIP3   OH249717   0.765   4.164  15.773 -0.3276 -0.3919  0.3839
 9409TIP3    H149718   0.735   4.077  15.748  0.0766 -0.1987 -0.8532
 9409TIP3    H249719   0.856   4.167  15.741 -0.1718  0.3000  0.8781
 9410TIP3   OH249720   5.308   4.080   5.895 -0.1129  0.0034  0.1111
 9410TIP3    H149721   5.314   4.153   5.833 -0.9012 -0.3083 -0.3504
 9410TIP3    H249722   5.300   4.003   5.839  1.0504 -0.4821  0.5890
 9411TIP3   OH249723   4.576   3.535  15.665 -0.4501 -0.0840 -0.4191
 9411TIP3    H149724   4.540   3.453  15.698  2.4672 -1.1095  0.5391
 9411TIP3    H249725   4.523   3.603  15.706 -0.5851 -1.4418  1.8390
 9412TIP3   OH249726   3.923   4.346  11.748  0.1791 -0.7333 -0.3112
 9412TIP3    H149727   4.014   4.353  11.777 -0.3105  0.8068  1.0730
 9412TIP3    H249728   3.872   4.347  11.830 -1.0672 -2.7549 -0.9804
 9413TIP3   OH249729   4.827   5.155   2.609  0.4937  0.4488 -0.1964
 9413TIP3    H149730   4.916   5.142   2.575  0.2679  1.4259 -1.2174
 9413TIP3    H249731   4.825   5.105   2.691  1.7761 -0.1113 -0.4861
 9414TIP3   OH249732   6.254   3.860   0.309  0.0013  0.1645  0.5754
 9414TIP3    H149733   6.338   3.834   0.348  1.3970  0.5916 -1.8900
 9414TIP3    H249734   6.279   3.909   0.231 -2.5940  0.9654  0.1670
 9415TIP3   OH249735   0.916   6.067   4.658  0.6823  0.0962  0.3472
 9415TIP3    H149736   0.918   6.073   4.562  0.6438 -0.8841  0.2791
 9415TIP3    H249737   0.892   6.156   4.686 -1.5216 -0.1244 -0.6354
 9416TIP3   OH249738   1.863   1.016   2.399 -0.1905  0.1529 -0.0131
 9416TIP3    H149739   1.844   1.105   2.370 -1.3491 -0.0411  0.1128
 9416TIP3    H249740   1.895   1.027   2.489 -1.3659  0.3779  0.3985
 9417TIP3   OH249741   1.846   4.019   5.383  0.0279 -0.1239  0.2443
 9417TIP3    H149742   1.783   3.994   5.451 -1.1822 -0.6202 -1.0037
 9417TIP3    H249743   1.801   4.086   5.332  0.1753 -1.0317 -1.1351
 9418TIP3   OH249744   3.649   3.072   0.724 -0.0453  0.5153 -0.5835
 9418TIP3    H149745   3.619   3.162   0.742  0.3929  0.6327 -0.4144
 9418TIP3    H249746   3.699   3.048   0.802 -1.2428 -0.3657 -0.0635
 9419TIP3   OH249747   4.251   3.457   2.805  0.0864  0.0553  0.2004
 9419TIP3    H149748   4.227   3.393   2.872 -1.1337 -1.1590 -1.3017
 9419TIP3    H249749   4.213   3.421   2.724  2.2395  1.0101 -1.3088
 9420TIP3   OH249750   2.656   2.507  13.753 -0.5537  0.4176  0.5721
 9420TIP3    H149751   2.668   2.412  13.751 -2.5378  0.0736 -3.1260
 9420TIP3    H249752   2.736   2.542  13.714 -0.9548  0.0023 -0.6717
 9421TIP3   OH249753   1.818   6.107   5.562  0.9292  0.0768  0.8952
 9421TIP3    H149754   1.855   6.126   5.648 -1.1082  0.6015  1.7340
 9421TIP3    H249755   1.879   6.146   5.500  2.8227 -0.9459  2.0355
 9422TIP3   OH249756   6.360   3.710   2.140 -0.0537 -0.0315 -0.4965
 9422TIP3    H149757   6.310   3.638   2.101 -1.0464 -0.4444  1.4250
 9422TIP3    H249758   6.423   3.735   2.072  0.1257 -2.5039 -1.3209
 9423TIP3   OH249759   0.392   5.238   5.828  0.3548 -0.0832  0.2301
 9423TIP3    H149760   0.425   5.155   5.795 -2.1956 -0.2729 -2.1955
 9423TIP3    H249761   0.360   5.218   5.916  0.7900 -1.3786  0.1159
 9424TIP3   OH249762   3.990   5.785   5.742 -0.2522  0.3029 -0.0148
 9424TIP3    H149763   4.014   5.723   5.810 -0.1289  0.7238  0.3324
 9424TIP3    H249764   3.899   5.808   5.760  0.2766  1.7036  1.0443
 9425TIP3   OH249765   4.081   3.865  15.401  0.2311 -0.3728  0.2129
 9425TIP3    H149766   4.122   3.943  15.436 -0.6906  0.8932 -1.3955
 9425TIP3    H249767   4.147   3.797  15.410  2.0331  1.1890 -0.7083
 9426TIP3   OH249768   1.427   6.417   3.367  0.6907 -0.0031 -0.3829
 9426TIP3    H149769   1.443   6.329   3.335 -0.9772  0.7768 -3.8119
 9426TIP3    H249770   1.333   6.420   3.384  0.9963  0.6788  1.5416
 9427TIP3   OH249771   3.001   6.059  13.359 -0.4503 -0.0877  0.0364
 9427TIP3    H149772   2.945   6.111  13.301  0.2249 -1.1033 -1.6011
 9427TIP3    H249773   3.089   6.069  13.323  0.1183 -0.0933  1.3892
 9428TIP3   OH249774   4.971   1.180  11.409  0.3494  0.4488 -0.1857
 9428TIP3    H149775   4.972   1.110  11.344 -0.7369  1.1838 -1.0331
 9428TIP3    H249776   5.010   1.255  11.365  0.5176  0.6865  0.3548
 9429TIP3   OH249777   4.248   0.424   5.294  0.3541 -0.0575 -0.2862
 9429TIP3    H149778   4.237   0.459   5.205 -0.6857  1.7509  0.5091
 9429TIP3    H249779   4.185   0.472   5.347 -0.8441 -2.8744  1.0230
 9430TIP3   OH249780   3.631   1.286   2.469  0.0022 -0.1289  0.4462
 9430TIP3    H149781   3.615   1.339   2.391  0.8860 -0.1352  0.2494
 9430TIP3    H249782   3.676   1.208   2.437 -1.5372 -1.1653  0.6976
 9431TIP3   OH249783   0.927   6.618  12.788  0.2211  0.0074  0.6255
 9431TIP3    H149784   0.997   6.660  12.838 -0.0507  1.1930  0.0601
 9431TIP3    H249785   0.955   6.625  12.697 -0.2559 -0.2475  0.4552
 9432TIP3   OH249786   6.394   1.804  16.536 -0.1995 -0.3724  0.1837
 9432TIP3    H149787   6.487   1.816  16.556  0.3424 -0.4087 -2.0254
 9432TIP3    H249788   6.366   1.888  16.501 -0.6256 -0.7717 -0.4471
 9433TIP3   OH249789   6.124   0.914  12.614  0.9488  0.5852  0.1444
 9433TIP3    H149790   6.086   0.952  12.535  2.5627  0.1356 -0.9071
 9433TIP3    H249791   6.216   0.940  12.611  1.5288 -1.2423  0.7206
 9434TIP3   OH249792   1.209   0.370   3.459 -0.1319 -0.0304 -0.2661
 9434TIP3    H149793   1.264   0.375   3.537  0.4179 -1.7966 -0.5155
 9434TIP3    H249794   1.133   0.425   3.480  1.3521  1.8806  0.3428
 9435TIP3   OH249795   0.545   5.363  15.936 -0.0468  0.1547  0.7011
 9435TIP3    H149796   0.629   5.324  15.963  0.6957  2.1499  1.4545
 9435TIP3    H249797   0.529   5.432  16.000 -1.3984  0.9674 -0.4507
 9436TIP3   OH249798   6.787   4.333  14.185  0.1825 -0.4778 -0.9008
 9436TIP3    H149799   6.813   4.344  14.093 -0.2434 -0.1690 -0.9879
 9436TIP3    H249800   6.786   4.239  14.198  2.2034 -0.5150 -0.6455
 9437TIP3   OH249801   1.273   4.668   6.572  0.1479  0.9084  0.8441
 9437TIP3    H149802   1.279   4.575   6.550 -0.6908  1.3587 -1.6807
 9437TIP3    H249803   1.354   4.687   6.620  1.2182 -0.7372 -0.2068
 9438TIP3   OH249804   2.005   4.568   1.492  0.4067  0.5300  0.3027
 9438TIP3    H149805   2.017   4.620   1.412  1.8231  0.1358  0.2335
 9438TIP3    H249806   2.062   4.492   1.479 -1.5080 -1.0003  0.4617
 9439TIP3   OH249807   5.720   3.888   5.534  0.0423 -0.1275 -0.1672
 9439TIP3    H149808   5.774   3.853   5.606  0.0887 -1.1108 -0.6501
 9439TIP3    H249809   5.764   3.856   5.455 -1.1317 -0.7903 -0.5797
 9440TIP3   OH249810   2.569   4.347  14.970  0.1494 -0.4786 -0.3482
 9440TIP3    H149811   2.485   4.392  14.979  0.5634  0.0892  0.8154
 9440TIP3    H249812   2.565   4.275  15.033  0.5436 -0.4302 -0.2626
 9441TIP3   OH249813   5.557   5.602   4.568 -0.4341 -0.4022  0.1757
 9441TIP3    H149814   5.525   5.547   4.496 -3.8979 -1.2705  2.1172
 9441TIP3    H249815   5.604   5.541   4.625 -2.2813 -0.9582  1.1812
 9442TIP3   OH249816   4.661   2.312  16.561 -0.4202  0.2272 -0.4226
 9442TIP3    H149817   4.743   2.329  16.515 -0.4368  1.2582 -0.0917
 9442TIP3    H249818   4.595   2.307  16.492  0.0658 -1.7303 -0.7912
 9443TIP3   OH249819   4.614   4.561  14.381  0.8662 -0.4006  0.2332
 9443TIP3    H149820   4.577   4.481  14.418 -0.7100  0.5906  0.9067
 9443TIP3    H249821   4.623   4.621  14.456  0.2744  0.6856 -0.5321
 9444TIP3   OH249822   4.544   6.004  12.713 -0.0184 -0.1035  0.6636
 9444TIP3    H149823   4.471   6.050  12.672  0.6372  0.2436 -0.1283
 9444TIP3    H249824   4.613   6.003  12.647  0.9671  0.2318  1.6480
 9445TIP3   OH249825   3.203   3.227   2.512 -0.1115  0.5813 -0.4826
 9445TIP3    H149826   3.269   3.209   2.579  0.1807 -0.5857 -1.0579
 9445TIP3    H249827   3.121   3.234   2.560  0.4039  2.2005  0.2631
 9446TIP3   OH249828   3.837   1.553   4.940 -0.3961 -0.4171 -0.1720
 9446TIP3    H149829   3.815   1.593   5.023 -2.9293  0.6562 -1.2606
 9446TIP3    H249830   3.901   1.613   4.900 -2.1248  1.2069 -0.6239
 9447TIP3   OH249831   3.896   4.705  15.939 -0.2057  0.3299  0.1675
 9447TIP3    H149832   3.931   4.739  15.857 -1.7102 -0.1846 -0.7374
 9447TIP3    H249833   3.969   4.658  15.979  0.7948  1.3299 -0.4315
 9448TIP3   OH249834   3.027   5.752   2.517 -1.1224 -0.2576 -0.0808
 9448TIP3    H149835   2.950   5.798   2.550  0.1690  1.8960  0.1377
 9448TIP3    H249836   3.031   5.672   2.569 -1.9989  0.6208  1.4276
 9449TIP3   OH249837   2.253   0.839   3.245  0.1281  0.5081 -0.0265
 9449TIP3    H149838   2.184   0.772   3.244  0.7358 -0.1247 -0.7718
 9449TIP3    H249839   2.301   0.823   3.326  0.1439  0.1696 -0.1004
 9450TIP3   OH249840   5.604   3.138   3.319  0.5303 -0.0199  0.2964
 9450TIP3    H149841   5.584   3.052   3.285 -0.6256  0.3876 -0.0876
 9450TIP3    H249842   5.700   3.140   3.325  0.6237 -0.9384 -0.6759
 9451TIP3   OH249843   6.761   3.218  17.245 -0.4682 -0.7440 -0.5359
 9451TIP3    H149844   6.679   3.192  17.287 -0.1516 -1.1901 -0.1741
 9451TIP3    H249845   6.758   3.179  17.158 -0.9345 -0.1916 -0.7693
 9452TIP3   OH249846   3.198   5.186   1.178  0.2429 -0.2637 -0.4113
 9452TIP3    H149847   3.276   5.219   1.223  0.7458  1.3358 -2.2896
 9452TIP3    H249848   3.130   5.250   1.200  0.3995  0.3198 -1.5905
 9453TIP3   OH249849   5.530   1.867   1.832 -0.0864 -0.2890 -0.2920
 9453TIP3    H149850   5.557   1.958   1.844 -0.3410 -0.2864  0.2938
 9453TIP3    H249851   5.564   1.822   1.910  1.1455 -0.9540 -1.1871
 9454TIP3   OH249852   6.640   1.929   3.204 -0.0450 -0.6524  0.1728
 9454TIP3    H149853   6.677   1.844   3.180  0.3950 -0.1849 -0.9160
 9454TIP3    H249854   6.700   1.964   3.270 -0.1316 -1.1131  0.4937
 9455TIP3   OH249855   5.271   6.123   2.905 -0.4246 -0.4648 -0.1058
 9455TIP3    H149856   5.277   6.116   2.810 -0.9069  0.9528 -0.2645
 9455TIP3    H249857   5.361   6.144   2.933 -0.3901 -0.3460 -0.3047
 9456TIP3   OH249858   1.148   2.024  15.158 -0.3778  0.5076 -0.2698
 9456TIP3    H149859   1.184   2.113  15.156  1.3194 -0.1609 -1.0575
 9456TIP3    H249860   1.127   2.005  15.067  2.7041 -1.1716 -0.7586
 9457TIP3   OH249861   6.800   4.273   3.903  0.3111 -0.7210 -0.0694
 9457TIP3    H149862   6.855   4.273   3.825 -0.0959  0.3823 -0.3708
 9457TIP3    H249863   6.733   4.339   3.885 -0.6105 -1.4250  0.6426
 9458TIP3   OH249864   6.462   4.442   4.643 -0.3483 -0.1063  0.0510
 9458TIP3    H149865   6.383   4.391   4.655  0.3300 -0.8448  1.6390
 9458TIP3    H249866   6.513   4.394   4.578 -0.8920 -0.0006 -0.4527
 9459TIP3   OH249867   2.804   0.180   1.562 -0.5252 -0.1361 -0.2123
 9459TIP3    H149868   2.794   0.262   1.612 -0.1171 -0.6884  0.7960
 9459TIP3    H249869   2.876   0.198   1.502 -0.2555  0.1538  0.1918
 9460TIP3   OH249870   5.041   0.593   5.368  0.4325  0.5604  0.5443
 9460TIP3    H149871   5.058   0.630   5.282  1.6341 -0.2462  0.4074
 9460TIP3    H249872   5.124   0.550   5.393  0.8127  2.4411  2.9463
 9461TIP3   OH249873   4.188   6.188   5.260  0.3620  0.6539  0.1811
 9461TIP3    H149874   4.103   6.194   5.304 -0.1641 -0.7081 -0.5842
 9461TIP3    H249875   4.184   6.254   5.191  0.7470  2.0069  1.4141
 9462TIP3   OH249876   0.735   1.947  11.299 -0.1030 -0.4753  0.0673
 9462TIP3    H149877   0.734   1.986  11.386 -1.4136 -0.0513 -0.1306
 9462TIP3    H249878   0.663   1.988  11.252 -0.4977 -1.9448 -0.6786
 9463TIP3   OH249879   2.863   1.814   6.834  0.3098 -0.5763 -0.1612
 9463TIP3    H149880   2.833   1.900   6.804  0.0422 -0.7463 -0.3890
 9463TIP3    H249881   2.956   1.812   6.811  0.4196 -0.1936  0.2092
 9464TIP3   OH249882   6.777   6.655  16.717  0.2925 -0.4651  0.0804
 9464TIP3    H149883   6.872   6.663  16.706  0.4268 -1.9705 -0.0691
 9464TIP3    H249884   6.766   6.615  16.803 -0.4351  3.5253  2.0945
 9465TIP3   OH249885   0.773   3.749   2.298 -0.2956  0.1361 -0.3192
 9465TIP3    H149886   0.727   3.676   2.338 -2.1772  0.2813 -2.0454
 9465TIP3    H249887   0.750   3.744   2.205  1.1893  1.7132 -0.8222
 9466TIP3   OH249888   1.927   1.288   5.096  0.3339 -0.4041 -0.0814
 9466TIP3    H149889   1.881   1.345   5.035  0.2158  2.1937  2.2026
 9466TIP3    H249890   2.018   1.290   5.067 -0.2191 -2.1044 -2.1309
 9467TIP3   OH249891   6.661   2.162   2.118 -0.0831 -0.1300  0.3428
 9467TIP3    H149892   6.658   2.214   2.037  2.4733  1.4094  1.1364
 9467TIP3    H249893   6.707   2.082   2.094  0.5956  0.2864  0.2232
 9468TIP3   OH249894   1.680   4.687  15.295  0.5310 -0.4614  0.2051
 9468TIP3    H149895   1.761   4.736  15.283  0.5854 -0.6475 -0.1828
 9468TIP3    H249896   1.694   4.604  15.250 -0.4006  0.0835 -1.1689
 9469TIP3   OH249897   5.734   3.004  11.455 -0.0842 -0.5797  0.1079
 9469TIP3    H149898   5.759   3.089  11.417  0.6334 -1.1893 -0.8156
 9469TIP3    H249899   5.773   2.939  11.396 -2.3901 -1.5855 -0.4251
 9470TIP3   OH249900   5.960   4.750  14.517 -0.0117 -0.3391 -0.6792
 9470TIP3    H149901   5.947   4.666  14.561 -0.4096  1.8105  3.8761
 9470TIP3    H249902   5.871   4.784  14.504  0.0752  1.4409  2.4236
 9471TIP3   OH249903   1.963   3.031  11.921 -0.6106  0.2577 -0.3273
 9471TIP3    H149904   2.012   3.051  11.841  1.7912 -0.3362  0.8998
 9471TIP3    H249905   1.918   3.113  11.943  1.6785  1.5778 -0.3163
 9472TIP3   OH249906   0.771   3.997  14.496 -0.3236  0.0125  0.2622
 9472TIP3    H149907   0.721   4.053  14.437  0.0930 -0.4577 -0.5491
 9472TIP3    H249908   0.715   3.986  14.573 -0.6246  1.1091  0.2098
 9473TIP3   OH249909   2.311   1.035   3.456  0.5968 -1.0316  0.5972
 9473TIP3    H149910   2.365   1.077   3.389  0.8005 -1.1545  0.6855
 9473TIP3    H249911   2.225   1.077   3.446  0.6035 -1.1045  0.2077
 9474TIP3   OH249912   4.160   0.006   3.212  0.4246  0.2160  0.3472
 9474TIP3    H149913   4.134   0.035   3.125 -0.8919 -0.2947  0.5456
 9474TIP3    H249914   4.084   0.025   3.268  1.0099 -0.0275  1.2582
 9475TIP3   OH249915   1.842   1.385   6.104 -0.0506 -0.3015 -0.2654
 9475TIP3    H149916   1.838   1.344   6.018 -0.8579  2.0750 -1.4336
 9475TIP3    H249917   1.762   1.438   6.110  0.6558  0.6685  1.3715
 9476TIP3   OH249918   6.327   3.415  14.758 -0.2263  0.4044 -0.0802
 9476TIP3    H149919   6.353   3.487  14.816 -0.2046 -0.2717  0.7746
 9476TIP3    H249920   6.243   3.443  14.722  0.7541  1.7764 -1.4101
 9477TIP3   OH249921   5.510   4.084  14.303 -0.3462 -0.4562  0.3386
 9477TIP3    H149922   5.537   3.994  14.281 -2.1900 -0.5639 -1.8699
 9477TIP3    H249923   5.509   4.129  14.219 -3.8247  0.3393  0.6672
 9478TIP3   OH249924   2.681   6.527   2.115 -0.7390 -0.2519  0.7311
 9478TIP3    H149925   2.755   6.544   2.057 -0.5899  0.8213  1.2118
 9478TIP3    H249926   2.625   6.467   2.066 -0.5329  0.5062 -0.4551
 9479TIP3   OH249927   4.291   1.154   3.383 -0.1302 -0.2636  0.5859
 9479TIP3    H149928   4.288   1.232   3.327 -0.3227  0.7558  1.9615
 9479TIP3    H249929   4.209   1.109   3.366  0.5165 -0.8707 -1.1432
 9480TIP3   OH249930   3.361   1.918   2.071  0.0065 -0.1737  0.1220
 9480TIP3    H149931   3.286   1.879   2.024  1.1035 -1.0911 -0.9408
 9480TIP3    H249932   3.370   1.864   2.150 -0.7454  0.2518  0.5076
 9481TIP3   OH249933   1.497   6.796  13.907 -0.4527  0.4829 -0.1301
 9481TIP3    H149934   1.506   6.751  13.823  1.2009 -1.4098  0.9648
 9481TIP3    H249935   1.587   6.808  13.937 -1.0132 -0.5689  2.1805
 9482TIP3   OH249936   0.490   4.813   4.590  0.3193 -0.1276 -0.2780
 9482TIP3    H149937   0.454   4.838   4.505 -0.5589 -2.8674 -0.8223
 9482TIP3    H249938   0.553   4.882   4.611  0.2518  0.8612 -2.9311
 9483TIP3   OH249939   6.230   0.716  13.811 -0.4204 -0.1831 -0.3607
 9483TIP3    H149940   6.260   0.805  13.794 -0.5093 -0.1598 -0.3972
 9483TIP3    H249941   6.307   0.670  13.843  0.3050 -0.8057 -2.8143
 9484TIP3   OH249942   1.572   2.019   1.778 -0.3229  0.2255 -0.2961
 9484TIP3    H149943   1.635   2.068   1.724 -0.2929 -0.8146 -1.2263
 9484TIP3    H249944   1.540   1.950   1.721 -1.3461 -0.0570  0.5943
 9485TIP3   OH249945   2.184   5.423   0.298  0.2486  0.2555  0.2069
 9485TIP3    H149946   2.120   5.356   0.274  2.2601 -0.5508 -3.6487
 9485TIP3    H249947   2.224   5.390   0.378 -1.4161 -1.1536  0.5294
 9486TIP3   OH249948   1.351   2.362  12.094 -0.1327 -0.2344  0.3649
 9486TIP3    H149949   1.262   2.330  12.078  0.1597 -0.5954 -0.6009
 9486TIP3    H249950   1.383   2.307  12.166 -0.7247 -0.0140  0.8127
 9487TIP3   OH249951   2.883   1.778   4.118 -0.1090 -0.8590 -0.0487
 9487TIP3    H149952   2.856   1.784   4.026 -0.9367 -2.7680  0.0279
 9487TIP3    H249953   2.964   1.728   4.116  1.3527  1.3695  0.0858
 9488TIP3   OH249954   6.677   6.576  12.221 -0.4218 -0.4823  0.2710
 9488TIP3    H149955   6.772   6.568  12.213 -0.5390 -1.0955 -0.6596
 9488TIP3    H249956   6.649   6.615  12.138 -1.0191 -0.7211  0.3543
 9489TIP3   OH249957   0.334   2.083  16.522  0.2519  0.5814  0.2306
 9489TIP3    H149958   0.427   2.062  16.514  0.3233 -1.3074  3.9592
 9489TIP3    H249959   0.330   2.145  16.595 -1.4374  0.5985  0.1567
 9490TIP3   OH249960   5.509   5.526  15.990 -0.3976 -0.2343 -0.1915
 9490TIP3    H149961   5.467   5.440  15.999 -1.8406  0.3134 -1.4323
 9490TIP3    H249962   5.474   5.577  16.063 -0.9760 -0.1409 -0.5325
 9491TIP3   OH249963   2.777   5.675   1.012 -0.1191  0.0130 -0.0457
 9491TIP3    H149964   2.768   5.653   0.919  0.0338  0.9716 -0.3025
 9491TIP3    H249965   2.738   5.762   1.020 -2.2099 -0.9729  1.2563
 9492TIP3   OH249966   2.888   4.633  14.723  0.6328  0.7456  0.1396
 9492TIP3    H149967   2.951   4.701  14.700  0.1106  1.2595  0.2116
 9492TIP3    H249968   2.804   4.678  14.725  0.2330  0.0229 -0.1595
 9493TIP3   OH249969   4.581   0.556   3.354 -0.0933 -0.0226  0.3679
 9493TIP3    H149970   4.653   0.610   3.320 -1.1284 -0.1096 -2.1886
 9493TIP3    H249971   4.564   0.592   3.441  1.8180  1.1983  0.3113
 9494TIP3   OH249972   4.571   2.585  14.815 -0.4688 -0.2385  0.7756
 9494TIP3    H149973   4.638   2.571  14.882 -0.2091  0.6044  0.7031
 9494TIP3    H249974   4.534   2.498  14.799  0.0681 -0.5827  1.3825
 9495TIP3   OH249975   4.324   4.812   5.001  0.5587 -0.7032  0.1178
 9495TIP3    H149976   4.397   4.772   4.953  2.5951  1.1503  1.4451
 9495TIP3    H249977   4.341   4.906   4.995 -2.9849 -0.0160 -1.2925
 9496TIP3   OH249978   0.095   0.385   4.025  0.6672  0.5986 -0.2508
 9496TIP3    H149979   0.079   0.316   4.090  1.8587 -1.4496 -2.0006
 9496TIP3    H249980   0.029   0.451   4.043  0.3343 -0.3382  2.3883
 9497TIP3   OH249981   3.684   3.694  16.865 -0.2126  0.3568 -0.3061
 9497TIP3    H149982   3.718   3.781  16.845  0.1465 -0.0795 -1.7034
 9497TIP3    H249983   3.674   3.693  16.961 -0.2192  1.9136 -0.2730
 9498TIP3   OH249984   4.237   2.528   0.332 -0.0049  0.0691 -0.1889
 9498TIP3    H149985   4.292   2.481   0.269  1.2642 -0.7035  1.4359
 9498TIP3    H249986   4.278   2.613   0.341 -0.1875  0.1802 -0.3857
 9499TIP3   OH249987   6.667   6.395  13.183 -0.7772 -0.4249 -0.6552
 9499TIP3    H149988   6.638   6.368  13.270 -0.7731 -0.1984 -0.5837
 9499TIP3    H249989   6.620   6.337  13.123 -2.4240  0.7993 -0.6130
 9500TIP3   OH249990   0.492   6.746   4.949 -0.2229 -0.5222  0.1027
 9500TIP3    H149991   0.527   6.658   4.964 -3.0923 -2.0426 -1.2140
 9500TIP3    H249992   0.423   6.733   4.883 -0.1104  2.9033 -0.8774
 9501TIP3   OH249993   4.464   5.193   6.069  0.3788 -0.2421  0.1770
 9501TIP3    H149994   4.513   5.207   6.150  0.9526  1.4702 -0.4116
 9501TIP3    H249995   4.528   5.157   6.007  1.2108  2.6044 -0.7907
 9502TIP3   OH249996   4.556   5.480   5.361  0.0109  0.2996 -0.7561
 9502TIP3    H149997   4.589   5.570   5.352  2.2134 -0.3683  0.1254
 9502TIP3    H249998   4.525   5.475   5.451  1.1142 -0.1779 -0.3904
 9503TIP3   OH249999   6.105   6.392  13.144 -0.0103  0.2773 -0.5292
 9503TIP3    H150000   6.125   6.447  13.068  0.4826  0.8133 -0.0268
 9503TIP3    H250001   6.088   6.455  13.215  0.5599 -0.2155  0.0595
 9504TIP3   OH250002   4.943   3.603  13.780 -0.3700 -0.2471  0.0981
 9504TIP3    H150003   4.977   3.548  13.709 -1.0158  0.7800 -1.0352
 9504TIP3    H250004   4.901   3.676  13.736 -0.1437  0.8095  1.5632
 9505TIP3   OH250005   3.685   4.759  14.882  0.1540 -0.1430  0.6792
 9505TIP3    H150006   3.685   4.675  14.836 -0.1342 -0.0257  0.4575
 9505TIP3    H250007   3.636   4.742  14.962  1.2318 -0.5181  1.2780
 9506TIP3   OH250008   0.368   5.639  14.062 -0.4733  0.2896  0.1710
 9506TIP3    H150009   0.427   5.589  14.006  1.0905  0.7403  1.3396
 9506TIP3    H250010   0.304   5.677  14.002  0.7291  0.2099 -1.2182
 9507TIP3   OH250011   0.448   5.225  15.062  0.3865 -0.3415 -0.2804
 9507TIP3    H150012   0.354   5.225  15.046  0.6157 -1.3130 -1.8588
 9507TIP3    H250013   0.457   5.213  15.156 -1.0574 -1.2091 -0.2372
 9508TIP3   OH250014   1.159   5.592   5.114  0.3417  0.0940 -0.0671
 9508TIP3    H150015   1.181   5.627   5.028 -0.1723  1.1519  0.2121
 9508TIP3    H250016   1.239   5.552   5.145  0.0940 -1.8365 -1.7415
 9509TIP3   OH250017   3.280   5.531  14.061 -0.5565 -0.0405  0.2079
 9509TIP3    H150018   3.310   5.441  14.075 -1.5551 -0.8463 -2.2689
 9509TIP3    H250019   3.295   5.548  13.968 -1.1372  2.0747  0.4436
 9510TIP3   OH250020   4.264   0.456  13.884  0.5275  0.5729 -0.1050
 9510TIP3    H150021   4.313   0.537  13.876  2.9415 -0.6696  0.9893
 9510TIP3    H250022   4.302   0.398  13.818  0.4803 -0.3830  0.6707
 9511TIP3   OH250023   5.458   1.768   0.333 -0.0068 -0.0128 -0.2835
 9511TIP3    H150024   5.437   1.686   0.288 -0.8060  0.0123  0.0305
 9511TIP3    H250025   5.452   1.835   0.264 -1.4365  0.0538 -0.1091
 9512TIP3   OH250026   4.192   1.379  11.467  0.0243  0.6997  0.1613
 9512TIP3    H150027   4.192   1.375  11.372 -0.7325 -1.8511  0.2081
 9512TIP3    H250028   4.174   1.471  11.487 -2.2822  0.8606 -2.1728
 9513TIP3   OH250029   1.862   2.997   1.062  0.3873 -0.2410  0.1829
 9513TIP3    H150030   1.798   2.926   1.070 -0.1822  0.3192  0.7811
 9513TIP3    H250031   1.935   2.959   1.014 -0.6249 -0.7563 -1.0129
 9514TIP3   OH250032   1.867   0.363  12.325  0.1728  0.4538 -0.4826
 9514TIP3    H150033   1.818   0.285  12.301  0.9908 -0.7029  1.3879
 9514TIP3    H250034   1.825   0.395  12.405  2.1819 -0.4008  1.0069
 9515TIP3   OH250035   5.162   0.012   0.912  0.3287  0.0637  0.0381
 9515TIP3    H150036   5.194  -0.060   0.859 -0.0825 -1.4550  1.7312
 9515TIP3    H250037   5.081  -0.022   0.952 -0.4589  1.8530  0.0642
 9516TIP3   OH250038   2.206   4.578   3.261  0.0497  0.4033 -0.1849
 9516TIP3    H150039   2.302   4.580   3.267  0.0535  0.3074 -0.2224
 9516TIP3    H250040   2.183   4.488   3.279 -0.0351  0.4310 -0.1582
 9517TIP3   OH250041   5.398   1.406   3.905  0.7197  0.8620 -0.5970
 9517TIP3    H150042   5.343   1.484   3.900  0.9245  1.0780  0.2924
 9517TIP3    H250043   5.425   1.402   3.997  2.2393  0.8031 -1.0167
 9518TIP3   OH250044   4.369   0.679   2.037  0.1270 -0.1707  0.0871
 9518TIP3    H150045   4.278   0.705   2.024 -0.0871 -1.6891 -1.9114
 9518TIP3    H250046   4.364   0.592   2.077  0.6151 -0.9680 -1.4913
 9519TIP3   OH250047   1.659   4.584   2.329  0.2330 -0.2846 -0.1158
 9519TIP3    H150048   1.728   4.615   2.388 -1.6530  1.0200  1.4977
 9519TIP3    H250049   1.606   4.661   2.310  0.3684 -0.7997 -3.0626
 9520TIP3   OH250050   4.012   4.942  14.532  0.1890  0.2976 -0.4242
 9520TIP3    H150051   4.031   4.991  14.612 -1.0624  0.7172 -0.3749
 9520TIP3    H250052   3.918   4.953  14.518  0.5672  1.1941 -2.5907
 9521TIP3   OH250053   1.013   6.236   6.511  0.0323  0.0876 -0.3715
 9521TIP3    H150054   1.046   6.189   6.434  1.5590  1.0962 -0.3804
 9521TIP3    H250055   0.931   6.276   6.482 -0.9592 -1.9600 -0.5571
 9522TIP3   OH250056   3.228   1.423  15.574  0.1652  0.0470  0.5614
 9522TIP3    H150057   3.199   1.336  15.599  1.3406 -0.8431 -1.0351
 9522TIP3    H250058   3.157   1.457  15.519  1.0766 -1.2588 -1.5333
 9523TIP3   OH250059   5.145   6.771   3.912 -0.1146  0.4164  0.2522
 9523TIP3    H150060   5.068   6.749   3.860  0.5900 -0.4657 -0.4558
 9523TIP3    H250061   5.132   6.862   3.937 -0.7987  0.6639 -0.9214
 9524TIP3   OH250062   1.269   5.165  13.240 -0.1285 -0.5115  0.1211
 9524TIP3    H150063   1.196   5.201  13.189  0.8984  2.5435  0.5909
 9524TIP3    H250064   1.273   5.220  13.318  0.6105 -2.7908  1.8142
 9525TIP3   OH250065   2.046   6.353  16.655 -0.1331  0.4904  0.1564
 9525TIP3    H150066   2.037   6.392  16.742  1.2328  0.2476  0.4355
 9525TIP3    H250067   1.989   6.276  16.657 -0.8206  1.0029  0.5127
 9526TIP3   OH250068   2.086   6.352  13.705 -0.4928 -0.7773  0.0597
 9526TIP3    H150069   2.098   6.440  13.670  2.0633 -1.5963 -1.3608
 9526TIP3    H250070   2.055   6.300  13.631  1.7823 -1.8390 -0.2120
 9527TIP3   OH250071   1.457   4.792  13.226  0.2493  0.1955  0.2986
 9527TIP3    H150072   1.543   4.824  13.197  0.5193  0.4235  1.3098
 9527TIP3    H250073   1.399   4.809  13.152  1.2054 -0.5586 -0.6419
 9528TIP3   OH250074   2.490   1.556  16.890 -0.1877 -0.2264 -0.3346
 9528TIP3    H150075   2.497   1.594  16.978 -0.1923  0.8909 -0.8040
 9528TIP3    H250076   2.487   1.461  16.905  2.6120 -0.2165  0.7103
 9529TIP3   OH250077   2.418   0.966   1.359  0.2645  0.1722  0.1084
 9529TIP3    H150078   2.413   0.921   1.275  0.8565 -0.5415  0.4460
 9529TIP3    H250079   2.511   0.989   1.368  0.3628 -0.5272  0.9572
 9530TIP3   OH250080   3.614   6.762  11.514 -0.2696  0.1680  0.0920
 9530TIP3    H150081   3.660   6.698  11.460  1.5958 -0.9154  2.7018
 9530TIP3    H250082   3.558   6.709  11.571 -0.0097  0.9758  1.1289
 9531TIP3   OH250083   4.892   2.917  11.689 -0.1466 -0.1229  0.1962
 9531TIP3    H150084   4.863   2.967  11.765  1.7460  0.7500  0.3904
 9531TIP3    H250085   4.984   2.939  11.679  0.3117 -2.2044 -0.8162
 9532TIP3   OH250086   2.922   5.797  16.213 -0.0383 -0.7056  0.7306
 9532TIP3    H150087   2.978   5.807  16.136 -0.5686 -0.7789  0.3279
 9532TIP3    H250088   2.883   5.710  16.203 -1.2279 -0.1354  0.3248
 9533TIP3   OH250089   6.622   5.746  16.851 -0.2136  0.1896 -0.5167
 9533TIP3    H150090   6.560   5.740  16.780 -0.6454  0.1313 -0.1398
 9533TIP3    H250091   6.569   5.761  16.929  0.2238 -0.0617 -0.1595
 9534TIP3   OH250092   3.371   1.771   4.917  0.1164  0.0898  0.2250
 9534TIP3    H150093   3.350   1.864   4.926 -0.9919 -0.0455 -0.7620
 9534TIP3    H250094   3.445   1.769   4.856 -0.2632  0.2990 -0.2499
 9535TIP3   OH250095   1.860   0.019   1.956 -0.4196 -0.3551 -0.2682
 9535TIP3    H150096   1.891  -0.067   1.985 -0.8198 -0.5909 -0.5405
 9535TIP3    H250097   1.777   0.002   1.912  0.6902 -0.1648 -2.5963
 9536TIP3   OH250098   6.733   4.854   3.631 -0.0130 -0.6109 -0.2823
 9536TIP3    H150099   6.733   4.822   3.541  1.3062 -0.7558 -0.2515
 9536TIP3    H250100   6.816   4.901   3.640 -1.0144  1.1504  0.2658
 9537TIP3   OH250101   5.615   0.014   2.047  0.0614 -0.4893  0.6413
 9537TIP3    H150102   5.599  -0.080   2.045  0.8578 -0.6328  0.3084
 9537TIP3    H250103   5.675   0.029   1.973 -1.6057  0.5811 -0.5693
 9538TIP3   OH250104   5.840   6.330  11.238 -0.0629  0.2112 -0.1849
 9538TIP3    H150105   5.777   6.317  11.310  1.1494  2.4943  1.4126
 9538TIP3    H250106   5.866   6.422  11.245  4.3585 -0.8364  0.0536
 9539TIP3   OH250107   4.220   3.107   3.654  0.3388  0.2271 -0.0567
 9539TIP3    H150108   4.220   3.171   3.725 -0.9191  0.8541 -0.5882
 9539TIP3    H250109   4.139   3.125   3.605  1.1685 -0.1759 -1.6469
 9540TIP3   OH250110   5.276   2.878  12.529  0.2746  0.3583 -0.0428
 9540TIP3    H150111   5.243   2.861  12.441  0.6901  0.8861 -0.3061
 9540TIP3    H250112   5.205   2.852  12.587 -0.6552  1.5795 -0.5915
 9541TIP3   OH250113   1.150   4.443   0.444 -0.5235 -0.7283 -0.0404
 9541TIP3    H150114   1.176   4.502   0.374 -1.8149  1.6909  1.3787
 9541TIP3    H250115   1.217   4.454   0.512 -0.1815 -1.7826 -0.1826
 9542TIP3   OH250116   3.991   0.976   1.474  0.2759  0.4701 -0.2689
 9542TIP3    H150117   3.987   0.911   1.404  1.1114  1.0068 -0.8326
 9542TIP3    H250118   3.902   1.010   1.481 -0.6363 -2.0422  1.3290
 9543TIP3   OH250119   4.586   2.953  12.678  0.3805  0.6309 -0.6365
 9543TIP3    H150120   4.659   3.012  12.695  0.0554  0.7812  0.2965
 9543TIP3    H250121   4.509   3.010  12.672  0.0176  0.2905  0.5996
 9544TIP3   OH250122   1.759   1.497   6.828  0.5061  0.1086  0.6266
 9544TIP3    H150123   1.681   1.507   6.774  1.3891  0.5225 -0.5974
 9544TIP3    H250124   1.774   1.402   6.832  1.1044  0.1151 -0.8744
 9545TIP3   OH250125   3.015   5.973   2.749  0.1895 -0.2773 -0.0752
 9545TIP3    H150126   3.104   5.970   2.712  0.1616 -0.8539 -0.1009
 9545TIP3    H250127   2.958   5.952   2.675 -0.0065  0.5861 -0.1771
 9546TIP3   OH250128   1.072   6.642   0.607 -0.2177  0.4622  0.7222
 9546TIP3    H150129   1.154   6.606   0.573 -0.3586  0.1727  0.6890
 9546TIP3    H250130   1.006   6.576   0.585 -0.2584  0.1069  1.8777
 9547TIP3   OH250131   0.352   5.546   3.857 -0.9815  0.0720 -0.1128
 9547TIP3    H150132   0.443   5.519   3.844 -0.4541  1.6611  0.1209
 9547TIP3    H250133   0.302   5.464   3.850  0.0823 -0.4392 -3.6111
 9548TIP3   OH250134   2.576   1.326  12.924 -0.1678 -0.3412 -0.1937
 9548TIP3    H150135   2.657   1.304  12.972  1.2419  0.3978 -2.1016
 9548TIP3    H250136   2.571   1.421  12.930 -0.4825 -0.3223 -0.7121
 9549TIP3   OH250137   3.504   4.468  14.969 -0.2649 -0.0458  0.2857
 9549TIP3    H150138   3.475   4.429  15.051  0.3310  0.0565  0.5477
 9549TIP3    H250139   3.489   4.562  14.981 -1.1790 -0.1228 -0.1347
 9550TIP3   OH250140   6.184   5.838  11.756  0.3888  0.1426 -0.3641
 9550TIP3    H150141   6.102   5.818  11.802  0.9592 -1.6426 -0.0363
 9550TIP3    H250142   6.253   5.812  11.817  1.1903  0.2393 -1.2010
 9551TIP3   OH250143   5.359   6.307  14.555 -0.0994  0.1611 -0.1918
 9551TIP3    H150144   5.423   6.346  14.495  0.6270  1.7909  1.5450
 9551TIP3    H250145   5.409   6.244  14.607 -0.5613 -0.6627 -0.7045
 9552TIP3   OH250146   4.923   3.198   2.216  0.1963 -0.0349  0.3051
 9552TIP3    H150147   4.992   3.143   2.251 -1.2823 -1.7760  0.6590
 9552TIP3    H250148   4.932   3.191   2.121 -0.1951 -1.2256  0.3415
 9553TIP3   OH250149   3.236   0.456   3.481  0.5317 -0.8264 -0.2089
 9553TIP3    H150150   3.318   0.504   3.472  0.6039 -1.2343 -2.1026
 9553TIP3    H250151   3.185   0.482   3.404 -0.5841 -1.5817  0.2560
 9554TIP3   OH250152   6.040   1.201  17.317  0.1194  0.3312  0.4661
 9554TIP3    H150153   6.041   1.193  17.413  2.3834 -0.9766  0.4127
 9554TIP3    H250154   5.965   1.147  17.290 -1.9347  2.4497  1.5093
 9555TIP3   OH250155   1.104   5.645  14.617  0.1364 -0.0762 -0.0889
 9555TIP3    H150156   1.060   5.602  14.691  0.0357 -0.6508 -0.4779
 9555TIP3    H250157   1.066   5.604  14.539 -0.5271  1.2453 -0.5026
 9556TIP3   OH250158   0.080   5.572  12.880  0.7845 -0.6378  0.0784
 9556TIP3    H150159   0.073   5.593  12.787 -1.9964 -0.6601  0.2085
 9556TIP3    H250160   0.091   5.477  12.883  1.4738 -0.5748 -0.2080
 9557TIP3   OH250161   1.507   6.182   3.238 -0.2799  0.0937 -0.0017
 9557TIP3    H150162   1.590   6.152   3.202  0.1367  1.7980 -0.5715
 9557TIP3    H250163   1.473   6.107   3.287  1.5724 -0.6457  0.2179
 9558TIP3   OH250164   3.492   2.507  16.431 -0.2650  0.1150 -0.1077
 9558TIP3    H150165   3.438   2.510  16.352  0.3267 -0.7276 -0.5652
 9558TIP3    H250166   3.541   2.425  16.424  0.5973  0.5402  0.6046
 9559TIP3   OH250167   1.033   0.853  12.948  0.0975 -0.1661 -0.1164
 9559TIP3    H150168   1.102   0.866  12.882  1.8327  0.0507  1.6261
 9559TIP3    H250169   0.951   0.861  12.900  1.2571  1.6512 -1.9544
 9560TIP3   OH250170   2.908   0.511  13.792  0.0331  0.2577 -0.0748
 9560TIP3    H150171   2.821   0.482  13.822 -0.8826  0.1182 -2.6552
 9560TIP3    H250172   2.945   0.434  13.749  0.8172  0.7503 -0.2940
 9561TIP3   OH250173   2.694   0.679  14.441  0.0379  0.2809  0.2750
 9561TIP3    H150174   2.725   0.672  14.351  1.1800  0.4657  0.6317
 9561TIP3    H250175   2.703   0.591  14.477  2.0024  0.6989  0.9284
 9562TIP3   OH250176   1.445   6.552   5.212 -0.0191  0.2922 -0.3735
 9562TIP3    H150177   1.371   6.543   5.272  0.1063  0.9016 -0.1097
 9562TIP3    H250178   1.518   6.512   5.259 -0.3737 -1.1556 -1.0316
 9563TIP3   OH250179   5.014   4.726   4.994 -0.0824  0.0919 -0.1316
 9563TIP3    H150180   4.940   4.666   4.985 -0.7894  0.3529  2.7919
 9563TIP3    H250181   4.999   4.770   5.077  1.5581  2.7662 -1.1011
 9564TIP3   OH250182   5.127   6.424  12.493 -0.3968 -0.2607 -0.6361
 9564TIP3    H150183   5.140   6.505  12.542 -0.0977 -1.4010  1.2502
 9564TIP3    H250184   5.212   6.405  12.454 -0.1174 -0.3575  0.0194
 9565TIP3   OH250185   0.817   3.155  15.002  0.7199 -0.3382 -0.5355
 9565TIP3    H150186   0.738   3.132  14.952  1.1675  0.1025 -1.4531
 9565TIP3    H250187   0.787   3.220  15.065  0.0868 -1.1214  0.0021
 9566TIP3   OH250188   1.622   1.329   0.520 -0.2574  0.5908  0.1915
 9566TIP3    H150189   1.688   1.396   0.540 -0.4843  1.8148 -2.6687
 9566TIP3    H250190   1.543   1.379   0.502 -0.3059 -0.3121 -2.5501
 9567TIP3   OH250191   1.436   0.658  11.695  0.1520 -0.1197 -0.0710
 9567TIP3    H150192   1.382   0.654  11.774 -0.1004  0.7229 -0.1916
 9567TIP3    H250193   1.484   0.575  11.695  1.6755  0.6726  2.0393
 9568TIP3   OH250194   1.286   3.975  12.393  0.1256  0.0143  0.0724
 9568TIP3    H150195   1.244   3.914  12.453  0.9385 -0.2349  0.3959
 9568TIP3    H250196   1.275   3.935  12.306  1.2393 -0.9508  0.3518
 9569TIP3   OH250197   1.668   4.070  14.485 -0.4928  0.2076  0.6837
 9569TIP3    H150198   1.692   3.983  14.454 -0.7951  0.1202  0.6877
 9569TIP3    H250199   1.604   4.054  14.555  1.2562  0.3463  2.3830
 9570TIP3   OH250200   4.361   1.727   1.972 -0.1658  0.0697 -0.2275
 9570TIP3    H150201   4.277   1.689   1.947  0.1162 -0.6187 -0.1486
 9570TIP3    H250202   4.361   1.814   1.933 -0.9044  0.0653 -0.2505
 9571TIP3   OH250203   5.301   6.004   6.481 -0.0846  0.3013 -0.3491
 9571TIP3    H150204   5.395   6.018   6.486 -0.4857  3.4504  0.4960
 9571TIP3    H250205   5.270   6.013   6.571 -1.4661  2.2432 -0.9620
 9572TIP3   OH250206   3.117   2.197  11.559 -0.2352  0.4085  0.0833
 9572TIP3    H150207   3.186   2.166  11.618 -0.4146  0.0610  0.1141
 9572TIP3    H250208   3.054   2.242  11.616 -0.4096  0.0709  0.1590
 9573TIP3   OH250209   6.728   6.386  16.653 -0.2702  0.4726 -0.4022
 9573TIP3    H150210   6.743   6.344  16.738  1.3042  0.2248 -0.7609
 9573TIP3    H250211   6.726   6.480  16.674 -0.8876  0.3645  0.0336
 9574TIP3   OH250212   6.751   3.816  12.704 -0.2534  0.5499  0.2937
 9574TIP3    H150213   6.688   3.842  12.772  0.4613 -2.5099  2.3088
 9574TIP3    H250214   6.832   3.800  12.751  0.6203 -0.5369 -1.4927
 9575TIP3   OH250215   0.423   0.520  11.783  0.1904 -0.1554 -0.0555
 9575TIP3    H150216   0.496   0.461  11.800  0.3085  0.1140  0.3795
 9575TIP3    H250217   0.414   0.571  11.863  0.6150  0.9752 -0.6990
 9576TIP3   OH250218   6.207   2.949   4.116  0.1332  0.0741  0.7737
 9576TIP3    H150219   6.134   2.917   4.063  1.6576 -1.0584 -0.8127
 9576TIP3    H250220   6.169   3.011   4.177 -2.0486 -0.0939 -0.3434
 9577TIP3   OH250221   3.446   4.255  15.616  0.2464  0.3088  0.3693
 9577TIP3    H150222   3.522   4.238  15.671 -0.7042 -2.0615  1.0878
 9577TIP3    H250223   3.415   4.169  15.590 -0.1571  1.2891 -2.8579
 9578TIP3   OH250224   0.812   3.333  11.474  0.4511 -0.4680 -0.1746
 9578TIP3    H150225   0.828   3.289  11.390 -0.8776 -1.2585 -0.0420
 9578TIP3    H250226   0.805   3.262  11.537 -0.7534 -0.0104  0.2211
 9579TIP3   OH250227   4.709   2.086  14.984 -0.0083 -0.0909 -0.2842
 9579TIP3    H150228   4.750   2.003  15.010 -1.8775 -1.9351 -2.7453
 9579TIP3    H250229   4.771   2.125  14.923  1.4716  1.0851  1.8429
 9580TIP3   OH250230   2.372   5.870  16.657  0.1224  0.3929  0.4917
 9580TIP3    H150231   2.342   5.780  16.648 -2.4756  1.3075 -1.1350
 9580TIP3    H250232   2.404   5.894  16.570  3.1196  0.3968  1.4763
 9581TIP3   OH250233   2.851   3.765   2.903  0.3417 -0.1149  0.0314
 9581TIP3    H150234   2.774   3.752   2.959  1.2340 -2.3762  0.8465
 9581TIP3    H250235   2.911   3.817   2.957  0.5710 -0.9599  0.6228
 9582TIP3   OH250236   6.068   6.792   4.222  0.1104  0.0753 -0.2164
 9582TIP3    H150237   6.091   6.883   4.205  1.2008  0.5708  3.1609
 9582TIP3    H250238   6.140   6.742   4.184  2.0579  1.0300  1.9888
 9583TIP3   OH250239   1.393   3.482  12.710 -0.3602 -0.0675 -0.3896
 9583TIP3    H150240   1.352   3.433  12.639  0.3588  0.7571 -1.3926
 9583TIP3    H250241   1.353   3.568  12.706 -1.4724 -0.4719  1.2412
 9584TIP3   OH250242   1.599   3.544   0.556 -0.6483 -0.0686 -0.2870
 9584TIP3    H150243   1.541   3.620   0.556  1.9642  2.1300  1.7687
 9584TIP3    H250244   1.639   3.543   0.469 -3.0795 -1.2003 -1.4765
 9585TIP3   OH250245   3.237   0.962  13.783 -0.0057 -0.0355  0.1523
 9585TIP3    H150246   3.321   0.916  13.775 -0.1256 -0.3113  0.4825
 9585TIP3    H250247   3.200   0.959  13.695 -1.4586 -3.3054  0.7435
 9586TIP3   OH250248   5.861   4.642  10.997 -0.4083  0.2337 -0.4721
 9586TIP3    H150249   5.931   4.706  10.987 -0.8342  0.5742 -1.3375
 9586TIP3    H250250   5.903   4.558  10.977 -0.1507  0.3891 -0.5902
 9587TIP3   OH250251   3.939   0.137  11.926 -0.3047 -0.0355  0.2827
 9587TIP3    H150252   3.983   0.083  11.861  0.5059  0.6762  0.2184
 9587TIP3    H250253   3.861   0.171  11.880 -0.1852 -0.2038 -0.0452
 9588TIP3   OH250254   2.274   5.113   2.833  0.5219  0.3082  0.0048
 9588TIP3    H150255   2.243   5.161   2.910  1.2526 -0.0082  0.5065
 9588TIP3    H250256   2.345   5.058   2.866  0.9625  0.2995 -0.9338
 9589TIP3   OH250257   4.380   5.275   1.272 -0.5536 -0.4707 -0.6103
 9589TIP3    H150258   4.431   5.348   1.237  1.7540 -1.8357 -0.3165
 9589TIP3    H250259   4.413   5.199   1.224 -1.6095 -1.5502  0.3396
 9590TIP3   OH250260   4.193   0.613  10.548  0.2784  0.0599 -0.6570
 9590TIP3    H150261   4.207   0.548  10.617  0.7489  0.6587 -0.1821
 9590TIP3    H250262   4.193   0.697  10.593 -0.9346  0.3686 -1.1782
 9591TIP3   OH250263   2.047   1.804  15.712  0.0958  0.2025 -0.0307
 9591TIP3    H150264   2.109   1.874  15.731  1.1979  0.2954 -3.3719
 9591TIP3    H250265   1.965   1.833  15.751  0.2853  3.8166 -1.9447
 9592TIP3   OH250266   6.304   6.396   3.394 -0.0653 -0.0438  0.5897
 9592TIP3    H150267   6.369   6.329   3.378  0.6702  0.9178 -0.6934
 9592TIP3    H250268   6.350   6.464   3.443 -0.2627  0.3495  0.2458
 9593TIP3   OH250269   0.909   4.447  15.047  0.1345 -0.1171  0.1539
 9593TIP3    H150270   0.899   4.541  15.059  1.9725  0.1620 -0.0948
 9593TIP3    H250271   0.953   4.439  14.962 -1.3600 -1.3049 -0.5453
 9594TIP3   OH250272   1.588   0.925  10.852 -0.0655 -0.5343  0.2468
 9594TIP3    H150273   1.567   0.835  10.825 -0.2886  0.3377 -2.9350
 9594TIP3    H250274   1.641   0.959  10.780 -1.1598  2.3298  0.6895
 9595TIP3   OH250275   0.889   5.545  11.977  0.5627 -0.3735  0.0745
 9595TIP3    H150276   0.972   5.544  11.929 -0.0255 -1.5625 -0.9879
 9595TIP3    H250277   0.885   5.458  12.018  0.2836  0.0343  0.9243
 9596TIP3   OH250278   5.686   6.520   3.191  0.0063 -0.3050  0.7927
 9596TIP3    H150279   5.760   6.478   3.147 -0.7171  0.0834 -0.8416
 9596TIP3    H250280   5.721   6.604   3.221  0.1592  0.0446 -0.3061
 9597TIP3   OH250281   3.176   3.510   6.173  0.1355 -0.3033 -0.3032
 9597TIP3    H150282   3.169   3.418   6.148 -0.5232 -0.6083  0.9616
 9597TIP3    H250283   3.207   3.508   6.264 -1.4975  0.6649  0.3168
 9598TIP3   OH250284   1.058   0.679   3.982  0.1565 -0.2129  0.1817
 9598TIP3    H150285   1.081   0.772   3.975 -1.8901  0.2869 -0.6411
 9598TIP3    H250286   1.089   0.641   3.900 -1.3514  0.3424 -0.6841
 9599TIP3   OH250287   5.957   5.116  12.810  0.1873  0.3318  0.1997
 9599TIP3    H150288   5.880   5.110  12.867  0.5421  2.3755  0.9705
 9599TIP3    H250289   5.924   5.095  12.723 -1.3916  1.7030  0.4193
 9600TIP3   OH250290   1.693   4.816   5.307 -0.2008 -0.0430  0.1450
 9600TIP3    H150291   1.618   4.805   5.365  0.3506 -1.8348  0.5903
 9600TIP3    H250292   1.660   4.795   5.220 -0.2947 -0.5960  0.3066
 9601TIP3   OH250293   5.727   5.055  14.697 -0.0948  0.5835  0.1217
 9601TIP3    H150294   5.732   5.052  14.793  1.6685 -1.4507  0.0417
 9601TIP3    H250295   5.672   4.981  14.673  0.9049  0.0094 -0.4731
 9602TIP3   OH250296   1.664   5.766  13.303  0.1194 -0.2926 -0.1893
 9602TIP3    H150297   1.679   5.821  13.226 -3.4949 -0.8223 -1.4514
 9602TIP3    H250298   1.618   5.689  13.269  0.0899 -1.4800  2.2813
 9603TIP3   OH250299   5.647   5.289  16.192 -0.2838 -0.2263  0.2615
 9603TIP3    H150300   5.653   5.201  16.228 -0.6856 -0.3005  0.1581
 9603TIP3    H250301   5.581   5.283  16.123  2.7951 -0.8532 -2.9123
 9604TIP3   OH250302   5.734   4.599   4.573  0.6007 -0.1561  0.2197
 9604TIP3    H150303   5.784   4.521   4.548 -1.1955 -1.0476 -0.8720
 9604TIP3    H250304   5.643   4.571   4.567 -0.0925  1.9465  0.1505
 9605TIP3   OH250305   2.838   3.527  15.020 -0.8792 -0.4092 -0.0082
 9605TIP3    H150306   2.894   3.488  15.087 -0.5559 -2.7325 -1.4849
 9605TIP3    H250307   2.769   3.570  15.069  0.1243 -0.7690  1.8265
 9606TIP3   OH250308   6.758   0.567   4.380 -0.1656  0.2246 -0.1091
 9606TIP3    H150309   6.690   0.542   4.443 -0.8669 -1.0433 -1.3149
 9606TIP3    H250310   6.719   0.638   4.329 -0.5609 -0.4312 -0.7313
 9607TIP3   OH250311   1.387   0.780   0.367  0.2939 -0.2894  0.0727
 9607TIP3    H150312   1.316   0.717   0.359 -1.2497  1.4250 -0.4807
 9607TIP3    H250313   1.423   0.765   0.454 -1.1104 -0.8516  0.5784
 9608TIP3   OH250314   0.153   6.288  12.100  0.0580 -0.6509  0.9129
 9608TIP3    H150315   0.071   6.238  12.111 -1.0100  1.2193  2.0847
 9608TIP3    H250316   0.194   6.284  12.186  0.1981  0.0746  0.8788
 9609TIP3   OH250317   5.289   3.202  14.041 -0.4251 -0.1411 -0.4632
 9609TIP3    H150318   5.227   3.157  13.984 -1.4444  0.9121 -0.2389
 9609TIP3    H250319   5.272   3.295  14.025  1.8612  0.2262 -1.2009
 9610TIP3   OH250320   3.778   4.858  11.776 -0.4744  0.6345 -0.8134
 9610TIP3    H150321   3.706   4.914  11.805 -1.4105  0.5596 -2.7865
 9610TIP3    H250322   3.764   4.775  11.822  0.0936  1.5085  1.0354
 9611TIP3   OH250323   1.769   5.454  16.798 -0.2668  0.3416  0.0702
 9611TIP3    H150324   1.862   5.445  16.777 -0.6318 -1.7228 -0.8918
 9611TIP3    H250325   1.766   5.522  16.865  2.0337 -0.1474  0.7581
 9612TIP3   OH250326   5.638   6.487  17.130  0.3822  0.2020 -0.1329
 9612TIP3    H150327   5.579   6.536  17.072  0.0974  0.6379  0.5158
 9612TIP3    H250328   5.623   6.524  17.216  0.1204 -1.0784  0.3912
 9613TIP3   OH250329   3.185   3.210   1.712  0.4835 -0.0299 -0.3170
 9613TIP3    H150330   3.260   3.151   1.715 -0.0826 -0.7534 -0.1142
 9613TIP3    H250331   3.223   3.297   1.698  1.3479 -0.3961 -0.2835
 9614TIP3   OH250332   2.369   1.331  13.451  0.3907  0.3168 -0.0771
 9614TIP3    H150333   2.340   1.420  13.434  1.2930  0.3393 -1.6549
 9614TIP3    H250334   2.289   1.279  13.452  0.0082  0.8671 -1.0477
 9615TIP3   OH250335   4.922   4.144  13.435  0.0131 -0.0621  0.3005
 9615TIP3    H150336   4.978   4.216  13.406 -0.6720  0.2204 -0.3407
 9615TIP3    H250337   4.978   4.066  13.427  0.5870  0.3175  0.4974
 9616TIP3   OH250338   4.942   3.640   4.941 -0.1384  0.5950 -0.4816
 9616TIP3    H150339   4.968   3.561   4.893  1.2624  0.3898  0.5246
 9616TIP3    H250340   5.025   3.679   4.967 -0.8337  0.8032  1.5622
 9617TIP3   OH250341   6.616   5.638  15.237  0.1629 -0.2479  0.4899
 9617TIP3    H150342   6.711   5.638  15.226  0.3244  0.0606  1.8000
 9617TIP3    H250343   6.590   5.548  15.216  0.6439 -0.1549 -0.5759
 9618TIP3   OH250344   0.700   0.845   0.272 -0.6137 -0.1421  0.1975
 9618TIP3    H150345   0.613   0.828   0.234 -0.5664 -0.6575  0.3150
 9618TIP3    H250346   0.683   0.911   0.339 -1.2420 -1.5450  1.4893
 9619TIP3   OH250347   0.125   3.084  15.416  0.2247  0.1386  0.1970
 9619TIP3    H150348   0.093   3.072  15.327 -0.6070  1.8563  0.2102
 9619TIP3    H250349   0.151   2.997  15.445 -3.4865 -1.2950 -0.2091
 9620TIP3   OH250350   2.617   0.151   4.373  0.0412 -0.0693  0.4087
 9620TIP3    H150351   2.647   0.154   4.283 -0.9253  1.8207  0.1014
 9620TIP3    H250352   2.649   0.068   4.406 -0.0263 -1.0528 -1.8264
 9621TIP3   OH250353   6.556   0.160  13.656 -0.1462 -0.4001 -0.0450
 9621TIP3    H150354   6.545   0.070  13.627  0.9081 -1.4313  2.4295
 9621TIP3    H250355   6.484   0.174  13.718 -0.8610  0.8437 -1.0916
 9622TIP3   OH250356   1.762   1.579   0.502 -0.1478  0.2363 -0.5836
 9622TIP3    H150357   1.840   1.577   0.446 -0.6911  0.3333 -1.3566
 9622TIP3    H250358   1.707   1.648   0.464  1.2278  3.2756  2.4562
 9623TIP3   OH250359   5.045   4.324   6.504 -0.1422 -0.2049 -0.3192
 9623TIP3    H150360   5.104   4.332   6.579  0.1775  0.4211 -0.6257
 9623TIP3    H250361   5.103   4.313   6.429 -0.4462 -0.3550 -0.5343
 9624TIP3   OH250362   3.113   1.244   1.364  0.6088  0.6435  0.3035
 9624TIP3    H150363   3.179   1.275   1.427 -0.2018  0.2674  1.3626
 9624TIP3    H250364   3.037   1.224   1.417  0.0350 -0.0846 -0.7659
 9625TIP3   OH250365   4.020   6.343   5.700  0.0140  0.1500  0.6279
 9625TIP3    H150366   3.988   6.254   5.686  0.0008  0.3573 -0.8133
 9625TIP3    H250367   4.112   6.332   5.721 -0.0690 -0.2231  0.8101
 9626TIP3   OH250368   1.380   4.924  10.507  0.3954  0.0181 -0.1185
 9626TIP3    H150369   1.375   5.006  10.557 -0.3645 -0.5799  0.7992
 9626TIP3    H250370   1.309   4.871  10.541 -0.9636  0.0526 -2.7006
 9627TIP3   OH250371   2.140   6.285  17.157 -0.5135 -0.0273  0.0523
 9627TIP3    H150372   2.050   6.295  17.190 -1.6885 -2.3347 -2.0883
 9627TIP3    H250373   2.154   6.361  17.100 -0.6741  0.8831  1.1928
 9628TIP3   OH250374   0.546   5.398   3.725 -0.2090  0.2272 -0.2389
 9628TIP3    H150375   0.515   5.308   3.730 -0.2775  0.1233 -2.0704
 9628TIP3    H250376   0.550   5.418   3.632 -0.0531  2.0820  0.1168
 9629TIP3   OH250377   1.208   5.024   0.446  0.4489 -0.5348 -0.0822
 9629TIP3    H150378   1.237   4.972   0.521 -2.6313 -1.1633  0.8516
 9629TIP3    H250379   1.266   5.100   0.446  2.0032 -1.6309  1.5142
 9630TIP3   OH250380   3.902   1.818  12.524 -0.1963 -0.5406 -0.2125
 9630TIP3    H150381   3.815   1.779  12.523  0.9498 -3.2986 -1.4669
 9630TIP3    H250382   3.961   1.745  12.544  1.9195  1.0782 -0.2254
 9631TIP3   OH250383   3.224   2.924  11.424  0.2548  0.2299  0.4373
 9631TIP3    H150384   3.283   2.864  11.378  0.3038  0.5612  0.0576
 9631TIP3    H250385   3.167   2.958  11.355 -0.0921  0.2508  0.7299
 9632TIP3   OH250386   0.851   2.662  13.532 -0.0908 -0.0228  0.4227
 9632TIP3    H150387   0.875   2.716  13.607 -0.0041 -1.2690  1.3137
 9632TIP3    H250388   0.822   2.579  13.570 -1.5545 -0.1339 -0.8456
 9633TIP3   OH250389   0.011   4.481   4.931  0.1799  0.2080 -0.6107
 9633TIP3    H150390   0.046   4.397   4.959  0.5569  0.2035 -1.0990
 9633TIP3    H250391  -0.023   4.466   4.843 -2.5014 -0.1987  0.3872
 9634TIP3   OH250392   3.894   3.369   5.626 -0.3240 -0.2367 -0.3839
 9634TIP3    H150393   3.862   3.380   5.536 -0.8086  0.1363 -0.1769
 9634TIP3    H250394   3.827   3.412   5.680 -0.1229 -0.6020  0.1669
 9635TIP3   OH250395   4.558   6.666   1.374 -0.1424 -0.5100  0.2738
 9635TIP3    H150396   4.612   6.622   1.308 -0.5976 -1.4259  0.5004
 9635TIP3    H250397   4.561   6.608   1.450 -0.5884 -0.0437  0.6540
 9636TIP3   OH250398   0.917   5.494   0.999 -0.3500  0.5457 -0.3685
 9636TIP3    H150399   0.897   5.480   0.906 -0.4550  1.1183 -0.4400
 9636TIP3    H250400   0.880   5.419   1.044 -0.4181  0.3335 -0.7782
 9637TIP3   OH250401   2.864   2.001   2.938 -0.0720 -0.3062  0.0948
 9637TIP3    H150402   2.821   2.003   3.023 -0.3122 -1.1014  0.0007
 9637TIP3    H250403   2.947   1.955   2.954 -0.2316 -0.6797 -0.1507
 9638TIP3   OH250404   5.309   1.067  13.021 -0.3483  0.0299  0.5765
 9638TIP3    H150405   5.378   1.022  13.069  0.5840  1.4543  0.6363
 9638TIP3    H250406   5.285   1.141  13.076 -0.8226  0.4367 -0.1517
 9639TIP3   OH250407   4.343   2.374  11.134  0.7259  0.3481 -0.2058
 9639TIP3    H150408   4.265   2.348  11.086  0.5908 -0.8862  0.6206
 9639TIP3    H250409   4.337   2.469  11.142 -0.4347  0.3164 -0.5679
 9640TIP3   OH250410   6.763   6.515  11.157  0.3132 -0.0860  0.1591
 9640TIP3    H150411   6.772   6.528  11.063  2.7445  0.5844  0.4234
 9640TIP3    H250412   6.728   6.598  11.190  0.6354  0.1170 -0.0113
 9641TIP3   OH250413   6.284   1.984   3.439  0.7403  0.7437  0.7288
 9641TIP3    H150414   6.312   1.909   3.387  0.4977 -0.2076  1.9352
 9641TIP3    H250415   6.191   1.967   3.457  0.4860  1.7058  0.4032
 9642TIP3   OH250416   6.169   2.172  16.664 -0.5210  0.0240  0.8651
 9642TIP3    H150417   6.136   2.084  16.642 -1.6482  0.9964 -1.7841
 9642TIP3    H250418   6.090   2.227  16.665  0.4078  1.4714 -0.3726
 9643TIP3   OH250419   3.586   4.080  15.207  0.0556 -0.6078 -0.6201
 9643TIP3    H150420   3.515   4.017  15.223  0.3828 -0.8654 -0.1802
 9643TIP3    H250421   3.555   4.161  15.246  0.5813 -1.0697  0.8048
 9644TIP3   OH250422   5.731   1.492  11.837 -0.2784  0.1045 -0.5741
 9644TIP3    H150423   5.703   1.577  11.803 -2.3104 -0.0702  0.5108
 9644TIP3    H250424   5.650   1.449  11.865  0.7344 -2.0329 -0.6871
 9645TIP3   OH250425   4.368   4.754  14.703 -0.3843 -0.0726  0.7706
 9645TIP3    H150426   4.389   4.668  14.738  0.6085  0.0780  0.5665
 9645TIP3    H250427   4.346   4.738  14.611  0.1302 -0.0704  0.6447
 9646TIP3   OH250428   3.553   0.851  16.040 -0.0554 -0.2450  0.5839
 9646TIP3    H150429   3.623   0.906  16.005  0.4198  0.1362  2.0743
 9646TIP3    H250430   3.474   0.904  16.030  0.1321  0.0189  0.4864
 9647TIP3   OH250431   3.903   5.921  16.073 -0.3202 -0.4581  0.8265
 9647TIP3    H150432   3.899   5.906  15.978  0.5147 -1.5919  0.9538
 9647TIP3    H250433   3.817   5.893  16.105 -0.8679  0.6019  0.3327
 9648TIP3   OH250434   6.088   2.567  16.587 -0.0706 -0.4064  0.2598
 9648TIP3    H150435   6.063   2.634  16.651  0.1497 -1.2093  1.2300
 9648TIP3    H250436   6.020   2.571  16.520 -0.4637  0.2822  0.6851
 9649TIP3   OH250437   5.040   3.408   4.808  0.3908 -0.1185 -0.1493
 9649TIP3    H150438   5.028   3.355   4.887 -0.2401  0.1810 -0.0401
 9649TIP3    H250439   5.132   3.395   4.785  0.3088 -1.0661  0.0083
 9650TIP3   OH250440   5.664   1.188   3.706 -0.4737 -0.0653  0.2501
 9650TIP3    H150441   5.632   1.103   3.736 -0.5232 -0.4028 -0.7365
 9650TIP3    H250442   5.627   1.199   3.619  0.4798  0.4408 -0.1062
 9651TIP3   OH250443   6.635   0.896  12.426  0.1117  0.2156  0.2140
 9651TIP3    H150444   6.702   0.929  12.486  0.9335  0.5623 -0.8811
 9651TIP3    H250445   6.663   0.806  12.406 -0.1198  0.1268  0.2863
 9652TIP3   OH250446   6.437   5.694  16.395  0.1626  0.1268 -0.4698
 9652TIP3    H150447   6.510   5.634  16.381  0.2339  0.1963 -0.4011
 9652TIP3    H250448   6.361   5.638  16.409 -0.0365  0.0459 -1.7623
 9653TIP3   OH250449   4.407   3.987  14.407 -0.2490 -0.1836  0.1163
 9653TIP3    H150450   4.468   3.935  14.355  1.1526 -1.0461  2.4883
 9653TIP3    H250451   4.353   3.923  14.453 -1.1937  0.5528  0.0779
 9654TIP3   OH250452   6.528   1.883  16.161 -0.2738  0.3251 -0.1364
 9654TIP3    H150453   6.573   1.927  16.089 -0.0297  0.8598  0.3321
 9654TIP3    H250454   6.599   1.848  16.216 -0.4616 -0.3352 -0.3090
 9655TIP3   OH250455   5.626   2.057   1.530  0.4385 -0.3362 -0.2181
 9655TIP3    H150456   5.694   2.004   1.488  0.2956 -1.7637  1.2635
 9655TIP3    H250457   5.671   2.100   1.602 -0.2809 -1.7518  1.1415
 9656TIP3   OH250458   4.072   4.446   3.743 -0.4424  0.4283 -0.1965
 9656TIP3    H150459   4.059   4.380   3.675 -1.6775  1.0069 -0.5550
 9656TIP3    H250460   4.120   4.401   3.812 -1.2323 -0.8420 -0.4459
 9657TIP3   OH250461   4.903   5.484  15.763 -0.3202  0.4651  0.5372
 9657TIP3    H150462   4.827   5.542  15.762 -1.2974 -0.7768 -0.4280
 9657TIP3    H250463   4.967   5.529  15.819 -1.7811  1.4922  1.4457
 9658TIP3   OH250464   5.949   0.914  13.349  0.0742  0.2868 -0.6346
 9658TIP3    H150465   5.939   1.007  13.367 -1.1288  0.3191 -1.3103
 9658TIP3    H250466   6.021   0.885  13.404  0.8018  1.7265 -0.8066
 9659TIP3   OH250467   4.998   1.382   6.367 -0.5169 -0.3077  0.4621
 9659TIP3    H150468   5.006   1.393   6.462  0.9361  0.7226  0.2464
 9659TIP3    H250469   5.035   1.462   6.330  2.4536 -2.1936 -1.0481
 9660TIP3   OH250470   4.928   6.340  16.536 -0.8415  0.2176  0.7739
 9660TIP3    H150471   4.976   6.309  16.459  1.1424  1.5455  1.3884
 9660TIP3    H250472   4.841   6.361  16.503 -0.0573  0.6893 -1.1368
 9661TIP3   OH250473   0.824   4.579  14.366  0.3796  0.6847  0.7171
 9661TIP3    H150474   0.842   4.663  14.323 -1.0608  0.6395 -0.0204
 9661TIP3    H250475   0.754   4.598  14.428  0.2405  0.0794  0.7489
 9662TIP3   OH250476   1.506   3.754  16.500  0.2186 -0.3456 -0.1254
 9662TIP3    H150477   1.595   3.779  16.525  0.3793  0.6174 -1.5235
 9662TIP3    H250478   1.458   3.837  16.498  0.4167 -0.1434 -3.5376
 9663TIP3   OH250479   2.120   1.617   3.856  0.2127  0.0884 -0.2502
 9663TIP3    H150480   2.028   1.637   3.876  0.2236 -0.7284  0.6967
 9663TIP3    H250481   2.119   1.525   3.828  0.6854  0.2156 -0.7069
 9664TIP3   OH250482   0.072   0.601  10.625 -0.5308  0.0353 -0.6689
 9664TIP3    H150483   0.000   0.634  10.679 -1.6026 -2.9061 -0.0965
 9664TIP3    H250484   0.112   0.532  10.678  0.4908 -0.7369 -2.3688
 9665TIP3   OH250485   2.376   0.377   6.038 -0.2845 -0.1003 -0.1742
 9665TIP3    H150486   2.375   0.358   6.132 -0.4090  0.1290 -0.1274
 9665TIP3    H250487   2.350   0.295   5.996 -2.6943  0.4251  0.1193
 9666TIP3   OH250488   3.349   6.424   2.665 -0.2222 -0.1324 -0.2711
 9666TIP3    H150489   3.347   6.371   2.585  1.9353 -0.1050 -0.3976
 9666TIP3    H250490   3.264   6.408   2.707 -1.0193 -0.8835 -2.0768
 9667TIP3   OH250491   6.092   6.358   4.313  0.0743 -0.4977  0.1835
 9667TIP3    H150492   6.026   6.334   4.378  0.3641 -0.6186  0.4377
 9667TIP3    H250493   6.138   6.432   4.352  0.3186 -0.6393  0.1666
 9668TIP3   OH250494   5.886   6.658  12.053  0.6934 -0.0302 -0.4369
 9668TIP3    H150495   5.859   6.604  11.979  2.4149 -0.4087 -0.8363
 9668TIP3    H250496   5.909   6.743  12.014  0.1895  0.2554 -0.1257
 9669TIP3   OH250497   6.763   2.691   3.816  0.8246  0.5217 -0.5171
 9669TIP3    H150498   6.809   2.775   3.816  2.6893 -0.4405 -0.0606
 9669TIP3    H250499   6.825   2.629   3.855 -1.0207 -0.8125  0.4615
 9670TIP3   OH250500   4.149   0.582  12.289  0.5688 -0.1410  0.4086
 9670TIP3    H150501   4.147   0.594  12.194  1.9706  2.3439  0.6093
 9670TIP3    H250502   4.058   0.564  12.313 -0.1300  0.9538 -1.2391
 9671TIP3   OH250503   0.411   3.167   4.489 -0.0348 -0.0243  0.2727
 9671TIP3    H150504   0.390   3.074   4.479 -1.6280  0.3465 -0.0953
 9671TIP3    H250505   0.426   3.197   4.400  0.3560  0.1064  0.3811
 9672TIP3   OH250506   4.951   6.562  13.369  0.4285  0.5413 -0.5948
 9672TIP3    H150507   5.002   6.513  13.305  2.3726  1.7829 -0.0799
 9672TIP3    H250508   5.003   6.560  13.449 -2.4794 -2.0175  1.4889
 9673TIP3   OH250509   6.550   2.159   6.604  0.7584  0.2490  0.3076
 9673TIP3    H150510   6.518   2.186   6.518  0.0499 -0.1275  0.4425
 9673TIP3    H250511   6.590   2.237   6.640  1.0777  0.4087 -0.3725
 9674TIP3   OH250512   2.969   5.459  13.550  0.0930  1.0914 -0.4639
 9674TIP3    H150513   3.030   5.418  13.612  0.4504  0.6205 -1.1196
 9674TIP3    H250514   2.954   5.547  13.586  0.7570  1.0280 -0.0189
 9675TIP3   OH250515   2.684   6.113  16.560 -0.6406 -0.1943  0.1559
 9675TIP3    H150516   2.674   6.144  16.470  0.3161  0.3131  0.2138
 9675TIP3    H250517   2.777   6.090  16.567 -1.1776 -2.5526  0.2889
 9676TIP3   OH250518   5.114   1.896   3.872 -0.1357 -0.2792 -0.3579
 9676TIP3    H150519   5.140   1.812   3.834 -1.3143  0.1249 -2.1545
 9676TIP3    H250520   5.024   1.910   3.842  0.6943  2.5804 -1.9311
 9677TIP3   OH250521   1.921   6.247   3.000  0.8651 -0.6220 -0.6719
 9677TIP3    H150522   1.962   6.331   3.023  0.2082 -0.9252  1.8772
 9677TIP3    H250523   1.993   6.185   2.999  1.0520 -0.4147 -0.3221
 9678TIP3   OH250524   0.630   1.932   3.776 -0.2306 -0.1855 -0.2585
 9678TIP3    H150525   0.613   1.949   3.869 -0.9550 -1.2692 -0.1737
 9678TIP3    H250526   0.647   2.019   3.739 -2.2563  0.5714  0.4334
 9679TIP3   OH250527   6.387   6.169  15.208 -0.2646 -0.0952 -0.2950
 9679TIP3    H150528   6.456   6.180  15.143 -0.1531 -0.0131 -0.1634
 9679TIP3    H250529   6.425   6.202  15.290 -1.1470  1.9138 -0.6232
 9680TIP3   OH250530   1.878   2.042  15.153 -0.2878 -0.3838 -0.2056
 9680TIP3    H150531   1.934   2.084  15.088  3.0350 -1.2212  1.8089
 9680TIP3    H250532   1.880   1.949  15.130 -2.6159 -0.2321 -1.2259
 9681TIP3   OH250533   5.974   0.037   2.008  0.4073 -0.2438 -0.0384
 9681TIP3    H150534   5.950   0.016   2.099  2.5666 -0.6468  0.4852
 9681TIP3    H250535   5.891   0.059   1.966 -0.5964  0.3944  2.1437
 9682TIP3   OH250536   2.644   4.518   1.292 -0.5140  0.3640 -0.6567
 9682TIP3    H150537   2.621   4.460   1.366 -0.3761 -0.6675 -1.4052
 9682TIP3    H250538   2.671   4.458   1.223  1.1759  1.4106 -0.9353
 9683TIP3   OH250539   3.453   2.256   2.069 -0.0656 -0.0975  0.1762
 9683TIP3    H150540   3.390   2.243   2.139  0.3961  1.9162  1.0200
 9683TIP3    H250541   3.516   2.184   2.081 -1.8778 -1.8794 -0.4269
 9684TIP3   OH250542   5.819   2.500   3.529 -0.1607 -0.2990  0.3803
 9684TIP3    H150543   5.790   2.574   3.476 -0.6757  1.2315  2.6669
 9684TIP3    H250544   5.879   2.538   3.592  0.6406 -2.1021  0.7808
 9685TIP3   OH250545   2.763   2.797  14.283  0.7551 -0.0035 -0.0341
 9685TIP3    H150546   2.827   2.829  14.219  2.6255 -0.7992  1.3401
 9685TIP3    H250547   2.787   2.706  14.298 -1.5424 -0.7343 -0.3887
 9686TIP3   OH250548   1.674   0.571   0.808 -0.3662  0.4922  0.3773
 9686TIP3    H150549   1.704   0.654   0.845 -0.4867 -0.5290  2.9572
 9686TIP3    H250550   1.753   0.531   0.771 -0.2800  1.6270 -0.7523
 9687TIP3   OH250551   1.646   2.104   2.303  0.0577  0.5574 -0.1128
 9687TIP3    H150552   1.591   2.148   2.368  1.2267  2.5742 -0.3962
 9687TIP3    H250553   1.610   2.132   2.219  0.5578  0.6394 -0.3031
 9688TIP3   OH250554   1.263   3.698   4.871  0.4690 -0.3508 -0.1714
 9688TIP3    H150555   1.276   3.752   4.949  1.4510 -0.8970  0.0600
 9688TIP3    H250556   1.197   3.633   4.897  0.0877  0.0544 -0.1120
 9689TIP3   OH250557   5.245   1.723  11.919  0.6564 -0.3610  0.0152
 9689TIP3    H150558   5.159   1.692  11.949  0.9347 -1.0144  0.1622
 9689TIP3    H250559   5.282   1.649  11.871  0.6014  0.3657 -1.1820
 9690TIP3   OH250560   6.695   4.665   0.365  0.2673 -0.6817 -0.4159
 9690TIP3    H150561   6.736   4.579   0.355  0.5250 -0.3368 -3.2703
 9690TIP3    H250562   6.601   4.647   0.357  0.3934 -0.6024 -2.6983
 9691TIP3   OH250563   2.376   6.367   5.102 -0.0378 -0.3664 -0.5956
 9691TIP3    H150564   2.370   6.458   5.131 -0.3929 -0.9587  1.3330
 9691TIP3    H250565   2.469   6.352   5.087  0.0709  0.1874 -0.4845
 9692TIP3   OH250566   0.860   2.074   1.538 -0.0026 -0.3753  0.5627
 9692TIP3    H150567   0.784   2.026   1.572 -1.3853 -1.0302 -2.9603
 9692TIP3    H250568   0.932   2.012   1.543  0.5621  0.3329  4.2025
 9693TIP3   OH250569   4.100   5.904  16.473 -0.3484 -0.5369 -0.4586
 9693TIP3    H150570   4.029   5.955  16.513  0.3260  0.5857 -0.6360
 9693TIP3    H250571   4.118   5.950  16.391  1.4402 -0.0240  0.1819
 9694TIP3   OH250572   6.708   3.267   3.198 -0.4560  0.2409 -0.4488
 9694TIP3    H150573   6.764   3.321   3.255  0.7655 -1.3925 -0.0122
 9694TIP3    H250574   6.644   3.228   3.258  1.0338 -1.7413 -0.0397
 9695TIP3   OH250575   2.299   0.248  15.759 -0.1904 -0.5129  0.9756
 9695TIP3    H150576   2.281   0.230  15.667 -1.8941  1.9539  0.7147
 9695TIP3    H250577   2.385   0.209  15.775  1.5748  1.4418 -2.4855
 9696TIP3   OH250578   6.322   2.684   4.072  0.0244  0.5658 -0.5263
 9696TIP3    H150579   6.302   2.774   4.098 -0.0864 -0.0534  1.8267
 9696TIP3    H250580   6.299   2.632   4.149 -1.1141 -1.6511 -2.2445
 9697TIP3   OH250581   2.088   0.981   5.636  0.0986 -0.4925 -0.0269
 9697TIP3    H150582   2.035   0.905   5.614 -0.1744 -0.1113 -0.7514
 9697TIP3    H250583   2.053   1.051   5.580  0.0962  0.2571  0.8920
 9698TIP3   OH250584   3.055   0.058   0.463  0.0309  0.0584 -0.0744
 9698TIP3    H150585   3.065   0.057   0.368 -0.2656  0.5515 -0.1145
 9698TIP3    H250586   3.029   0.148   0.484 -0.8667 -0.2943  0.3745
 9699TIP3   OH250587   3.046   0.234  13.725 -0.1932  0.0425 -0.1889
 9699TIP3    H150588   3.103   0.295  13.770  0.7656 -1.7049  1.1022
 9699TIP3    H250589   3.093   0.150  13.730 -0.7988 -0.5765 -3.0472
 9700TIP3   OH250590   4.591   4.924  14.846 -0.1550 -0.0172 -0.0975
 9700TIP3    H150591   4.554   4.835  14.846  0.2901 -0.2087  0.6756
 9700TIP3    H250592   4.555   4.964  14.767  1.3841 -1.6257 -1.7278
 9701TIP3   OH250593   1.351   2.108  11.763 -0.4158 -0.5510 -0.0307
 9701TIP3    H150594   1.337   2.027  11.714  0.4324  0.0585 -1.3559
 9701TIP3    H250595   1.309   2.093  11.847 -2.8562 -1.2774 -1.2871
 9702TIP3   OH250596   5.602   0.369  17.362 -0.5825  0.5113 -0.2171
 9702TIP3    H150597   5.545   0.407  17.428 -1.1192  0.1838 -0.4906
 9702TIP3    H250598   5.546   0.355  17.286  0.0483  0.9936 -0.7948
 9703TIP3   OH250599   4.318   6.074   4.610  0.1465 -0.4711  1.1121
 9703TIP3    H150600   4.269   5.992   4.602 -0.6060 -0.1549  2.3230
 9703TIP3    H250601   4.321   6.108   4.520  0.0761 -1.5914  0.6657
 9704TIP3   OH250602   1.024   3.620   2.977  0.1696  0.1400 -0.0937
 9704TIP3    H150603   1.009   3.664   2.893 -2.6877 -1.6556 -0.6870
 9704TIP3    H250604   1.118   3.626   2.992  0.6433  1.2747 -2.9969
 9705TIP3   OH250605   1.122   4.944  16.324 -0.0740 -0.2487 -0.5271
 9705TIP3    H150606   1.053   5.008  16.308 -0.3748 -0.3085  0.4483
 9705TIP3    H250607   1.186   4.958  16.254 -1.6010 -0.9596 -2.1436
 9706TIP3   OH250608   5.125   4.960   4.228  0.1726  0.7462  0.5076
 9706TIP3    H150609   5.127   5.055   4.243  0.1824  1.4501 -3.0721
 9706TIP3    H250610   5.032   4.940   4.215  0.0683  0.0300  2.1266
 9707TIP3   OH250611   5.516   6.795   3.856  0.0567 -0.5156 -0.3341
 9707TIP3    H150612   5.606   6.781   3.828 -0.0896 -0.9472 -0.6015
 9707TIP3    H250613   5.501   6.888   3.846  0.5875 -0.3820  0.0506
 9708TIP3   OH250614   2.585   5.123  13.295  0.0977 -0.0607 -0.1714
 9708TIP3    H150615   2.673   5.085  13.302 -0.3676 -1.2863 -0.6137
 9708TIP3    H250616   2.589   5.181  13.219  0.0381 -1.6217 -1.4170
 9709TIP3   OH250617   4.160   6.559  12.119 -0.0480  0.1468  0.2000
 9709TIP3    H150618   4.085   6.508  12.088  0.4595 -0.1132 -0.6295
 9709TIP3    H250619   4.235   6.524  12.071  0.4859  0.9363  0.4307
 9710TIP3   OH250620   1.649   5.768  14.590 -0.4945 -0.6119 -0.1465
 9710TIP3    H150621   1.699   5.734  14.516 -0.9825 -2.5215  0.3582
 9710TIP3    H250622   1.558   5.764  14.562 -0.6228 -0.5649  0.2552
 9711TIP3   OH250623   2.136   5.350  14.819 -0.5495 -0.0847  0.2443
 9711TIP3    H150624   2.199   5.334  14.890 -0.4008  0.9419  0.3634
 9711TIP3    H250625   2.177   5.312  14.742  0.1964  0.4960  0.3376
 9712TIP3   OH250626   4.097   6.396  16.939  0.5624 -0.5084  0.0953
 9712TIP3    H150627   4.109   6.353  17.024 -0.2601  0.4834  0.7495
 9712TIP3    H250628   4.185   6.408  16.906  0.9703 -0.1102  1.2524
 9713TIP3   OH250629   1.234   5.135  12.780 -0.3555 -0.2272 -0.1965
 9713TIP3    H150630   1.205   5.179  12.701  0.6251  3.1916  1.1685
 9713TIP3    H250631   1.219   5.198  12.850  1.2987 -2.0399  1.9563
 9714TIP3   OH250632   0.509   3.077  16.136  0.1853 -0.2808 -0.2176
 9714TIP3    H150633   0.432   3.123  16.101  0.5911  1.2394  0.7900
 9714TIP3    H250634   0.567   3.147  16.166  1.8695 -1.4077 -0.7221
 9715TIP3   OH250635   3.823   1.725  15.888  0.2286  0.1413 -0.2159
 9715TIP3    H150636   3.858   1.809  15.919 -0.3618  0.6319 -0.8558
 9715TIP3    H250637   3.850   1.662  15.955  0.3148  0.9104  0.4900
 9716TIP3   OH250638   1.998   5.373  14.387 -0.1399 -0.4810 -0.2384
 9716TIP3    H150639   2.089   5.359  14.362  0.0906  0.9131 -0.3100
 9716TIP3    H250640   2.003   5.418  14.472 -0.6220  1.6714 -1.2660
 9717TIP3   OH250641   0.943   1.005  12.093 -0.3145 -0.3841 -0.4108
 9717TIP3    H150642   0.888   1.060  12.037 -0.4185  0.9887  0.9533
 9717TIP3    H250643   0.914   1.026  12.182  0.2913 -1.9994  0.1921
 9718TIP3   OH250644   4.201   5.509  17.076 -0.1869 -0.2135 -0.9225
 9718TIP3    H150645   4.238   5.583  17.026 -0.4710  0.1751 -0.5674
 9718TIP3    H250646   4.127   5.548  17.124 -1.3360 -1.0484 -1.9499
 9719TIP3   OH250647   2.650   0.367  15.433 -0.2636 -0.1733 -0.2245
 9719TIP3    H150648   2.678   0.378  15.342 -1.0708  1.0588 -0.3523
 9719TIP3    H250649   2.680   0.446  15.477 -0.7808 -0.2838  0.3346
 9720TIP3   OH250650   1.028   6.072  17.129  0.3301 -0.2755 -0.6636
 9720TIP3    H150651   1.055   5.980  17.124  1.4900 -0.0455  0.5199
 9720TIP3    H250652   1.100   6.120  17.087 -0.9846  0.0280 -2.6803
 9721TIP3   OH250653   6.602   1.402   1.095  0.9746  0.0379 -0.8536
 9721TIP3    H150654   6.546   1.477   1.114  1.2661 -0.4104  2.4467
 9721TIP3    H250655   6.690   1.433   1.116  1.2278 -0.8617 -0.5518
 9722TIP3   OH250656   5.922   1.847   1.465  0.5293  0.3844 -0.0154
 9722TIP3    H150657   5.951   1.849   1.374 -1.1055  0.4523 -0.5544
 9722TIP3    H250658   5.984   1.788   1.508  0.2980 -1.0260 -1.5426
 9723TIP3   OH250659   2.947   3.388   1.837  0.1936 -0.0430 -0.5169
 9723TIP3    H150660   2.861   3.361   1.805  0.8355 -1.4883 -1.0993
 9723TIP3    H250661   2.967   3.468   1.789 -0.9158  0.4310 -0.2120
 9724TIP3   OH250662   4.501   2.437   0.171  0.0266  0.3338 -0.1036
 9724TIP3    H150663   4.583   2.397   0.201  0.5709  0.6690 -1.0638
 9724TIP3    H250664   4.454   2.365   0.128  0.3164  0.3681 -0.4921
 9725TIP3   OH250665   1.292   1.978  15.408  0.0486  0.0809 -0.2856
 9725TIP3    H150666   1.294   1.975  15.312 -1.2575  1.1862 -0.3886
 9725TIP3    H250667   1.200   1.994  15.429  0.1612 -1.0048  1.2064
 9726TIP3   OH250668   0.498   1.144  17.037 -0.1001 -0.6984 -0.3381
 9726TIP3    H150669   0.566   1.082  17.008  0.2301  0.2096 -1.6039
 9726TIP3    H250670   0.458   1.174  16.956  0.0888  1.1169  0.2066
 9727TIP3   OH250671   3.045   6.551  11.731 -0.0934  0.2866  0.2636
 9727TIP3    H150672   3.021   6.497  11.655  1.3519  0.1489 -0.1299
 9727TIP3    H250673   3.011   6.638  11.710  0.9535  0.4400 -0.9382
 9728TIP3   OH250674   1.734   0.425  13.920 -0.1493  0.1034 -0.3389
 9728TIP3    H150675   1.709   0.381  14.001 -1.5216 -1.1546 -1.3784
 9728TIP3    H250676   1.830   0.431  13.925 -0.1220 -0.8779  0.9217
 9729TIP3   OH250677   1.965   1.563   0.315  0.1611 -0.2946  0.1640
 9729TIP3    H150678   1.956   1.469   0.324  0.2639 -0.1804  1.9118
 9729TIP3    H250679   2.056   1.576   0.289 -0.0969 -0.6984 -0.9804
 9730TIP3   OH250680   6.726   2.937   4.989  0.6348 -0.5248 -0.2986
 9730TIP3    H150681   6.644   2.890   4.973 -0.2011  0.8673 -0.2521
 9730TIP3    H250682   6.768   2.887   5.059 -0.2268 -1.2021 -0.2393
 9731TIP3   OH250683   4.272   1.484   2.900 -0.3284 -0.2095  0.0043
 9731TIP3    H150684   4.281   1.457   2.808  1.9430  0.0319  0.0781
 9731TIP3    H250685   4.239   1.406   2.945  0.0741 -0.8499 -0.7780
 9732TIP3   OH250686   2.214   6.434  14.495  0.0599  0.7833 -0.2953
 9732TIP3    H150687   2.217   6.341  14.471 -1.1457  0.0270  2.1973
 9732TIP3    H250688   2.203   6.479  14.411  1.0280 -1.2740 -1.6106
 9733TIP3   OH250689   2.962   0.766   2.718 -0.3985  0.1805  0.2123
 9733TIP3    H150690   3.029   0.834   2.703 -0.2589 -0.4027 -2.2691
 9733TIP3    H250691   2.885   0.799   2.672 -0.7901 -0.6494  0.2722
 9734TIP3   OH250692   5.319   0.079   4.348  0.1821  0.0040 -0.3636
 9734TIP3    H150693   5.365   0.118   4.274 -1.2487  1.0975 -0.7032
 9734TIP3    H250694   5.278   0.000   4.312  1.1358 -0.5692 -0.2333
 9735TIP3   OH250695   2.271   5.842  15.198  0.5029 -0.1227 -0.9338
 9735TIP3    H150696   2.198   5.785  15.220 -0.6260  1.4236 -0.5235
 9735TIP3    H250697   2.338   5.783  15.162 -0.8450 -1.5983 -1.1166
 9736TIP3   OH250698   2.770   0.395  16.226  0.5781  0.8973  0.3025
 9736TIP3    H150699   2.859   0.362  16.214 -0.4443 -3.2504  2.1808
 9736TIP3    H250700   2.726   0.379  16.142  1.0248  0.8879  0.0685
 9737TIP3   OH250701   3.297   0.711  14.445 -0.1192 -0.3272  0.0852
 9737TIP3    H150702   3.388   0.730  14.422 -0.0380 -0.0828  0.5981
 9737TIP3    H250703   3.251   0.794  14.428 -0.0739 -0.1708  0.7110
 9738TIP3   OH250704   6.226   1.290   4.436  0.3769  0.4051  0.3237
 9738TIP3    H150705   6.188   1.272   4.522 -1.2386 -0.7084 -0.5774
 9738TIP3    H250706   6.166   1.353   4.396  0.7514  0.4025 -0.2477
 9739TIP3   OH250707   2.990   1.335  16.323  0.3345 -0.3464  0.2176
 9739TIP3    H150708   2.907   1.315  16.367  0.1244 -0.0484 -0.0328
 9739TIP3    H250709   2.973   1.316  16.231 -0.0338  1.3868 -0.1166
 9740TIP3   OH250710   5.102   0.736   5.114  0.3939  0.0959 -0.3468
 9740TIP3    H150711   5.194   0.739   5.089 -0.2445 -0.4820 -2.9938
 9740TIP3    H250712   5.076   0.827   5.124  1.6850  0.2574  2.4901
 9741TIP3   OH250713   2.325   2.474   0.352  0.1978 -0.1140 -0.3293
 9741TIP3    H150714   2.406   2.474   0.301 -1.2885 -0.0320 -2.8467
 9741TIP3    H250715   2.314   2.565   0.380  1.1443 -0.2015  0.3566
 9742TIP3   OH250716   2.022   1.389   3.625 -0.6830  0.6260 -0.3318
 9742TIP3    H150717   2.112   1.385   3.592 -1.3510 -0.4935 -2.2054
 9742TIP3    H250718   1.982   1.460   3.575 -1.3722 -0.2393 -1.0410
 9743TIP3   OH250719   5.084   0.846  15.962  1.0408  0.1956 -0.5601
 9743TIP3    H150720   5.131   0.765  15.983  0.6538 -0.1756 -1.0791
 9743TIP3    H250721   5.046   0.874  16.045 -2.3214 -2.4312 -1.0072
 9744TIP3   OH250722   3.042   4.790  14.987  0.2093  0.1753  0.2381
 9744TIP3    H150723   3.068   4.706  14.950  0.9274  0.6817 -0.4326
 9744TIP3    H250724   2.958   4.772  15.030  0.2436 -0.8270 -0.0817
 9745TIP3   OH250725   6.595   2.442  13.335 -0.8145  0.2752 -0.0109
 9745TIP3    H150726   6.537   2.367  13.344  1.1476 -1.2727  0.4657
 9745TIP3    H250727   6.586   2.470  13.244 -0.4703 -1.5401 -0.6377
 9746TIP3   OH250728   2.139   1.689  15.219  0.4468 -0.0450 -0.0944
 9746TIP3    H150729   2.110   1.738  15.296 -0.1923  0.7678 -0.8339
 9746TIP3    H250730   2.235   1.692  15.224  0.4710  2.0755 -0.5621
 9747TIP3   OH250731   1.296   2.767   0.377  0.3198  0.4210  0.0768
 9747TIP3    H150732   1.301   2.812   0.461 -0.2727  0.8379 -0.1021
 9747TIP3    H250733   1.202   2.762   0.358  0.4244 -0.0623 -0.3507
 9748TIP3   OH250734   0.918   2.012   4.971  0.0151 -0.1130  0.6284
 9748TIP3    H150735   1.008   1.978   4.974  0.1055 -0.1637 -1.3568
 9748TIP3    H250736   0.928   2.107   4.973  0.2496 -0.0713 -0.9092
 9749TIP3   OH250737   3.490   4.301   2.051 -0.4306 -0.2256  0.1919
 9749TIP3    H150738   3.582   4.300   2.023 -0.1387  0.2478  1.0863
 9749TIP3    H250739   3.446   4.242   1.990  0.5314 -0.7591 -0.0143
 9750TIP3   OH250740   3.759   4.121   2.171  0.4803 -0.6850  0.0825
 9750TIP3    H150741   3.819   4.190   2.199 -0.0024  0.7458 -2.1250
 9750TIP3    H250742   3.788   4.098   2.083  0.7831 -3.5684  0.8375
 9751TIP3   OH250743   4.355   3.913   1.918  0.1331 -0.4304 -0.1546
 9751TIP3    H150744   4.396   3.950   1.840  2.5572 -0.8203  0.8297
 9751TIP3    H250745   4.424   3.859   1.958 -0.6371  0.6033  2.8184
 9752TIP3   OH250746   2.799   6.494  14.845  0.2649  0.5789  0.0285
 9752TIP3    H150747   2.793   6.463  14.754  0.7396  1.3112 -0.2573
 9752TIP3    H250748   2.872   6.555  14.845  0.4900  0.3318  0.9867
 9753TIP3   OH250749   1.484   3.093   1.713 -0.7905 -0.4659 -0.5212
 9753TIP3    H150750   1.499   3.035   1.788 -0.0803  0.1919 -0.1427
 9753TIP3    H250751   1.415   3.152   1.742  0.1016  0.3602 -0.0459
 9754TIP3   OH250752   6.392   4.121   4.073  0.3625 -0.7553  0.1784
 9754TIP3    H150753   6.322   4.065   4.105 -0.1811  0.4830  1.2969
 9754TIP3    H250754   6.467   4.100   4.129  0.9625 -2.1831 -1.1129
 9755TIP3   OH250755   0.837   4.659  16.320 -0.1123 -0.0449  0.8173
 9755TIP3    H150756   0.844   4.588  16.256  2.1999 -0.0253  0.9639
 9755TIP3    H250757   0.811   4.735  16.269 -0.3153 -0.4787  0.2625
 9756TIP3   OH250758   3.188   0.797   0.332 -0.4443  0.0916 -0.0153
 9756TIP3    H150759   3.218   0.728   0.392  0.3682  1.1501  0.8359
 9756TIP3    H250760   3.192   0.756   0.245  1.6162 -0.4458  0.2649
 9757TIP3   OH250761   2.503   6.292  12.862  0.2339 -1.0098  0.7868
 9757TIP3    H150762   2.585   6.299  12.911  0.4162 -0.4362  0.4191
 9757TIP3    H250763   2.500   6.373  12.810 -1.2982 -0.3044  1.9176
 9758TIP3   OH250764   4.519   1.633   2.214 -0.2906  0.1901  0.3976
 9758TIP3    H150765   4.443   1.692   2.210 -0.5721 -0.2505 -1.5280
 9758TIP3    H250766   4.481   1.548   2.239 -0.2844  0.2060  0.4605
 9759TIP3   OH250767   4.036   0.226  13.719  0.1237 -0.0211  0.3859
 9759TIP3    H150768   3.952   0.245  13.678  0.5652  0.8728 -0.1411
 9759TIP3    H250769   4.088   0.306  13.705  0.3278  0.2867  2.5952
 9760TIP3   OH250770   6.639   2.325   0.795 -0.3701 -0.1089  0.0934
 9760TIP3    H150771   6.638   2.419   0.777 -0.3032 -0.0585  0.3475
 9760TIP3    H250772   6.552   2.307   0.830 -0.3648 -0.1330  0.0935
 9761TIP3   OH250773   6.287   6.274   2.977 -0.4752  0.0923 -0.2849
 9761TIP3    H150774   6.219   6.297   2.914  1.1255  1.0330 -1.7568
 9761TIP3    H250775   6.275   6.336   3.048 -2.8247 -1.5053  0.8498
 9762TIP3   OH250776   1.013   0.295  13.288  0.1440  0.7378 -0.1758
 9762TIP3    H150777   1.085   0.280  13.227 -0.2938 -0.5223 -0.4027
 9762TIP3    H250778   0.934   0.272  13.239 -0.3933  1.6737  0.2173
 9763TIP3   OH250779   0.647   3.989  11.798 -0.4361 -0.2889 -0.4076
 9763TIP3    H150780   0.721   3.932  11.815 -0.1209  0.0213 -0.7073
 9763TIP3    H250781   0.573   3.948  11.843 -0.1990 -0.8893 -0.5564
 9764TIP3   OH250782   2.477   4.396  11.436 -0.5843  0.1138 -0.1005
 9764TIP3    H150783   2.547   4.439  11.387  0.7910  0.8239  2.2854
 9764TIP3    H250784   2.433   4.467  11.483 -3.0073 -0.3235 -1.5629
 9765TIP3   OH250785   6.515   1.401  12.745  0.4162  0.5209  1.0667
 9765TIP3    H150786   6.453   1.356  12.802  1.2318 -0.7256  1.0120
 9765TIP3    H250787   6.567   1.454  12.804  1.7705 -1.3545  1.6608
 9766TIP3   OH250788   1.966   4.287  15.073 -0.6133 -0.1232 -0.4156
 9766TIP3    H150789   1.941   4.208  15.026  0.2889 -0.4701 -0.3363
 9766TIP3    H250790   2.037   4.259  15.131 -0.6323  0.6344 -0.0126
 9767TIP3   OH250791   0.106   2.449  13.661 -0.3199  0.0699  0.2142
 9767TIP3    H150792   0.197   2.429  13.683 -0.1477  1.1821  0.5971
 9767TIP3    H250793   0.072   2.369  13.622  1.2008  0.0309 -1.1043
 9768TIP3   OH250794   1.671   4.226  13.215  0.0507  0.5760  0.4422
 9768TIP3    H150795   1.671   4.146  13.268  2.0603 -0.1905 -0.6087
 9768TIP3    H250796   1.587   4.226  13.171 -0.2158 -0.6374  0.9232
 9769TIP3   OH250797   2.279   4.829   5.061 -0.3485 -0.4877  0.2056
 9769TIP3    H150798   2.203   4.884   5.041 -0.0943  0.1768  1.0100
 9769TIP3    H250799   2.340   4.846   4.990 -0.5843 -0.3188  0.0426
 9770TIP3   OH250800   4.964   3.832  10.907  0.1218 -0.1674 -0.3396
 9770TIP3    H150801   5.002   3.854  10.822  0.7791 -0.5146 -0.1502
 9770TIP3    H250802   5.033   3.781  10.951 -0.6555 -0.9938 -0.0590
 9771TIP3   OH250803   2.567   5.044   0.722 -0.1907  0.1368  0.1634
 9771TIP3    H150804   2.485   5.051   0.673 -0.5186  0.1144  0.6999
 9771TIP3    H250805   2.548   5.088   0.805  1.2632  2.8749 -0.8470
 9772TIP3   OH250806   3.993   1.759  17.091  0.0229  0.4598 -0.2287
 9772TIP3    H150807   4.064   1.747  17.028 -1.0938  0.8882 -1.6325
 9772TIP3    H250808   4.025   1.719  17.172  1.3091 -0.5707 -1.2074
 9773TIP3   OH250809   4.315   1.022   4.871 -0.7079  0.4847 -0.0973
 9773TIP3    H150810   4.341   1.114   4.872  1.0163  0.0950 -2.1785
 9773TIP3    H250811   4.324   0.996   4.779  0.7747 -2.2668  0.7307
 9774TIP3   OH250812   6.537   2.166   3.947  0.0254  0.1496 -0.4967
 9774TIP3    H150813   6.541   2.102   4.019 -2.2033  1.1084  0.5717
 9774TIP3    H250814   6.590   2.127   3.878  1.0353 -1.5231  1.1140
 9775TIP3   OH250815   1.038   0.477   0.567  0.1319  0.3671 -0.0023
 9775TIP3    H150816   1.012   0.410   0.630 -0.5035 -0.8483 -1.4927
 9775TIP3    H250817   0.997   0.558   0.599 -1.3143 -0.4990  0.4151
 9776TIP3   OH250818   3.299   1.113   5.522 -0.1131 -0.2884  0.4333
 9776TIP3    H150819   3.387   1.079   5.537  0.1702 -0.0127 -0.5741
 9776TIP3    H250820   3.312   1.196   5.477 -0.8957 -0.4198 -0.0549
 9777TIP3   OH250821   2.688   5.968  14.966 -0.0825 -0.1349  0.3578
 9777TIP3    H150822   2.662   6.059  14.978  1.8600  0.5903 -0.5671
 9777TIP3    H250823   2.690   5.931  15.054 -0.4700  0.8215  0.7785
 9778TIP3   OH250824   1.550   2.869  12.667 -0.2108 -0.1480  0.0640
 9778TIP3    H150825   1.609   2.889  12.740 -0.9785  2.2360  0.1056
 9778TIP3    H250826   1.588   2.916  12.593 -0.9985 -0.2131 -0.3829
 9779TIP3   OH250827   1.583   4.907   4.449  0.4623 -0.0927  0.3154
 9779TIP3    H150828   1.520   4.975   4.472  0.1506  0.5780 -2.2374
 9779TIP3    H250829   1.550   4.871   4.367  2.7237 -0.6233 -0.4185
 9780TIP3   OH250830   0.103   2.730   2.360 -0.3588 -0.0571  0.1722
 9780TIP3    H150831   0.043   2.705   2.431 -0.7075 -1.5758 -0.6373
 9780TIP3    H250832   0.135   2.816   2.387 -2.9926  0.9082  0.5853
 9781TIP3   OH250833   0.835   0.256   1.980 -0.0753 -0.2761  0.1745
 9781TIP3    H150834   0.783   0.337   1.972 -2.6153 -1.7085  1.0533
 9781TIP3    H250835   0.770   0.187   1.992  1.8610 -2.8003 -2.4129
 9782TIP3   OH250836   5.638   5.134  10.569 -0.5375  0.3104  0.4129
 9782TIP3    H150837   5.683   5.138  10.484 -1.7639  2.4068 -0.2326
 9782TIP3    H250838   5.585   5.055  10.564  0.5323 -0.3953 -0.1485
 9783TIP3   OH250839   0.706   1.013   3.444 -0.3028  0.5011  0.5531
 9783TIP3    H150840   0.656   0.956   3.502  0.4800 -0.2250  0.5305
 9783TIP3    H250841   0.744   1.079   3.502  0.8704 -0.4977  0.9745
 9784TIP3   OH250842   2.117   3.916  15.676  0.2427  0.1736  0.2323
 9784TIP3    H150843   2.041   3.866  15.707  0.0010 -0.0617 -0.6932
 9784TIP3    H250844   2.167   3.936  15.755  0.2492 -1.3729  0.6479
 9785TIP3   OH250845   1.081   3.888  17.245 -0.6862 -0.2122  0.3614
 9785TIP3    H150846   0.993   3.925  17.252 -0.4849  0.0691  1.6705
 9785TIP3    H250847   1.113   3.917  17.159 -0.9534  1.7246  0.8810
 9786TIP3   OH250848   3.057   4.012   1.785  0.1996 -0.0336  0.0613
 9786TIP3    H150849   3.099   3.940   1.831  0.7022  0.8121  0.9563
 9786TIP3    H250850   3.102   4.090   1.817  0.2629  0.6204 -1.5386
 9787TIP3   OH250851   5.618   3.933  11.395  0.3669  0.3101  0.0443
 9787TIP3    H150852   5.567   3.862  11.434  1.5633 -0.9068 -0.5446
 9787TIP3    H250853   5.708   3.903  11.400  1.1551  2.5983  1.4813
 9788TIP3   OH250854   3.676   2.161   1.668  0.6723  0.2380 -0.0831
 9788TIP3    H150855   3.598   2.179   1.615  1.1550 -0.7898 -1.2102
 9788TIP3    H250856   3.685   2.237   1.724 -1.2909  0.2610  0.2703
 9789TIP3   OH250857   2.539   2.398  16.573  0.1910 -0.4663  0.0277
 9789TIP3    H150858   2.569   2.308  16.567 -1.6400 -1.1832  0.7719
 9789TIP3    H250859   2.508   2.407  16.663 -0.5137  0.6251 -0.2985
 9790TIP3   OH250860   4.675   6.085  11.106  0.4443  0.0714 -0.5113
 9790TIP3    H150861   4.659   6.156  11.169  1.3616  0.2896 -0.5102
 9790TIP3    H250862   4.653   6.123  11.021  2.4950  0.9224 -0.7039
 9791TIP3   OH250863   1.852   2.973   3.366 -0.0098  0.2385  0.3670
 9791TIP3    H150864   1.889   3.003   3.449  0.1173  0.9298  0.0689
 9791TIP3    H250865   1.828   3.054   3.320  1.4637 -0.0432 -0.9844
 9792TIP3   OH250866   0.030   3.375   0.236 -0.0128  0.9000 -0.6408
 9792TIP3    H150867  -0.045   3.345   0.286  0.8901  0.3331  0.4167
 9792TIP3    H250868   0.081   3.296   0.218  0.2914  1.2552 -1.4390
 9793TIP3   OH250869   5.157   1.824  16.985 -0.4284 -0.4580 -0.2755
 9793TIP3    H150870   5.189   1.896  16.931 -1.4895  0.4066  0.2081
 9793TIP3    H250871   5.226   1.810  17.049 -0.8457  1.2269  0.6177
 9794TIP3   OH250872   3.234   5.816   1.319  0.0921 -0.6858  0.4094
 9794TIP3    H150873   3.317   5.813   1.367  1.6026  1.8189 -1.7728
 9794TIP3    H250874   3.225   5.728   1.282  0.8615 -1.4946  2.0502
 9795TIP3   OH250875   4.114   0.628  16.267 -0.0863 -0.0642  0.6984
 9795TIP3    H150876   4.029   0.590  16.290 -0.3746 -0.8221 -1.4574
 9795TIP3    H250877   4.173   0.553  16.261 -0.1699  0.0016 -1.4955
 9796TIP3   OH250878   0.940   6.109  16.853 -0.6235 -0.2175 -0.3071
 9796TIP3    H150879   0.914   6.078  16.940  1.2147 -1.7995 -0.2571
 9796TIP3    H250880   0.857   6.119  16.806 -1.6388  0.4703  1.5242
 9797TIP3   OH250881   3.665   0.747  16.719  0.3142  0.2580  0.1651
 9797TIP3    H150882   3.634   0.814  16.780 -0.2784  0.4136 -0.2956
 9797TIP3    H250883   3.688   0.796  16.640  0.8828  0.0336  0.1878
 9798TIP3   OH250884   2.650   3.880  14.394 -0.2518  0.1616  0.1029
 9798TIP3    H150885   2.579   3.834  14.437 -1.7989  2.4571  0.1704
 9798TIP3    H250886   2.635   3.972  14.415 -0.9899  1.4953 -4.9981
 9799TIP3   OH250887   3.176   2.957  16.806  0.7234 -0.3770  0.5237
 9799TIP3    H150888   3.086   2.926  16.803  0.0762  1.4844 -0.9620
 9799TIP3    H250889   3.225   2.885  16.847 -0.7901 -2.9900 -1.8664
 9800TIP3   OH250890   0.325   4.730   5.859 -0.7637 -0.0459  0.2330
 9800TIP3    H150891   0.275   4.764   5.933 -0.8564 -0.6671  0.4608
 9800TIP3    H250892   0.379   4.660   5.896  1.2916  1.4631  0.2609
 9801TIP3   OH250893   1.960   2.976   2.929 -0.4907  0.0566  0.1182
 9801TIP3    H150894   2.042   2.992   2.882 -0.7360  1.0175 -0.0105
 9801TIP3    H250895   1.937   3.061   2.966 -2.0113  0.0863 -0.8093
 9802TIP3   OH250896   0.886   6.549   6.097  0.5963 -0.1869  0.5658
 9802TIP3    H150897   0.932   6.610   6.154  1.7579 -0.4115 -0.1083
 9802TIP3    H250898   0.799   6.540   6.137 -0.2982  3.2207 -0.2223
 9803TIP3   OH250899   3.780   4.887  12.098 -0.2952 -0.5535  0.3875
 9803TIP3    H150900   3.815   4.970  12.128 -0.5373 -0.3057 -0.0033
 9803TIP3    H250901   3.694   4.909  12.062 -0.9216 -1.1613  1.4444
 9804TIP3   OH250902   2.257   2.173   1.089 -0.7770 -0.3392 -0.3961
 9804TIP3    H150903   2.195   2.103   1.112 -3.7325  1.5821 -1.8405
 9804TIP3    H250904   2.284   2.152   1.000 -2.3087  0.6775 -1.1415
 9805TIP3   OH250905   3.880   2.950  16.971 -0.1060 -0.0354  0.2162
 9805TIP3    H150906   3.816   2.990  17.030  0.1778 -0.4925  0.8416
 9805TIP3    H250907   3.960   2.945  17.022 -0.2122 -1.7004  0.2708
 9806TIP3   OH250908   1.813   2.827   1.331  0.3702 -0.3634 -0.5023
 9806TIP3    H150909   1.748   2.785   1.388  1.5702 -1.0437  0.4018
 9806TIP3    H250910   1.761   2.885   1.274 -1.0105 -0.8282  0.2407
 9807TIP3   OH250911   2.710   5.692  14.614 -0.4109 -0.2705 -0.3825
 9807TIP3    H150912   2.681   5.748  14.687  0.6849 -0.1324 -0.0371
 9807TIP3    H250913   2.735   5.610  14.655 -0.0817 -0.3025 -0.6435
 9808TIP3   OH250914   0.908   2.702   4.165 -0.3595  0.2180  0.5991
 9808TIP3    H150915   0.974   2.734   4.227 -1.6642  0.4132  1.9389
 9808TIP3    H250916   0.896   2.610   4.188 -1.3725  0.4749  1.1342
 9809TIP3   OH250917   2.058   1.727  10.779  0.2309 -0.0335  0.1777
 9809TIP3    H150918   2.013   1.692  10.702 -2.0309  1.9661  0.4533
 9809TIP3    H250919   2.029   1.672  10.852 -0.2515  0.0728  0.0673
 9810TIP3   OH250920   4.233   3.262   5.545  0.5411  0.5716  0.1743
 9810TIP3    H150921   4.248   3.194   5.479 -1.4650  2.7676 -2.7825
 9810TIP3    H250922   4.293   3.332   5.521 -1.6551  2.2484 -0.8073
 9811TIP3   OH250923   5.135   1.147  14.045 -0.0987 -0.5791 -0.2593
 9811TIP3    H150924   5.138   1.218  14.109  0.2505 -0.5345 -0.3223
 9811TIP3    H250925   5.042   1.130  14.032 -0.1934  0.1019 -0.5030
 9812TIP3   OH250926   5.559   0.825  11.811  0.2529 -0.4952  0.0265
 9812TIP3    H150927   5.530   0.778  11.733  0.1833 -1.8653  0.8420
 9812TIP3    H250928   5.619   0.893  11.778  0.0564 -0.9091 -1.2195
 9813TIP3   OH250929   4.842   1.309   3.442 -0.1560 -0.2336  0.0415
 9813TIP3    H150930   4.919   1.296   3.386 -0.0073  1.9417 -0.3400
 9813TIP3    H250931   4.767   1.301   3.383 -0.1755 -1.2369  0.1946
 9814TIP3   OH250932   0.295   1.851  14.850 -0.0188 -0.2975 -0.1486
 9814TIP3    H150933   0.291   1.757  14.870  0.5487 -0.8354 -2.3505
 9814TIP3    H250934   0.373   1.861  14.796 -1.1727  1.0722 -1.6596
 9815TIP3   OH250935   2.556   6.185  14.429  0.3652 -0.3699  0.3814
 9815TIP3    H150936   2.615   6.181  14.354  0.1007 -1.0168  0.1983
 9815TIP3    H250937   2.469   6.200  14.390  0.5443  2.0421  0.7215
 9816TIP3   OH250938   1.482   3.976   1.003 -0.3735 -0.2370 -0.2790
 9816TIP3    H150939   1.521   3.994   0.918  0.6037  2.4792  0.6323
 9816TIP3    H250940   1.395   4.017   0.999 -0.0771  0.4609  0.2085
 9817TIP3   OH250941   2.793   4.368   1.895  0.6542  0.1148  0.0965
 9817TIP3    H150942   2.715   4.405   1.939  0.4198  0.6438 -0.7403
 9817TIP3    H250943   2.797   4.414   1.811  0.1589 -2.0097 -1.1529
 9818TIP3   OH250944   1.137   2.817  12.866 -0.2191  0.3203 -0.8323
 9818TIP3    H150945   1.197   2.760  12.914 -1.5500  0.0334  0.5954
 9818TIP3    H250946   1.183   2.839  12.785  1.3495 -0.7271 -0.2644
 9819TIP3   OH250947   0.861   4.943   2.455 -0.3221  0.5209  0.5092
 9819TIP3    H150948   0.905   4.868   2.496  0.8615  0.7537 -0.2958
 9819TIP3    H250949   0.808   4.905   2.385 -1.2376  0.2638  1.3231
 9820TIP3   OH250950   0.758   1.821  12.621  0.1877 -0.2386  0.1289
 9820TIP3    H150951   0.758   1.806  12.716 -2.3625 -2.0073 -0.0291
 9820TIP3    H250952   0.666   1.841  12.601  0.8489  1.0299 -1.8742
 9821TIP3   OH250953   3.947   2.160  14.335  0.3965  0.5115 -0.4635
 9821TIP3    H150954   3.998   2.219  14.390  1.7587 -1.2560  0.2624
 9821TIP3    H250955   3.973   2.073  14.363 -0.9295 -0.4544 -2.0633
 9822TIP3   OH250956   5.398   6.658  13.030 -0.0646 -0.0264  0.5207
 9822TIP3    H150957   5.396   6.591  13.099 -2.0006 -1.0243 -0.4148
 9822TIP3    H250958   5.311   6.698  13.034  0.0551  0.4116 -0.8604
 9823TIP3   OH250959   5.920   5.131  16.606 -0.4630  0.2625 -0.6127
 9823TIP3    H150960   5.892   5.127  16.698 -1.1606 -0.0649 -0.8400
 9823TIP3    H250961   5.868   5.066  16.561  0.9357 -0.6490 -0.9856
 9824TIP3   OH250962   3.251   1.087   1.192  0.2155  0.3630 -0.7566
 9824TIP3    H150963   3.212   1.113   1.276 -0.6102  1.0417 -1.3278
 9824TIP3    H250964   3.312   1.158   1.171 -0.9902  1.1794 -1.6316
 9825TIP3   OH250965   1.383   3.797   3.368 -0.1812  0.1347 -0.2473
 9825TIP3    H150966   1.371   3.744   3.447  0.3430  0.1159 -0.1757
 9825TIP3    H250967   1.466   3.767   3.331 -0.8982 -0.5445 -1.3576
 9826TIP3   OH250968   1.138   5.026   3.051  0.2094 -1.0823  0.4336
 9826TIP3    H150969   1.166   5.077   3.127  0.7553 -1.4113  0.4618
 9826TIP3    H250970   1.049   5.056   3.034  1.0897  1.1565 -0.6416
 9827TIP3   OH250971   2.764   1.789   1.270  0.0546 -0.5726 -0.7752
 9827TIP3    H150972   2.740   1.713   1.217 -1.2920  0.7260 -2.1251
 9827TIP3    H250973   2.718   1.862   1.229 -0.1263  0.6948  1.5298
 9828TIP3   OH250974   1.135   5.610   1.125  0.7291  0.1530  0.4757
 9828TIP3    H150975   1.164   5.681   1.068  1.1483  1.9965  2.8497
 9828TIP3    H250976   1.068   5.564   1.074  1.0178  1.7322 -1.4413
 9829TIP3   OH250977   4.008   1.140   2.144  0.2021  0.0229 -0.0043
 9829TIP3    H150978   4.072   1.074   2.171  1.3353  1.6533  1.5585
 9829TIP3    H250979   4.039   1.221   2.184 -0.8737  1.6349 -2.2008
 9830TIP3   OH250980   2.366   4.821   3.020 -0.0563 -0.1333  0.3102
 9830TIP3    H150981   2.315   4.859   3.092  0.6653  2.6571 -0.5176
 9830TIP3    H250982   2.451   4.802   3.059  0.0208  0.4305  0.4178
 9831TIP3   OH250983   3.827   5.240  13.194  0.2457  0.4104  0.0315
 9831TIP3    H150984   3.897   5.299  13.166 -0.3397  0.8403 -0.5355
 9831TIP3    H250985   3.834   5.165  13.135 -0.8758  1.2378 -1.2181
 9832TIP3   OH250986   2.392   0.053   3.382 -0.6107 -0.4460  0.2117
 9832TIP3    H150987   2.470   0.065   3.328 -0.2641  0.5706  0.8947
 9832TIP3    H250988   2.427   0.038   3.470 -1.1132  2.3377  1.0018
 9833TIP3   OH250989   6.224   3.913   4.150  0.2540  0.2832  0.0630
 9833TIP3    H150990   6.195   3.836   4.199  0.1186  0.6014  0.4902
 9833TIP3    H250991   6.289   3.879   4.089 -1.4274 -0.5591 -1.3339
 9834TIP3   OH250992   6.355   3.863   5.245  0.0025  0.4820  0.5996
 9834TIP3    H150993   6.328   3.861   5.153  3.1472 -0.1839 -0.4165
 9834TIP3    H250994   6.347   3.773   5.274  0.2373  0.4568  0.5851
 9835TIP3   OH250995   1.015   2.274   0.225  0.8692 -0.1677 -0.1302
 9835TIP3    H150996   0.981   2.246   0.310 -1.5243 -1.0562 -1.2854
 9835TIP3    H250997   0.987   2.366   0.217 -2.4380 -1.1574 -1.4816
 9836TIP3   OH250998   4.518   1.953  13.446 -0.1790  0.0951 -0.8165
 9836TIP3    H150999   4.539   2.044  13.469  1.0730  0.5423 -3.3515
 9836TIP3    H251000   4.592   1.902  13.478 -0.8912 -0.0898  0.6240
 9837TIP3   OH251001   4.674   2.571   2.076 -0.5026 -0.1096 -0.0407
 9837TIP3    H151002   4.638   2.614   2.154 -0.2623  0.9907 -0.5198
 9837TIP3    H251003   4.768   2.589   2.080 -0.4430 -0.3261 -0.4113
 9838TIP3   OH251004   5.023   3.841  10.641  0.1126  0.0768  0.8225
 9838TIP3    H151005   4.976   3.794  10.571 -0.0519 -1.0656  1.6583
 9838TIP3    H251006   5.102   3.789  10.655 -0.7519 -0.8067  2.7405
 9839TIP3   OH251007   0.008   4.238  12.076 -0.1690 -0.2157  0.5125
 9839TIP3    H151008   0.101   4.241  12.099 -0.4104  1.6222  1.4199
 9839TIP3    H251009  -0.010   4.145  12.060  2.1248 -0.4656 -1.0968
 9840TIP3   OH251010   0.644   4.438   5.763  0.1951 -0.4067  0.2297
 9840TIP3    H151011   0.700   4.361   5.769  1.3850  0.3977 -0.1711
 9840TIP3    H251012   0.623   4.460   5.854  0.6017 -0.6678  0.3889
 9841TIP3   OH251013   3.770   3.084   0.366 -0.3609 -0.0913 -0.0628
 9841TIP3    H151014   3.701   3.039   0.413 -0.6104  0.5993  0.2389
 9841TIP3    H251015   3.829   3.117   0.434 -0.2238  0.1021 -0.2710
 9842TIP3   OH251016   0.600   1.575   1.974  0.3088 -0.0946  0.6039
 9842TIP3    H151017   0.551   1.628   1.911 -0.7926 -1.6678  0.0839
 9842TIP3    H251018   0.650   1.513   1.920 -1.4029 -2.1162  1.2301
 9843TIP3   OH251019   4.370   3.170  11.283  0.2587  0.0761  0.5914
 9843TIP3    H151020   4.332   3.116  11.214 -1.2927  1.6778  0.1298
 9843TIP3    H251021   4.460   3.185  11.255 -0.7562  2.0012 -1.9865
 9844TIP3   OH251022   1.443   3.957  10.404 -0.4199  0.1056  0.3151
 9844TIP3    H151023   1.353   3.954  10.372 -0.5049 -0.8930  0.6079
 9844TIP3    H251024   1.446   3.892  10.474  0.7580 -0.5805 -0.3290
 9845TIP3   OH251025   1.596   6.302  12.285 -0.7358  0.1379 -0.3582
 9845TIP3    H151026   1.682   6.288  12.325 -1.2824  0.4227  0.9831
 9845TIP3    H251027   1.603   6.262  12.199 -0.3809 -3.1521  1.0330
 9846TIP3   OH251028   5.121   2.772  11.094 -0.4789  0.1321 -0.2853
 9846TIP3    H151029   5.045   2.814  11.054 -1.5137  2.6818  3.7537
 9846TIP3    H251030   5.196   2.810  11.048 -1.5756  2.1962 -0.4902
 9847TIP3   OH251031   1.439   1.218  13.752 -0.3597 -0.0034  0.5052
 9847TIP3    H151032   1.427   1.255  13.664  1.5174 -0.1369  0.1474
 9847TIP3    H251033   1.534   1.205  13.759 -0.5697 -0.7825  2.2439
 9848TIP3   OH251034   4.954   2.257  14.118 -0.0009  0.5325 -0.1462
 9848TIP3    H151035   4.895   2.184  14.134  0.6380  0.4411  2.1199
 9848TIP3    H251036   4.898   2.335  14.117 -0.3283  0.3133  0.6394
 9849TIP3   OH251037   1.820   0.688   3.952 -0.8171  0.5606  0.6645
 9849TIP3    H151038   1.904   0.702   3.907 -1.9928  0.8061 -1.5855
 9849TIP3    H251039   1.841   0.698   4.045  1.5634  1.0216  0.1479
 9850TIP3   OH251040   1.899   5.183   3.514  0.4671 -0.8710  0.0637
 9850TIP3    H151041   1.942   5.144   3.437  0.5803 -1.9636  0.6582
 9850TIP3    H251042   1.913   5.119   3.584 -1.2225 -0.7648  0.5402
 9851TIP3   OH251043   4.752   6.788  14.772  0.0564  0.4288 -0.4994
 9851TIP3    H151044   4.686   6.752  14.712  0.9112  0.1131 -1.2657
 9851TIP3    H251045   4.720   6.763  14.859  1.5673 -4.0851 -0.9756
 9852TIP3   OH251046   6.083   5.544   2.642 -0.1526  0.1384  0.2876
 9852TIP3    H151047   5.991   5.518   2.642 -0.1031 -0.0653  0.9218
 9852TIP3    H251048   6.130   5.469   2.605 -0.4121  0.9786 -1.8696
 9853TIP3   OH251049   0.212   5.417   5.485 -0.3719  0.0739  0.5896
 9853TIP3    H151050   0.164   5.423   5.568  0.7503  0.5851  1.2296
 9853TIP3    H251051   0.224   5.323   5.471 -2.4999 -0.1377 -0.1780
 9854TIP3   OH251052   2.521   6.399  15.037  0.3344  0.0476 -0.0820
 9854TIP3    H151053   2.506   6.474  14.979 -1.6644 -0.0571  0.2355
 9854TIP3    H251054   2.549   6.328  14.979  1.0573  0.6865 -0.5352
 9855TIP3   OH251055   0.468   1.808  12.732 -0.0534  0.3526  0.2149
 9855TIP3    H151056   0.411   1.738  12.699 -0.8613  1.1271 -0.0815
 9855TIP3    H251057   0.481   1.787  12.824  0.9129 -0.9721 -0.2076
 9856TIP3   OH251058   6.146   6.394   6.033  0.6470  0.2893  0.3238
 9856TIP3    H151059   6.204   6.419   6.105  0.8123 -1.5180  0.8857
 9856TIP3    H251060   6.058   6.396   6.070  0.5970  0.6444  0.1874
 9857TIP3   OH251061   2.466   4.520  16.435 -0.1257 -0.6897 -0.0014
 9857TIP3    H151062   2.456   4.582  16.363 -0.4312 -0.8702 -0.1149
 9857TIP3    H251063   2.454   4.573  16.514 -0.9834 -0.7102 -0.1111
 9858TIP3   OH251064   1.566   5.660  15.605  0.6138  0.0745 -0.1060
 9858TIP3    H151065   1.610   5.625  15.682  0.8233  0.7922  0.1017
 9858TIP3    H251066   1.635   5.697  15.551  0.5498 -0.9911 -0.9619
 9859TIP3   OH251067   3.015   5.224   3.164  0.1594 -0.4821  0.0255
 9859TIP3    H151068   2.937   5.241   3.110 -1.9830 -1.1418  2.7179
 9859TIP3    H251069   3.042   5.310   3.195  0.9496 -0.1836 -1.3735
 9860TIP3   OH251070   5.520   5.107   1.926 -0.3786  0.2298  0.0414
 9860TIP3    H151071   5.600   5.060   1.950  0.2392  1.6683  0.9286
 9860TIP3    H251072   5.463   5.098   2.002 -0.8255 -0.2651 -0.3455
 9861TIP3   OH251073   3.170   4.291   2.623 -0.3802  0.0236  0.4438
 9861TIP3    H151074   3.263   4.305   2.640 -0.4319  1.8856 -0.5165
 9861TIP3    H251075   3.131   4.378   2.632 -1.8990 -0.5982  0.0756
 9862TIP3   OH251076   2.803   3.655   5.453  0.2700 -0.1319 -0.4929
 9862TIP3    H151077   2.879   3.702   5.487  1.5039 -1.6777 -1.0104
 9862TIP3    H251078   2.731   3.681   5.512  1.5772 -0.0342  1.1310
 9863TIP3   OH251079   0.796   6.603   4.430  0.1645  0.1249  0.7422
 9863TIP3    H151080   0.765   6.613   4.340  1.2105  3.2637  0.5895
 9863TIP3    H251081   0.817   6.510   4.438  0.2921 -0.2305 -2.3551
 9864TIP3   OH251082   6.775   5.122  11.947  0.5749  0.7602 -0.1898
 9864TIP3    H151083   6.741   5.035  11.923  1.3337 -0.1602  1.8151
 9864TIP3    H251084   6.697   5.172  11.971  0.1536  0.5526 -1.0733
 9865TIP3   OH251085   5.612   5.818  15.853  0.1710  0.1410  0.3589
 9865TIP3    H151086   5.561   5.819  15.934  0.3606  2.9316  0.5519
 9865TIP3    H251087   5.700   5.842  15.880  0.7238 -0.8664 -0.4672
 9866TIP3   OH251088   1.190   3.230   3.787 -0.0592 -0.2743  0.1195
 9866TIP3    H151089   1.134   3.152   3.777  1.0604 -1.1565  0.5159
 9866TIP3    H251090   1.152   3.294   3.728 -2.1494 -0.4589  1.1744
 9867TIP3   OH251091   5.428   0.560   2.095  0.0145  0.6107 -0.1009
 9867TIP3    H151092   5.414   0.646   2.057  1.7179  0.5014 -1.0572
 9867TIP3    H251093   5.510   0.567   2.143 -2.0987  0.8050  3.9446
 9868TIP3   OH251094   5.901   4.556  13.621  0.3212  0.9807 -0.4528
 9868TIP3    H151095   5.850   4.561  13.702 -1.5245  0.0547 -1.4898
 9868TIP3    H251096   5.880   4.637  13.575 -0.3663  0.5563 -0.9227
 9869TIP3   OH251097   1.892   1.370  11.744  0.4718  0.4548 -0.1512
 9869TIP3    H151098   1.848   1.432  11.802  0.5392  0.7960 -0.4623
 9869TIP3    H251099   1.830   1.355  11.673  0.8758  0.9895 -0.6256
 9870TIP3   OH251100   3.792   3.618  16.575 -0.1941 -0.1675 -0.0450
 9870TIP3    H151101   3.876   3.624  16.530  1.7580 -0.3697  3.1925
 9870TIP3    H251102   3.766   3.709  16.589 -1.3619 -0.0886 -2.2850
 9871TIP3   OH251103   3.704   4.748  11.430 -0.6061  0.1046 -0.0114
 9871TIP3    H151104   3.700   4.683  11.360  0.9622  0.8681 -0.8694
 9871TIP3    H251105   3.761   4.707  11.496 -0.8903 -0.0218  0.1562
 9872TIP3   OH251106   0.404   4.125   3.871  0.6953  0.9046 -0.2493
 9872TIP3    H151107   0.350   4.046   3.867  1.2996  0.2138  2.6831
 9872TIP3    H251108   0.348   4.194   3.835 -1.1346 -0.2561  0.2210
 9873TIP3   OH251109   2.796   6.190   1.781 -0.4536 -0.4152 -0.0599
 9873TIP3    H151110   2.867   6.254   1.787 -0.2121 -0.6840 -0.0579
 9873TIP3    H251111   2.771   6.174   1.872 -1.3239  0.5747 -0.1073
 9874TIP3   OH251112   1.051   4.236  12.198  0.0844  0.1876 -0.2795
 9874TIP3    H151113   1.106   4.224  12.275  0.8932 -0.6672 -0.9626
 9874TIP3    H251114   1.112   4.230  12.124 -0.6677  1.0234 -0.9940
 9875TIP3   OH251115   2.739   6.404  17.216 -0.1212  0.2594 -0.3238
 9875TIP3    H151116   2.798   6.338  17.253 -0.6046  0.6331  1.1932
 9875TIP3    H251117   2.726   6.376  17.125 -0.3672 -1.7858  0.2830
 9876TIP3   OH251118   1.607   1.702  13.460  0.3625  0.0515  0.1160
 9876TIP3    H151119   1.521   1.740  13.483 -0.2292  0.1767 -2.0987
 9876TIP3    H251120   1.665   1.733  13.530 -1.1965  0.7001  1.2061
 9877TIP3   OH251121   6.486   5.239  13.557 -0.2654 -0.7045 -0.3787
 9877TIP3    H151122   6.448   5.279  13.479  0.8977 -0.2578 -0.7362
 9877TIP3    H251123   6.564   5.195  13.525 -0.6613 -1.9322  0.2753
 9878TIP3   OH251124   6.751   1.872   1.243 -0.1041  0.2144 -0.1518
 9878TIP3    H151125   6.782   1.921   1.320  1.4490 -0.4175 -0.3479
 9878TIP3    H251126   6.828   1.863   1.188 -1.1179  0.3256 -1.6294
 9879TIP3   OH251127   5.998   2.240   3.228  0.0049 -0.1643  0.1724
 9879TIP3    H151128   6.011   2.194   3.146 -3.0761 -1.3075  0.1895
 9879TIP3    H251129   6.022   2.177   3.296  2.6845  0.8263  0.2471
 9880TIP3   OH251130   2.359   2.082  14.668  0.2000  0.5069  0.2479
 9880TIP3    H151131   2.271   2.079  14.706  0.0907  0.6710  0.0087
 9880TIP3    H251132   2.353   2.029  14.589  0.3162  0.5211  0.2294
 9881TIP3   OH251133   4.706   3.157  16.374  0.9143  0.3161 -0.1308
 9881TIP3    H151134   4.756   3.199  16.443  0.3123  0.7054  0.0794
 9881TIP3    H251135   4.757   3.079  16.351  1.2341  0.3029  0.5897
 9882TIP3   OH251136   4.468   2.539  16.619  0.0063  0.3829  0.4982
 9882TIP3    H151137   4.405   2.605  16.588 -0.4643  0.5173  1.6768
 9882TIP3    H251138   4.543   2.549  16.562 -0.3488  1.4558  0.1961
 9883TIP3   OH251139   3.919   4.586  12.061  0.6164 -0.5170 -0.4533
 9883TIP3    H151140   3.857   4.653  12.088  1.4039  0.2709 -0.5455
 9883TIP3    H251141   3.952   4.549  12.143  1.5739  0.5355 -0.3342
 9884TIP3   OH251142   3.195   4.632   4.476 -0.2606 -0.7566  0.3922
 9884TIP3    H151143   3.250   4.697   4.521 -2.0342  2.3516 -1.5316
 9884TIP3    H251144   3.108   4.673   4.473 -1.3126 -2.9081 -1.6451
 9885TIP3   OH251145   0.493   6.674  14.005 -0.2049 -0.1027 -0.3420
 9885TIP3    H151146   0.452   6.746  14.054  0.9456 -0.6743  1.5976
 9885TIP3    H251147   0.573   6.712  13.970  0.5453 -0.4442  0.9187
 9886TIP3   OH251148   5.808   1.239  13.306  0.2374  0.5147  0.6204
 9886TIP3    H151149   5.882   1.268  13.358  1.0634 -2.5010  1.3443
 9886TIP3    H251150   5.747   1.202  13.370 -0.5323  0.2863 -0.2282
 9887TIP3   OH251151   4.982   1.102  12.187  0.6563 -0.0440 -0.1169
 9887TIP3    H151152   4.982   1.070  12.278  0.7026 -2.1444 -0.8057
 9887TIP3    H251153   5.000   1.195  12.195  1.6585 -0.3528  1.9754
 9888TIP3   OH251154   3.913   4.128  15.134  0.1212 -0.7171  0.0747
 9888TIP3    H151155   3.906   4.050  15.189  1.4633 -1.1559 -0.3416
 9888TIP3    H251156   3.829   4.133  15.089 -0.8607 -0.5828  1.8236
 9889TIP3   OH251157   6.493   2.816  13.313  0.0713 -0.9203  0.1082
 9889TIP3    H151158   6.553   2.802  13.239  1.2934 -0.9289  1.0769
 9889TIP3    H251159   6.421   2.755  13.297  0.2243 -0.7969 -1.1645
 9890TIP3   OH251160   0.670   4.815   5.621 -0.5518 -0.0593 -0.0396
 9890TIP3    H151161   0.697   4.904   5.600  0.8365 -0.4223  0.0913
 9890TIP3    H251162   0.614   4.789   5.548  0.2418  0.3994 -0.8270
 9891TIP3   OH251163   6.202   4.615  13.737 -0.1143  0.1630  0.2818
 9891TIP3    H151164   6.217   4.615  13.642  2.0373 -0.5911  0.5535
 9891TIP3    H251165   6.175   4.525  13.757  0.9545 -0.1122  0.5497
 9892TIP3   OH251166   6.752   6.332  16.158 -0.4344  0.3515  0.1843
 9892TIP3    H151167   6.685   6.341  16.225 -1.2001  3.4484 -0.8347
 9892TIP3    H251168   6.832   6.365  16.198 -0.1466 -0.7113  0.5105
 9893TIP3   OH251169   5.667   6.272  12.238 -0.1809  0.3310  0.1650
 9893TIP3    H151170   5.655   6.366  12.230  1.8449  0.5717 -0.6050
 9893TIP3    H251171   5.638   6.236  12.154  1.7199  0.6218 -0.6626
 9894TIP3   OH251172   2.638   5.253   2.413  0.6520 -0.2075 -0.4422
 9894TIP3    H151173   2.590   5.332   2.390  0.6213 -0.7311 -2.3126
 9894TIP3    H251174   2.574   5.200   2.461 -0.0957 -0.1262 -1.3253
 9895TIP3   OH251175   4.858   1.755   1.518 -0.1136  0.0527  0.2313
 9895TIP3    H151176   4.799   1.808   1.570  0.9133  2.5369 -0.9489
 9895TIP3    H251177   4.941   1.758   1.565 -0.1604 -0.9554  0.3980
 9896TIP3   OH251178   4.844   4.142  11.169  0.2797 -0.3919  0.3489
 9896TIP3    H151179   4.839   4.120  11.076  0.8746  0.1543  0.1887
 9896TIP3    H251180   4.808   4.230  11.175 -0.5282 -0.7385  0.7600
 9897TIP3   OH251181   4.467   5.373  13.838 -0.5603 -0.4819  0.0525
 9897TIP3    H151182   4.545   5.349  13.889 -0.1932 -0.6973 -0.5884
 9897TIP3    H251183   4.485   5.461  13.806 -0.6464 -0.4686  0.0417
 9898TIP3   OH251184   0.712   4.252   2.038 -0.1571  0.3741 -0.0403
 9898TIP3    H151185   0.617   4.236   2.032 -0.0067 -0.0793 -1.7621
 9898TIP3    H251186   0.738   4.276   1.949  1.3945  0.2632  0.3536
 9899TIP3   OH251187   3.791   5.949   0.050  0.0423 -0.5764  0.6355
 9899TIP3    H151188   3.858   5.967   0.116  2.5305 -0.7016 -1.7117
 9899TIP3    H251189   3.796   5.854   0.037  0.3208 -0.4268 -0.4248
 9900TIP3   OH251190   5.224   0.619  17.215 -0.0351  0.2215 -0.0756
 9900TIP3    H151191   5.235   0.535  17.259 -0.5234  0.9727  1.6005
 9900TIP3    H251192   5.129   0.630  17.208 -0.0857  1.5844  1.8183
 9901TIP3   OH251193   4.850   6.227  10.940 -0.2507  0.0462 -0.1679
 9901TIP3    H151194   4.813   6.166  10.877  1.4617 -1.6943  0.4140
 9901TIP3    H251195   4.785   6.296  10.948 -2.2007 -1.6078 -1.0048
 9902TIP3   OH251196   4.036   3.406  14.913  0.3196  0.2430  0.3707
 9902TIP3    H151197   4.095   3.362  14.974  0.2157 -0.3798  0.0331
 9902TIP3    H251198   4.047   3.358  14.830  1.2070  1.6877 -0.3968
 9903TIP3   OH251199   0.980   5.025   0.744 -0.0993 -0.1798 -0.4107
 9903TIP3    H151200   1.000   5.061   0.831 -1.3176  0.2558 -0.2972
 9903TIP3    H251201   1.063   5.032   0.696  0.3979  0.2425  0.4780
 9904TIP3   OH251202   1.306   0.654  17.018  0.6222 -0.5435  0.2098
 9904TIP3    H151203   1.261   0.736  16.996  0.4145 -0.9653 -1.0254
 9904TIP3    H251204   1.341   0.669  17.106 -0.3887  0.4486  0.4759
 9905TIP3   OH251205   3.219   3.281   1.256 -0.0249 -0.1263  0.6968
 9905TIP3    H151206   3.241   3.348   1.191  0.4897 -1.4838 -0.5838
 9905TIP3    H251207   3.302   3.261   1.299  0.2790 -1.3844 -0.3852
 9906TIP3   OH251208   2.182   0.347  16.551  0.3193 -0.2140 -0.2068
 9906TIP3    H151209   2.194   0.334  16.645  0.2549  1.0689 -0.0032
 9906TIP3    H251210   2.236   0.279  16.510 -1.4276 -2.3103  0.7273
 9907TIP3   OH251211   0.351   0.994  17.325  0.5263  0.2769  0.1115
 9907TIP3    H151212   0.378   1.084  17.345 -2.7059  0.8628  2.7665
 9907TIP3    H251213   0.382   0.943  17.400  0.3821 -0.3919 -0.2828
 9908TIP3   OH251214   5.204   6.268   4.342 -0.1011 -0.0579 -0.6458
 9908TIP3    H151215   5.213   6.362   4.363 -1.8430 -0.1524  0.7935
 9908TIP3    H251216   5.243   6.224   4.417  2.3269 -0.5693 -2.1158
 9909TIP3   OH251217   5.942   5.998  12.377  0.6139  0.2832 -0.1812
 9909TIP3    H151218   5.910   5.913  12.348 -1.3500  1.0933 -0.5809
 9909TIP3    H251219   6.019   5.979  12.430  0.0791 -1.7491 -0.0713
 9910TIP3   OH251220   3.581   5.289  17.192  0.8154 -0.1986  0.0714
 9910TIP3    H151221   3.652   5.343  17.156  0.9753  0.4617  1.3201
 9910TIP3    H251222   3.545   5.342  17.263  0.2406 -1.2860  0.6111
 9911TIP3   OH251223   3.804   4.722  14.443 -0.1051 -0.5024 -0.2154
 9911TIP3    H151224   3.884   4.725  14.496 -0.4521  0.4008  0.2811
 9911TIP3    H251225   3.790   4.629  14.425  1.1232 -0.6675 -0.4168
 9912TIP3   OH251226   4.463   2.850   3.185  0.6669 -0.4509  0.2012
 9912TIP3    H151227   4.387   2.851   3.244  0.4584 -0.9077 -0.0514
 9912TIP3    H251228   4.458   2.934   3.139  0.7292 -0.1653  0.6991
 9913TIP3   OH251229   6.206   1.108  14.176  0.7358  0.2441  0.3384
 9913TIP3    H151230   6.229   1.020  14.146 -0.8488  0.5966 -2.1790
 9913TIP3    H251231   6.116   1.121  14.147  0.8974  2.6857  0.6953
 9914TIP3   OH251232   0.619   6.520   2.468  0.2246  0.2099 -0.2498
 9914TIP3    H151233   0.570   6.444   2.499 -0.0305 -0.2403 -1.7073
 9914TIP3    H251234   0.553   6.580   2.434  0.3160  1.6123  1.8576
 9915TIP3   OH251235   2.655   2.553  16.851  0.6342 -0.0860  0.9006
 9915TIP3    H151236   2.654   2.494  16.926  1.4876  0.5168  1.3985
 9915TIP3    H251237   2.744   2.546  16.816  0.6437  0.6420  0.7636
 9916TIP3   OH251238   3.683   3.389  11.527  0.2711  0.0016  0.7955
 9916TIP3    H151239   3.602   3.420  11.487  0.6810 -0.4710 -0.4730
 9916TIP3    H251240   3.745   3.460  11.512  0.4700 -0.2470  0.4288
 9917TIP3   OH251241   6.116   5.195  12.082  0.4158 -0.4068  0.1694
 9917TIP3    H151242   6.158   5.133  12.142 -1.9824 -0.5139  1.8891
 9917TIP3    H251243   6.183   5.260  12.063  1.7413 -1.2677  1.6885
 9918TIP3   OH251244   0.208   6.209   4.847 -0.4524  0.3062 -0.5693
 9918TIP3    H151245   0.144   6.180   4.782 -1.6973  1.8776 -0.1136
 9918TIP3    H251246   0.181   6.166   4.928 -1.1392  1.2080 -0.3098
 9919TIP3   OH251247   0.110   5.071   1.973 -0.1548  0.3612  0.3226
 9919TIP3    H151248   0.127   5.083   1.880 -0.8689  0.7861  0.2438
 9919TIP3    H251249   0.086   4.978   1.981  1.5295 -0.1079  0.3506
 9920TIP3   OH251250   2.932   6.219  13.812 -0.3370 -0.5369  0.3763
 9920TIP3    H151251   3.001   6.219  13.878  1.0011 -1.3932 -0.9588
 9920TIP3    H251252   2.918   6.127  13.791 -0.6593 -0.2789 -0.6002
 9921TIP3   OH251253   4.440   6.198   3.242 -0.2449 -0.2308  0.0917
 9921TIP3    H151254   4.402   6.219   3.157 -1.2609 -1.3703  0.2338
 9921TIP3    H251255   4.447   6.282   3.287 -2.5791  0.0543  0.0412
 9922TIP3   OH251256   4.827   3.505  14.677 -0.3634  0.1209  0.5640
 9922TIP3    H151257   4.837   3.410  14.685 -0.8009 -0.0974 -1.0500
 9922TIP3    H251258   4.912   3.536  14.648  0.0215  0.3594  1.8738
 9923TIP3   OH251259   3.488   3.592  15.343 -0.3668 -0.0271 -0.1302
 9923TIP3    H151260   3.537   3.581  15.262  0.7903  0.7107  0.4372
 9923TIP3    H251261   3.450   3.506  15.359 -1.5997  0.1055 -2.0378
 9924TIP3   OH251262   0.081   4.887   4.040 -0.4694 -0.2254 -0.0011
 9924TIP3    H151263   0.039   4.966   4.075  1.6853  0.8873  0.2389
 9924TIP3    H251264   0.144   4.861   4.108  0.1093 -1.1068 -0.8514
 9925TIP3   OH251265   6.334   2.749  11.512  0.1547 -0.0609  0.1155
 9925TIP3    H151266   6.385   2.681  11.556 -0.8661  0.6194  2.4859
 9925TIP3    H251267   6.394   2.785  11.446  1.0010 -2.6123 -0.6326
 9926TIP3   OH251268   5.063   4.453   1.521 -0.0325 -0.3330  0.0905
 9926TIP3    H151269   4.982   4.417   1.486  0.3871  0.4962 -1.8333
 9926TIP3    H251270   5.035   4.513   1.590 -1.1534  0.6731 -1.1787
 9927TIP3   OH251271   2.938   5.952  16.867  0.0401  0.4256 -0.0666
 9927TIP3    H151272   2.909   6.027  16.919 -1.1492 -0.4948  0.6491
 9927TIP3    H251273   2.875   5.883  16.888  0.3393 -0.3882 -1.6972
 9928TIP3   OH251274   2.062   2.971  14.516 -0.1486  0.6096 -0.2855
 9928TIP3    H151275   2.087   2.879  14.503  0.5629  0.9586 -1.4938
 9928TIP3    H251276   2.019   2.972  14.602 -3.1618 -1.4841 -1.5764
 9929TIP3   OH251277   5.640   4.685   1.548 -0.1150 -0.5542  0.6699
 9929TIP3    H151278   5.725   4.705   1.587 -0.7857  1.2803  1.2982
 9929TIP3    H251279   5.632   4.746   1.475 -1.0272 -0.4593  0.8357
 9930TIP3   OH251280   0.273   4.441  13.789  0.4075 -0.2146 -0.2945
 9930TIP3    H151281   0.349   4.400  13.747  1.0825 -1.4461  1.9893
 9930TIP3    H251282   0.230   4.371  13.837 -2.0096  0.5481 -1.1871
 9931TIP3   OH251283   4.910   0.123  14.373  0.0708 -0.0356 -0.7067
 9931TIP3    H151284   4.900   0.039  14.329  0.6319 -0.2202 -0.4895
 9931TIP3    H251285   4.946   0.181  14.306  0.4053 -0.1706 -0.6443
 9932TIP3   OH251286   1.270   4.246   5.268 -0.4110  0.6658 -0.5343
 9932TIP3    H151287   1.189   4.262   5.220 -0.4178 -0.0573 -0.7798
 9932TIP3    H251288   1.297   4.332   5.299 -1.0436  0.9733 -0.8195
 9933TIP3   OH251289   6.093   1.229  12.146 -0.4709  0.0195  0.3785
 9933TIP3    H151290   6.074   1.252  12.055  0.7952 -2.7415 -0.6687
 9933TIP3    H251291   6.174   1.179  12.142 -1.6057 -2.2222  2.7221
 9934TIP3   OH251292   6.128   6.376  14.695  0.5011 -0.0224  0.1680
 9934TIP3    H151293   6.067   6.311  14.659 -0.4402  1.1484 -0.4152
 9934TIP3    H251294   6.128   6.447  14.631  0.2139  1.3052  1.5868
 9935TIP3   OH251295   4.434   3.594   5.915  0.7860 -0.1639 -0.0205
 9935TIP3    H151296   4.472   3.515   5.877  0.1497 -1.0403  1.1113
 9935TIP3    H251297   4.339   3.582   5.904  0.6969  0.6443 -0.2121
 9936TIP3   OH251298   2.368   5.699  16.891  0.1825  0.4696 -0.4961
 9936TIP3    H151299   2.437   5.735  16.835  1.4204 -1.5229 -0.3658
 9936TIP3    H251300   2.387   5.605  16.894 -2.9936 -0.2889 -1.0609
 9937TIP3   OH251301   1.414   6.527  12.744  0.1699  0.0395  0.0868
 9937TIP3    H151302   1.451   6.512  12.657  1.7905  0.4628  0.6687
 9937TIP3    H251303   1.418   6.621  12.756  2.6224 -0.1789  1.6719
 9938TIP3   OH251304   2.995   1.288  16.047  0.3760  0.1070  0.2310
 9938TIP3    H151305   3.075   1.338  16.060  0.2997  0.3351 -0.1643
 9938TIP3    H251306   2.943   1.341  15.987  1.0310 -1.2238 -1.6352
 9939TIP3   OH251307   0.772   3.137  11.647  0.5411 -0.1776  0.1308
 9939TIP3    H151308   0.845   3.108  11.703  0.9943  0.9190  0.1280
 9939TIP3    H251309   0.697   3.140  11.705  0.9180  0.5391  0.6011
 9940TIP3   OH251310   2.038   4.863  12.393 -0.3651 -0.0161  0.2395
 9940TIP3    H151311   2.038   4.930  12.325 -0.7710 -0.1421  0.1143
 9940TIP3    H251312   2.113   4.808  12.373 -0.6771 -0.2468 -0.2926
 9941TIP3   OH251313   5.855   6.347   0.029 -0.0763  0.3841  0.3701
 9941TIP3    H151314   5.844   6.348   0.124 -1.6691  0.5289  0.2119
 9941TIP3    H251315   5.779   6.297  -0.003 -0.2114  1.3576 -0.8881
 9942TIP3   OH251316   0.207   3.082   5.199  0.0482 -0.4131 -0.0189
 9942TIP3    H151317   0.262   3.022   5.148  1.8871  0.3501  0.9935
 9942TIP3    H251318   0.266   3.153   5.225 -1.8070  1.3258 -0.2701
 9943TIP3   OH251319   5.848   1.066   2.015 -0.3864  0.3635  0.2819
 9943TIP3    H151320   5.778   1.004   2.037 -0.2087  0.4739  1.1762
 9943TIP3    H251321   5.840   1.136   2.080  0.9257  0.0850  0.7637
 9944TIP3   OH251322   4.839   2.295   3.940 -0.0019 -0.1462  0.2175
 9944TIP3    H151323   4.863   2.387   3.947 -1.2421  0.1866  0.4459
 9944TIP3    H251324   4.916   2.252   3.902  0.3549  1.0958 -0.5199
 9945TIP3   OH251325   2.519   6.781   5.514  0.2827 -0.5577 -0.2964
 9945TIP3    H151326   2.539   6.728   5.590  0.1422  1.9292  1.6120
 9945TIP3    H251327   2.599   6.833   5.500  0.4425 -1.2209 -2.1256
 9946TIP3   OH251328   2.273   0.353   5.532 -0.2923 -0.0464  0.0039
 9946TIP3    H151329   2.292   0.446   5.519 -0.2764 -0.2000 -1.1929
 9946TIP3    H251330   2.294   0.337   5.624  0.8287  0.8662 -0.0748
 9947TIP3   OH251331   2.304   4.426   4.010 -0.2371  0.3595  0.0339
 9947TIP3    H151332   2.374   4.484   4.038  1.3297 -0.7258 -1.4047
 9947TIP3    H251333   2.289   4.368   4.084  1.4986 -0.3619 -0.1277
 9948TIP3   OH251334   0.895   5.394   0.163 -0.3491 -0.0473  0.5530
 9948TIP3    H151335   0.867   5.308   0.195 -0.5078 -0.2816 -0.2162
 9948TIP3    H251336   0.981   5.406   0.202 -0.5075 -0.3559  1.0219
 9949TIP3   OH251337   6.207   5.095  15.973 -0.0456 -0.2228  0.4588
 9949TIP3    H151338   6.236   5.177  16.013  0.5818 -0.2076 -0.0049
 9949TIP3    H251339   6.188   5.118  15.882 -0.8058 -0.3943  0.5732
 9950TIP3   OH251340   1.349   6.424  16.053  0.5532  0.2282  0.1499
 9950TIP3    H151341   1.362   6.329  16.042  0.2817  0.2255 -0.1740
 9950TIP3    H251342   1.396   6.445  16.134  0.7097 -0.1638  0.1661
 9951TIP3   OH251343   6.079   0.259   2.553  0.6352 -0.2759 -0.4284
 9951TIP3    H151344   6.147   0.245   2.487  0.6786 -1.5380 -0.1348
 9951TIP3    H251345   6.005   0.207   2.522  0.4490 -0.3943  0.2024
 9952TIP3   OH251346   4.217   2.659   4.775 -0.0016 -0.2391  0.1134
 9952TIP3    H151347   4.200   2.595   4.844  1.0453 -3.0228 -2.0278
 9952TIP3    H251348   4.306   2.690   4.791  0.2646 -0.9319 -0.0170
 9953TIP3   OH251349   2.321   1.029   2.714  0.1083  0.4048 -0.2113
 9953TIP3    H151350   2.234   1.023   2.753  0.0783  0.4308 -0.2737
 9953TIP3    H251351   2.357   1.112   2.745 -0.2259  0.8056 -0.8665
 9954TIP3   OH251352   6.542   1.965  12.724  0.2772 -0.1230  0.1584
 9954TIP3    H151353   6.529   1.872  12.709  1.0234 -0.3920  1.0551
 9954TIP3    H251354   6.611   1.969  12.791  2.5397  1.1115 -2.0865
 9955TIP3   OH251355   6.714   5.742   1.382  0.1751 -0.2387 -0.0396
 9955TIP3    H151356   6.687   5.680   1.451  1.8387 -0.0792  0.8049
 9955TIP3    H251357   6.809   5.733   1.378  0.2824  1.0851 -1.0599
 9956TIP3   OH251358   3.981   2.123   6.322 -0.0703 -0.0785  0.0720
 9956TIP3    H151359   3.891   2.094   6.315  0.1830 -0.6399 -1.0676
 9956TIP3    H251360   3.978   2.216   6.297 -0.3764  0.0029  0.4007
 9957TIP3   OH251361   3.143   1.987   4.273  0.2496  0.0142  0.3565
 9957TIP3    H151362   3.162   1.895   4.290  0.3805  0.1207  0.7978
 9957TIP3    H251363   3.178   2.003   4.185 -0.8685 -0.6686 -0.2266
 9958TIP3   OH251364   2.628   2.994  14.413  0.2191 -0.1886  0.0615
 9958TIP3    H151365   2.683   2.926  14.373  0.3197 -0.2599  0.3202
 9958TIP3    H251366   2.649   3.073  14.364 -0.0609 -0.3861 -0.3881
 9959TIP3   OH251367   6.469   1.584  14.969  0.4163  0.2451 -0.2370
 9959TIP3    H151368   6.491   1.624  14.885 -0.9911 -2.8896 -2.2766
 9959TIP3    H251369   6.387   1.625  14.994 -0.7152 -0.8199 -1.9934
 9960TIP3   OH251370   2.799   5.162  14.386 -0.1194 -0.4027  0.1435
 9960TIP3    H151371   2.840   5.246  14.406  1.1558 -0.6252 -1.3380
 9960TIP3    H251372   2.810   5.110  14.465 -0.3883  0.6082  0.8635
 9961TIP3   OH251373   1.268   0.511   1.053 -0.0489 -0.1545 -0.4239
 9961TIP3    H151374   1.236   0.509   1.143  1.3012  0.4294  0.0818
 9961TIP3    H251375   1.347   0.457   1.054 -1.0986 -1.8220 -1.7274
 9962TIP3   OH251376   4.775   3.269  17.037 -0.5439 -0.0779  0.2924
 9962TIP3    H151377   4.772   3.182  17.076 -0.4116 -0.4422 -0.4934
 9962TIP3    H251378   4.867   3.281  17.014 -0.6812 -0.0070 -0.2198
 9963TIP3   OH251379   5.634   2.365   0.663 -0.3592  0.2225  0.0724
 9963TIP3    H151380   5.678   2.448   0.647 -0.4289 -0.0612 -1.8901
 9963TIP3    H251381   5.551   2.372   0.617 -0.1963 -1.0638 -0.4701
 9964TIP3   OH251382   5.706   4.427   4.835 -0.3862  0.4032 -0.1427
 9964TIP3    H151383   5.718   4.390   4.923  1.0033  1.4544  0.1329
 9964TIP3    H251384   5.793   4.454   4.808 -0.4204 -1.5671 -2.6421
 9965TIP3   OH251385   2.048   4.730  14.570 -0.1699 -0.0808 -0.0120
 9965TIP3    H151386   2.142   4.713  14.561 -0.2461 -0.9217  0.6440
 9965TIP3    H251387   2.009   4.697  14.489 -0.1399 -1.8423  0.6376
 9966TIP3   OH251388   2.139   0.601   0.713  0.4766  0.7373 -0.9517
 9966TIP3    H151389   2.190   0.667   0.667  0.7310  0.6438 -0.8056
 9966TIP3    H251390   2.196   0.525   0.717  0.1809  0.5021 -1.1278
 9967TIP3   OH251391   5.444   0.970   4.123  0.5072  0.1632 -0.5122
 9967TIP3    H151392   5.386   0.988   4.197  0.1791 -0.2128 -0.6731
 9967TIP3    H251393   5.500   1.048   4.117 -1.0634  1.2953 -1.3753
 9968TIP3   OH251394   3.953   3.670   4.495 -0.0445 -0.5240  0.0890
 9968TIP3    H151395   4.014   3.617   4.547 -0.1593 -1.3599 -0.6039
 9968TIP3    H251396   3.991   3.758   4.496  1.3951 -1.0943 -0.6298
 9969TIP3   OH251397   3.592   3.345   0.693  0.1015 -0.1797  0.4851
 9969TIP3    H151398   3.498   3.344   0.672 -0.0629 -1.0384  1.1951
 9969TIP3    H251399   3.627   3.419   0.643 -0.1224 -2.3135 -3.2444
 9970TIP3   OH251400   4.096   4.597   6.052 -0.1368  0.7005 -0.4688
 9970TIP3    H151401   4.144   4.667   6.097 -0.3118 -0.0280  0.9024
 9970TIP3    H251402   4.004   4.618   6.066 -0.2522  1.5756 -2.2816
 9971TIP3   OH251403   2.632   6.250  11.716  0.4531 -0.3068 -0.7376
 9971TIP3    H151404   2.728   6.249  11.722  0.5173 -2.5891 -0.9963
 9971TIP3    H251405   2.614   6.263  11.623  0.4913  0.2936 -0.6651
 9972TIP3   OH251406   0.232   0.097   5.394  0.4169  0.4064  0.1472
 9972TIP3    H151407   0.235   0.002   5.396 -1.9441  0.2843  1.8966
 9972TIP3    H251408   0.230   0.119   5.300 -0.6285 -1.3753 -0.2880
 9973TIP3   OH251409   1.056   1.895  14.590 -0.1763 -1.0051 -0.0813
 9973TIP3    H151410   1.109   1.965  14.551  0.7566 -1.4917  0.2819
 9973TIP3    H251411   0.965   1.922  14.574  0.1629  0.2479 -0.0265
 9974TIP3   OH251412   6.300   3.389   3.478  0.5986 -0.3531  0.3247
 9974TIP3    H151413   6.365   3.328   3.511  0.3587 -0.0378  1.4004
 9974TIP3    H251414   6.216   3.352   3.506  0.3372 -0.4295 -0.5151
 9975TIP3   OH251415   3.525   2.608   1.458 -0.1170  0.0439  0.0025
 9975TIP3    H151416   3.457   2.570   1.401 -1.2121  1.0952  0.5620
 9975TIP3    H251417   3.540   2.695   1.421  0.1685  0.2101  0.5121
 9976TIP3   OH251418   2.108   6.284  13.272 -0.0342  0.7910  0.5414
 9976TIP3    H151419   2.132   6.302  13.362  2.1466 -0.2663  0.2241
 9976TIP3    H251420   2.191   6.270  13.226 -1.1513 -1.9456 -0.9044
 9977TIP3   OH251421   0.404   2.648   4.811 -0.0363  0.1857 -0.4156
 9977TIP3    H151422   0.447   2.567   4.785  0.0521 -0.3491  1.3160
 9977TIP3    H251423   0.431   2.712   4.744  2.3466 -0.4568 -0.1402
 9978TIP3   OH251424   1.384   5.204   0.533  0.5719 -0.0767  0.1455
 9978TIP3    H151425   1.325   5.245   0.597  1.6417  1.2870  0.2935
 9978TIP3    H251426   1.421   5.278   0.484  2.7764 -0.8222  0.5972
 9979TIP3   OH251427   5.302   0.809   3.437  0.0788 -0.4715 -0.4632
 9979TIP3    H151428   5.238   0.741   3.457 -0.2254  0.4942  2.2509
 9979TIP3    H251429   5.379   0.785   3.489  1.2985 -0.5869 -2.2169
 9980TIP3   OH251430   1.207   4.213  12.701  0.1691  0.1089 -0.5346
 9980TIP3    H151431   1.234   4.157  12.774 -0.2474 -1.4377 -1.5041
 9980TIP3    H251432   1.210   4.155  12.624 -1.5307  1.0712 -1.3884
 9981TIP3   OH251433   5.072   6.787   5.848 -0.0330 -0.2916 -0.4426
 9981TIP3    H151434   5.029   6.841   5.782 -1.3196 -2.7991 -1.8181
 9981TIP3    H251435   5.016   6.709   5.856  1.3306 -1.1528  1.9160
 9982TIP3   OH251436   4.148   3.185  15.308 -0.1964 -1.0336  0.5395
 9982TIP3    H151437   4.090   3.115  15.339 -0.1923 -1.5543 -0.6003
 9982TIP3    H251438   4.104   3.221  15.231  0.0578 -0.1186  0.8018
 9983TIP3   OH251439   3.487   5.683   1.923  0.6900 -0.6941 -0.5056
 9983TIP3    H151440   3.540   5.666   2.001 -0.8839 -0.1280  0.7502
 9983TIP3    H251441   3.467   5.597   1.888  0.6558 -1.0184  0.2828
 9984TIP3   OH251442   2.150   6.449  15.835  0.2021  0.1373 -0.2218
 9984TIP3    H151443   2.121   6.407  15.915  0.1907  1.7049  0.6331
 9984TIP3    H251444   2.241   6.475  15.852  0.0944  0.7801 -0.5807
 9985TIP3   OH251445   5.537   0.714  11.561  0.2117  0.5695  0.0395
 9985TIP3    H151446   5.486   0.665  11.496  0.2680  1.2589 -0.5363
 9985TIP3    H251447   5.577   0.786  11.512  0.6842  0.8010  0.7379
 9986TIP3   OH251448   6.451   1.995   0.104 -0.6503 -0.3450  0.3521
 9986TIP3    H151449   6.416   1.921   0.153 -1.5802  1.5331  2.7011
 9986TIP3    H251450   6.394   2.069   0.127 -1.3480  0.6768 -3.8795
 9987TIP3   OH251451   1.208   0.379  12.352 -0.0423 -0.6396  0.1101
 9987TIP3    H151452   1.188   0.429  12.432  0.4513 -1.2576  0.6322
 9987TIP3    H251453   1.129   0.387  12.299 -0.2711  0.0303  0.5324
 9988TIP3   OH251454   5.970   5.585   5.065  0.0888  0.3662 -0.8562
 9988TIP3    H151455   5.941   5.496   5.045  1.4816 -0.5310  0.8214
 9988TIP3    H251456   6.042   5.601   5.003 -0.0396  0.2387 -1.0385
 9989TIP3   OH251457   4.943   4.922   4.786 -0.0844  0.4370  0.1131
 9989TIP3    H151458   4.959   4.844   4.840  0.9716  1.4313  1.3241
 9989TIP3    H251459   5.026   4.970   4.788 -0.2458  0.8815 -1.8475
 9990TIP3   OH251460   5.840   1.576  14.616  0.4054 -0.3708  0.4859
 9990TIP3    H151461   5.827   1.483  14.597  0.4032 -0.1748 -0.5454
 9990TIP3    H251462   5.916   1.578  14.675 -0.6696 -1.1304  1.9551
 9991TIP3   OH251463   6.161   4.548  13.478  0.6362  0.0507 -0.1123
 9991TIP3    H151464   6.067   4.560  13.469  0.8436  0.5931 -1.8530
 9991TIP3    H251465   6.200   4.617  13.424  2.0488  0.2503  1.0929
 9992TIP3   OH251466   5.411   3.241   5.265 -0.3967 -0.0186 -0.6319
 9992TIP3    H151467   5.346   3.189   5.313  0.9827 -1.0714  0.1866
 9992TIP3    H251468   5.461   3.285   5.334 -0.9987  1.7864 -1.2934
 9993TIP3   OH251469   4.829   3.839  13.441 -0.0373 -0.3321 -0.7381
 9993TIP3    H151470   4.828   3.744  13.450  1.2532 -0.5493 -2.3545
 9993TIP3    H251471   4.923   3.861  13.438 -0.2995  0.7010 -2.7338
 9994TIP3   OH251472   2.002   6.644   0.300 -0.1641  0.3782 -0.2725
 9994TIP3    H151473   1.911   6.651   0.269  0.2802  3.2176 -1.2711
 9994TIP3    H251474   1.997   6.671   0.392 -0.6207 -2.0444  0.4825
 9995TIP3   OH251475   2.866   5.979   0.197  0.0524  0.3623  0.2591
 9995TIP3    H151476   2.805   5.984   0.270 -0.6622 -0.3607 -0.2728
 9995TIP3    H251477   2.926   5.908   0.219 -0.9685 -0.7464 -0.4287
 9996TIP3   OH251478   4.056   2.953   6.164  0.0610  0.0186 -0.1979
 9996TIP3    H151479   4.102   2.936   6.246 -0.2841  1.7267  0.3846
 9996TIP3    H251480   3.964   2.947   6.187 -0.0392  0.7524 -0.3941
 9997TIP3   OH251481   1.333   6.239  12.363 -0.7892  0.2736 -0.5173
 9997TIP3    H151482   1.285   6.251  12.281 -1.3389  0.8868 -0.1192
 9997TIP3    H251483   1.420   6.275  12.346 -0.3253 -1.1688 -1.3548
 9998TIP3   OH251484   4.407   1.684   4.741 -0.0941  0.1067 -0.1172
 9998TIP3    H151485   4.400   1.776   4.716  0.7278 -0.0271 -0.9014
 9998TIP3    H251486   4.341   1.640   4.687  1.0499 -0.0535 -1.4397
 9999TIP3   OH251487   3.281   3.444   6.427 -0.3554  0.1106  0.5062
 9999TIP3    H151488   3.294   3.536   6.449  2.6503  0.4098 -1.8986
 9999TIP3    H251489   3.362   3.401   6.452 -1.3140 -1.7371  0.6278
10000TIP3   OH251490   4.410   5.818  16.037  0.2052  0.1032  0.3171
10000TIP3    H151491   4.437   5.893  16.090  0.0519  0.2426  0.2001
10000TIP3    H251492   4.333   5.783  16.082  1.4937 -1.2839  1.5672
10001TIP3   OH251493   6.681   2.372  11.904 -0.2860  0.0688  0.1024
10001TIP3    H151494   6.588   2.376  11.925 -0.3090  0.8607 -0.1296
10001TIP3    H251495   6.696   2.444  11.842  0.2204 -0.8599 -0.8894
10002TIP3   OH251496   5.799   2.828   6.148 -0.2744  1.0805  0.3149
10002TIP3    H151497   5.822   2.899   6.088  0.0041 -0.5973 -1.6890
10002TIP3    H251498   5.703   2.826   6.147 -0.2714  0.1312 -1.3252
10003TIP3   OH251499   4.313   0.703   3.250  0.7761  0.0709  0.2509
10003TIP3    H151500   4.320   0.609   3.238  0.4334  0.1640 -0.7156
10003TIP3    H251501   4.258   0.713   3.328 -0.4633 -0.5157 -0.5300
10004TIP3   OH251502   0.014   1.139   4.383 -0.2858  0.0601 -0.3814
10004TIP3    H151503   0.068   1.085   4.439 -0.1550  0.4020 -0.1731
10004TIP3    H251504   0.076   1.192   4.332 -0.3963 -0.3740 -0.9837
10005TIP3   OH251505   5.727   6.270   0.933 -0.3884 -0.0437  0.4855
10005TIP3    H151506   5.780   6.213   0.989 -1.1595 -0.8501  0.4288
10005TIP3    H251507   5.765   6.357   0.944  1.0879 -0.6240  0.2583
10006TIP3   OH251508   5.348   3.040  15.748  0.2702  0.1921 -0.0385
10006TIP3    H151509   5.374   3.036  15.655  0.3700 -1.2968  0.0252
10006TIP3    H251510   5.254   3.023  15.747  0.1931  0.5977  0.1132
10007TIP3   OH251511   2.010   6.301   2.331 -0.4565  0.0896 -0.0270
10007TIP3    H151512   1.991   6.387   2.369  0.9425 -0.4243  1.9682
10007TIP3    H251513   2.082   6.318   2.270 -1.1354  0.5249 -0.7409
10008TIP3   OH251514   0.160   5.267  14.802  0.0857  0.0230 -0.4183
10008TIP3    H151515   0.242   5.302  14.766  0.0797 -0.3990 -0.8536
10008TIP3    H251516   0.097   5.274  14.730 -0.8952  2.4303  0.5698
10009TIP3   OH251517   6.744   2.775  13.689 -0.2727  0.0603  0.2109
10009TIP3    H151518   6.679   2.720  13.646 -0.6707  0.3868  0.3880
10009TIP3    H251519   6.768   2.840  13.622 -0.0557 -0.1209  0.1137
10010TIP3   OH251520   5.909   0.433   5.393 -0.2549 -0.3557 -0.1416
10010TIP3    H151521   5.991   0.387   5.374 -1.6246 -2.1107 -2.4880
10010TIP3    H251522   5.885   0.404   5.481  1.0408 -0.7644  0.0980
10011TIP3   OH251523   0.100   2.547  13.137 -0.4079  0.0621  0.1899
10011TIP3    H151524   0.060   2.541  13.224 -1.4042  0.6684 -0.2098
10011TIP3    H251525   0.194   2.547  13.154 -0.5505 -1.4626  1.1482
10012TIP3   OH251526   4.457   2.886   1.439 -0.2019  0.1077 -0.4402
10012TIP3    H151527   4.543   2.902   1.400  0.6231 -1.4482  0.6379
10012TIP3    H251528   4.438   2.966   1.489  1.5085 -0.2207  0.8156
10013TIP3   OH251529   4.350   6.102  16.109  0.4963 -0.7616  0.2618
10013TIP3    H151530   4.424   6.106  16.048  0.2991 -4.9652 -0.5423
10013TIP3    H251531   4.381   6.147  16.188  2.3707  0.9939 -1.3686
10014TIP3   OH251532   5.068   3.063  13.007 -0.6373 -0.6074  0.1510
10014TIP3    H151533   5.086   3.109  13.089  1.4195 -0.0361 -0.5725
10014TIP3    H251534   5.098   2.973  13.023  0.8398 -0.2218 -0.2979
10015TIP3   OH251535   0.505   4.753  13.847  0.2906 -0.6468  0.2190
10015TIP3    H151536   0.448   4.676  13.839  0.4350 -1.5793  4.9918
10015TIP3    H251537   0.591   4.717  13.866  0.6325  0.6719  1.3006
10016TIP3   OH251538   1.220   3.295   1.221 -0.0143 -0.2937  0.0016
10016TIP3    H151539   1.185   3.211   1.190  0.2468 -1.1144  1.7908
10016TIP3    H251540   1.149   3.357   1.208 -1.2067 -1.3759  1.0871
10017TIP3   OH251541   1.425   4.288  13.025  0.3669  0.5682 -0.4940
10017TIP3    H151542   1.444   4.201  12.988 -1.4708  0.0710 -0.3894
10017TIP3    H251543   1.357   4.271  13.090  1.3624  1.8533  0.9175
10018TIP3   OH251544   2.948   0.849   5.478 -0.2333  0.1212 -0.4630
10018TIP3    H151545   2.995   0.795   5.415  3.2980  1.3760  0.8500
10018TIP3    H251546   2.943   0.935   5.437 -0.9166  0.1386 -0.3537
10019TIP3   OH251547   6.357   1.694   6.344 -0.5248 -0.2669 -0.2656
10019TIP3    H151548   6.305   1.691   6.424 -0.1228  2.6853  0.2369
10019TIP3    H251549   6.442   1.728   6.373 -0.7713  2.1359 -2.0245
10020TIP3   OH251550   0.510   1.498  16.505 -0.5816  0.0061 -0.3081
10020TIP3    H151551   0.569   1.425  16.523 -1.5298 -0.6415  0.2758
10020TIP3    H251552   0.442   1.491  16.572  0.2767  2.5264  0.9370
10021TIP3   OH251553   1.361   5.501   5.670  0.4075  0.9145 -0.4100
10021TIP3    H151554   1.412   5.463   5.741  1.1521 -0.7528 -1.7612
10021TIP3    H251555   1.275   5.519   5.708  1.5858  2.7776  1.6385
10022TIP3   OH251556   4.704   6.691   2.418 -0.1305 -0.4746 -0.0627
10022TIP3    H151557   4.664   6.749   2.354  2.3943  1.4841  0.0018
10022TIP3    H251558   4.798   6.700   2.405  0.4615 -1.5347  2.6055
10023TIP3   OH251559   0.928   0.435   4.380  0.1266 -0.2605 -0.0914
10023TIP3    H151560   0.996   0.479   4.329 -1.6876  0.5658 -1.9627
10023TIP3    H251561   0.940   0.467   4.469  1.6248  0.5345 -0.5469
10024TIP3   OH251562   1.059   3.238  10.532  0.1896  1.3062  0.1333
10024TIP3    H151563   1.095   3.249  10.620  1.4796 -0.5984 -0.1075
10024TIP3    H251564   1.125   3.187  10.485 -1.1335  1.0113 -1.5085
10025TIP3   OH251565   4.693   1.140  16.800 -0.6390  0.0222  0.6638
10025TIP3    H151566   4.743   1.122  16.720 -0.4627  1.6579  0.3680
10025TIP3    H251567   4.629   1.069  16.804  0.7233 -1.2912  0.2407
10026TIP3   OH251568   5.311   3.249  12.905  0.1871  0.0850 -0.8160
10026TIP3    H151569   5.233   3.195  12.913 -0.1509  0.5267 -1.0838
10026TIP3    H251570   5.361   3.210  12.833 -0.1111  0.1958 -1.0844
10027TIP3   OH251571   1.372   2.426   5.519  0.3264 -0.4976 -0.1325
10027TIP3    H151572   1.456   2.473   5.517  0.7751 -1.2962 -2.7220
10027TIP3    H251573   1.395   2.335   5.532 -0.2671 -0.5534  0.6062
10028TIP3   OH251574   5.131   1.561   0.226 -0.2091 -0.1207  0.1616
10028TIP3    H151575   5.136   1.467   0.240 -0.7043 -0.0972  0.5291
10028TIP3    H251576   5.208   1.582   0.174 -0.4816 -0.8388 -0.5507
10029TIP3   OH251577   5.486   2.375   1.200  0.3908 -0.2082  0.4480
10029TIP3    H151578   5.501   2.338   1.113  0.4181 -1.3927  0.9257
10029TIP3    H251579   5.573   2.380   1.239  0.2597 -0.9180  0.8614
10030TIP3   OH251580   3.298   3.548   0.355 -0.1043 -0.3643 -0.5000
10030TIP3    H151581   3.385   3.584   0.376  0.0473 -0.3247 -1.1922
10030TIP3    H251582   3.242   3.625   0.347 -0.1463 -0.3753 -0.3125
10031TIP3   OH251583   4.865   0.462   1.260  0.2663  0.5517 -1.1534
10031TIP3    H151584   4.836   0.371   1.253 -1.8627  1.1012 -0.0567
10031TIP3    H251585   4.792   0.513   1.226 -0.0360  2.0092  1.4878
10032TIP3   OH251586   3.755   3.465  13.473  0.4780  0.3723  0.3252
10032TIP3    H151587   3.826   3.421  13.520  0.6594 -2.5246 -2.3266
10032TIP3    H251588   3.676   3.416  13.497  0.0360  0.9992  0.1815
10033TIP3   OH251589   1.910   0.741   4.235 -0.1515  0.3567 -0.1921
10033TIP3    H151590   1.833   0.706   4.278  0.5994 -0.7673  0.2844
10033TIP3    H251591   1.981   0.683   4.261  1.0270  1.8216  0.0373
10034TIP3   OH251592   6.432   2.295  13.657  1.2491  0.0005 -0.8446
10034TIP3    H151593   6.441   2.221  13.716 -1.5408  0.3267  0.1645
10034TIP3    H251594   6.483   2.365  13.698 -0.3084  0.1040  1.0930
10035TIP3   OH251595   1.445   5.099  16.356  0.2960  0.1309  0.1886
10035TIP3    H151596   1.527   5.149  16.362 -0.8518  2.0975  0.2186
10035TIP3    H251597   1.378   5.164  16.336 -1.1838 -1.5353 -0.5606
10036TIP3   OH251598   5.269   5.765   3.231  0.1556  0.4631  0.4392
10036TIP3    H151599   5.322   5.748   3.309  0.1571 -2.2591 -0.0390
10036TIP3    H251600   5.332   5.794   3.165  0.0785  3.3343  1.5074
10037TIP3   OH251601   3.086   0.398   1.153 -0.4694  0.1348 -0.3424
10037TIP3    H151602   3.059   0.489   1.141  1.6836  0.8243 -0.4942
10037TIP3    H251603   3.181   0.400   1.138 -0.2352 -1.9691  0.5887
10038TIP3   OH251604   5.077   2.191  12.991  0.4547  0.5867  0.3675
10038TIP3    H151605   5.101   2.218  12.902  1.1018  0.6725  0.5638
10038TIP3    H251606   5.082   2.271  13.043  1.0870  0.3444  0.6862
10039TIP3   OH251607   0.281   2.857   1.792  0.1701  0.1711  0.0648
10039TIP3    H151608   0.347   2.874   1.725  1.2637 -1.4393  0.6624
10039TIP3    H251609   0.199   2.843   1.743  0.0900  2.7527 -0.6467
10040TIP3   OH251610   4.608   4.905  14.081  0.4634 -0.0805  0.2762
10040TIP3    H151611   4.587   4.906  13.987 -2.4124  0.1281  0.8359
10040TIP3    H251612   4.523   4.891  14.124  1.7574 -0.5041  2.8526
10041TIP3   OH251613   3.281   0.921   4.710  0.1425 -0.3807  0.4262
10041TIP3    H151614   3.264   0.852   4.775  0.1194 -1.0018 -0.2263
10041TIP3    H251615   3.313   0.995   4.762  0.6703 -1.0541  1.0885
10042TIP3   OH251616   1.625   1.565  13.222 -0.2949  0.1290  0.0181
10042TIP3    H151617   1.535   1.548  13.196 -0.5184 -0.5721  1.1500
10042TIP3    H251618   1.618   1.618  13.301  0.1965 -1.3676  1.1209
10043TIP3   OH251619   6.416   3.063   0.361 -0.6661  0.5737  0.1371
10043TIP3    H151620   6.384   3.107   0.440 -0.0773 -2.2138  2.0849
10043TIP3    H251621   6.342   3.008   0.334  0.1640 -0.8494  0.6723
10044TIP3   OH251622   6.237   5.480  14.621 -0.0313 -0.3975 -0.5122
10044TIP3    H151623   6.242   5.534  14.700  0.6507 -0.9064 -0.1973
10044TIP3    H251624   6.170   5.414  14.641  0.5857 -0.9148 -0.1007
10045TIP3   OH251625   5.469   1.720   4.382 -0.1816  0.5218  0.1208
10045TIP3    H151626   5.447   1.696   4.472  0.4164 -1.0166 -0.1020
10045TIP3    H251627   5.547   1.774   4.390 -0.3811  0.7560  0.5454
10046TIP3   OH251628   0.826   3.668   0.993 -0.1670 -0.2840  0.2277
10046TIP3    H151629   0.868   3.750   0.966  0.9844 -0.7441  0.5601
10046TIP3    H251630   0.742   3.695   1.029  0.4801  0.8200  0.9694
10047TIP3   OH251631   5.888   4.450  11.611  0.3300  0.4794  0.0521
10047TIP3    H151632   5.825   4.512  11.649  0.4299  1.2549 -1.0112
10047TIP3    H251633   5.964   4.504  11.589  0.5138 -0.0569 -0.6562
10048TIP3   OH251634   0.530   4.677  16.797  0.0926  0.4969 -0.8549
10048TIP3    H151635   0.500   4.739  16.864 -0.2934  1.8096 -2.2010
10048TIP3    H251636   0.488   4.706  16.717  0.0364 -1.4458 -1.5656
10049TIP3   OH251637   5.810   1.100  11.997 -0.3355  0.3534 -0.0208
10049TIP3    H151638   5.876   1.160  11.962  0.7783 -0.9254 -0.1850
10049TIP3    H251639   5.753   1.080  11.923  0.3028 -0.1090 -0.3887
10050TIP3   OH251640   0.780   6.193   4.047 -0.7263 -0.0814 -0.3081
10050TIP3    H151641   0.760   6.149   3.964 -0.3620  0.8610 -0.9169
10050TIP3    H251642   0.734   6.141   4.113 -0.9347 -0.9198 -1.0806
10051TIP3   OH251643   5.041   0.873   5.536  0.2783  0.2467 -0.1712
10051TIP3    H151644   5.134   0.871   5.514  0.5681  1.9831  0.7152
10051TIP3    H251645   4.997   0.891   5.452  1.0342  2.5964 -0.1487
10052TIP3   OH251646   6.755   5.859  13.438  0.7081  0.0380 -0.0826
10052TIP3    H151647   6.675   5.906  13.460 -0.0389 -0.4281 -1.6469
10052TIP3    H251648   6.814   5.874  13.512 -1.0866 -0.2576  1.4642
10053TIP3   OH251649   1.252   6.035  13.225  0.4741  0.2164  0.5202
10053TIP3    H151650   1.208   6.081  13.297 -1.3927 -0.8268  0.0894
10053TIP3    H251651   1.280   5.952  13.263 -0.2804 -0.2253  0.1273
10054TIP3   OH251652   6.468   5.341   0.423  0.3680  0.3309 -0.4573
10054TIP3    H151653   6.483   5.249   0.403 -1.8647 -0.0628 -0.5874
10054TIP3    H251654   6.555   5.379   0.431  1.3342 -1.5347 -1.5762
10055TIP3   OH251655   3.872   5.152   1.959  0.4373 -0.1224 -0.0794
10055TIP3    H151656   3.880   5.083   1.894 -0.3732  0.7794 -1.1823
10055TIP3    H251657   3.959   5.192   1.964  0.9029 -1.1689  0.5489
10056TIP3   OH251658   3.105   4.357   5.323 -0.6726 -0.2792 -0.1925
10056TIP3    H151659   3.159   4.349   5.245  0.7683 -0.4242  0.7916
10056TIP3    H251660   3.153   4.311   5.391 -1.2799  0.9029  1.0901
10057TIP3   OH251661   0.980   3.055  16.138  0.4863  0.1418 -0.1477
10057TIP3    H151662   0.932   2.977  16.111  1.3915 -0.4745 -0.0164
10057TIP3    H251663   0.993   3.105  16.058  0.0880  0.0527 -0.2678
10058TIP3   OH251664   1.963   3.415   3.931  0.3452 -0.1308 -0.0372
10058TIP3    H151665   2.041   3.470   3.941 -0.3509  0.9649 -0.3903
10058TIP3    H251666   1.913   3.458   3.862 -0.6194 -0.7524  0.2609
10059TIP3   OH251667   3.841   5.401  15.817 -0.1480  0.3052 -0.0148
10059TIP3    H151668   3.867   5.309  15.831  1.0214  0.5443 -0.4899
10059TIP3    H251669   3.779   5.397  15.745  1.3499  0.0443 -1.3444
10060TIP3   OH251670   0.751   0.056  15.677  0.5595 -0.0823 -0.1597
10060TIP3    H151671   0.744   0.151  15.676 -0.8999 -0.1546 -1.6972
10060TIP3    H251672   0.685   0.027  15.614  2.0009 -2.0570 -0.8446
10061TIP3   OH251673   3.991   0.337  11.449 -0.3155 -0.0958 -0.4621
10061TIP3    H151674   3.960   0.387  11.374  1.2167  1.1621 -0.3002
10061TIP3    H251675   3.920   0.343  11.513 -1.4655 -0.8400 -1.6138
10062TIP3   OH251676   0.168   1.695   5.098  0.2102  0.0238 -0.4415
10062TIP3    H151677   0.213   1.679   5.015 -0.9344  1.9598 -1.5059
10062TIP3    H251678   0.099   1.629   5.100  1.5714 -1.4574  0.0888
10063TIP3   OH251679   4.349   6.009  10.848 -0.0186 -0.3556 -0.3757
10063TIP3    H151680   4.321   6.006  10.939 -0.2641 -1.7020 -0.4714
10063TIP3    H251681   4.348   5.917  10.819 -1.2838  0.1514 -2.1327
10064TIP3   OH251682   3.201   6.144   4.767 -0.6642 -0.1589 -0.6754
10064TIP3    H151683   3.177   6.063   4.813  1.1670 -0.9753 -1.0790
10064TIP3    H251684   3.235   6.114   4.683  0.8018  0.9653 -0.5152
10065TIP3   OH251685   2.337   1.876   4.275  0.3174  0.1047  0.0676
10065TIP3    H151686   2.422   1.907   4.244  0.5417  0.5417  1.0861
10065TIP3    H251687   2.309   1.813   4.209  0.6086  1.2616 -1.2121
10066TIP3   OH251688   5.083   4.626   5.340  0.8282 -0.6632 -0.0731
10066TIP3    H151689   5.030   4.703   5.318  2.8689  0.5638 -1.0014
10066TIP3    H251690   5.085   4.624   5.436 -0.0014 -0.1223 -0.0367
10067TIP3   OH251691   0.547   1.715   5.142 -0.4971 -0.1353  0.1520
10067TIP3    H151692   0.481   1.657   5.105 -1.5645  1.0386  0.1405
10067TIP3    H251693   0.565   1.779   5.073  1.0091 -0.6920 -0.0124
10068TIP3   OH251694   0.098   4.890  15.020  0.3464 -0.0931 -0.0904
10068TIP3    H151695   0.138   4.811  14.984 -1.6313 -1.3123  0.2340
10068TIP3    H251696   0.041   4.858  15.090 -0.0085  1.6959  0.4788
10069TIP3   OH251697   0.839   0.273  12.606  0.0657  0.5042  0.3689
10069TIP3    H151698   0.931   0.246  12.603 -0.4855 -1.4944 -1.5903
10069TIP3    H251699   0.797   0.207  12.662 -0.5940 -0.3947 -1.0908
10070TIP3   OH251700   3.146   6.471  12.953  0.3194  0.4426 -0.5824
10070TIP3    H151701   3.055   6.501  12.956  0.5274  1.1590 -0.9722
10070TIP3    H251702   3.159   6.443  12.863  0.1851 -0.6922 -0.2653
10071TIP3   OH251703   2.920   6.787   4.286 -0.6221 -0.3104  0.5665
10071TIP3    H151704   2.900   6.869   4.331  3.4314  0.3570  1.5208
10071TIP3    H251705   2.945   6.814   4.197 -1.6207 -0.8472  0.1003
10072TIP3   OH251706   0.380   3.064   3.342 -0.2841 -0.2706  0.7451
10072TIP3    H151707   0.415   3.152   3.332  0.3770 -0.8119 -3.5441
10072TIP3    H251708   0.438   3.022   3.405  1.4346  1.4099  0.3680
10073TIP3   OH251709   5.682   4.922  17.075 -0.2514 -0.1705 -0.3109
10073TIP3    H151710   5.656   4.870  17.152 -0.6395 -0.1344 -0.4166
10073TIP3    H251711   5.608   4.914  17.015  0.4280 -0.9748 -1.0803
10074TIP3   OH251712   4.367   0.955  14.707  0.3718  0.4889  0.1663
10074TIP3    H151713   4.355   0.913  14.793  2.0277 -0.3603  0.0214
10074TIP3    H251714   4.459   0.943  14.688  0.0351  0.7219 -1.7377
10075TIP3   OH251715   6.217   4.426   1.744  0.4491  0.0703  0.5271
10075TIP3    H151716   6.264   4.452   1.823  1.3667  2.4739 -0.7042
10075TIP3    H251717   6.139   4.483   1.742 -0.5711 -1.2644  0.6152
10076TIP3   OH251718   6.006   4.897  16.892  0.6379  0.6491  0.5158
10076TIP3    H151719   6.098   4.924  16.898  0.2528  2.0184  0.6667
10076TIP3    H251720   5.997   4.826  16.955  1.7141  0.1379  0.1101
10077TIP3   OH251721   2.682   1.735   2.049  0.1158  0.4490 -0.3332
10077TIP3    H151722   2.639   1.818   2.066 -1.1247 -0.4662  1.2976
10077TIP3    H251723   2.759   1.758   1.996 -1.7054  2.2573 -2.3643
10078TIP3   OH251724   2.664   0.148   3.625 -0.6034 -0.0742  0.0836
10078TIP3    H151725   2.615   0.068   3.609  1.6058 -1.5533  0.2509
10078TIP3    H251726   2.726   0.154   3.553  1.4044 -0.3054  1.6966
10079TIP3   OH251727   1.345   2.091   1.046 -0.1891  0.3847 -0.3589
10079TIP3    H151728   1.360   2.145   1.124 -1.4988 -0.5299  0.5551
10079TIP3    H251729   1.430   2.050   1.029  0.1852  0.8210  0.3943
10080TIP3   OH251730   5.739   3.313  12.836  0.2965  0.0460 -0.7282
10080TIP3    H151731   5.684   3.234  12.835 -0.1732  0.3677 -1.2757
10080TIP3    H251732   5.810   3.292  12.896 -0.5998 -0.2663  0.2562
10081TIP3   OH251733   6.527   6.105  16.431 -0.2572  0.6367 -0.5411
10081TIP3    H151734   6.587   6.168  16.391 -1.0004  1.6189 -0.1808
10081TIP3    H251735   6.545   6.022  16.387  1.0165  1.0140 -0.7636
10082TIP3   OH251736   6.554   4.161  16.563  0.3687 -0.7390 -0.1321
10082TIP3    H151737   6.535   4.071  16.537  0.0424 -0.4956 -0.7541
10082TIP3    H251738   6.521   4.167  16.653 -0.3663 -0.9998 -0.3773
10083TIP3   OH251739   2.437   4.683  16.675 -0.1911 -0.0213 -0.3349
10083TIP3    H151740   2.347   4.652  16.691 -1.0084  2.7104  1.0812
10083TIP3    H251741   2.425   4.768  16.633  1.8292 -0.3899 -1.7737
10084TIP3   OH251742   2.457   4.848  11.921  0.2138  0.9663 -0.4806
10084TIP3    H151743   2.432   4.821  11.833 -0.2780  1.0002 -0.3540
10084TIP3    H251744   2.400   4.922  11.941 -1.5041 -0.5819  0.8186
10085TIP3   OH251745   5.343   6.053  16.445  0.2977  0.4219 -0.0501
10085TIP3    H151746   5.418   6.088  16.396  1.0392  0.1602  0.8675
10085TIP3    H251747   5.370   5.964  16.468 -0.8491 -0.1669 -0.8456
10086TIP3   OH251748   1.994   2.202   4.943  0.0546 -0.6516 -0.2878
10086TIP3    H151749   1.904   2.235   4.936 -0.0521 -0.2934  1.9772
10086TIP3    H251750   1.983   2.112   4.974  0.4642 -0.3868  0.6593
10087TIP3   OH251751   2.814   5.672  12.226 -0.7946 -0.3261  0.4114
10087TIP3    H151752   2.729   5.716  12.228 -0.3052  0.6501  0.2658
10087TIP3    H251753   2.857   5.699  12.306 -0.4782 -0.5423  0.3152
10088TIP3   OH251754   4.077   5.079  13.712 -0.2295  0.7490 -0.3374
10088TIP3    H151755   4.157   5.027  13.708 -0.6099 -0.2044  2.4277
10088TIP3    H251756   4.107   5.166  13.741 -0.2144  0.1377  1.6186
10089TIP3   OH251757   1.029   2.512  16.431 -0.2105  0.3484  0.3401
10089TIP3    H151758   1.027   2.474  16.519 -0.0579  0.6941  0.4938
10089TIP3    H251759   0.945   2.557  16.423 -0.2669  0.2305  0.2690
10090TIP3   OH251760   1.825   3.316   1.008  0.2628  0.1364  0.3683
10090TIP3    H151761   1.802   3.341   0.919  1.1973 -1.5666 -0.3922
10090TIP3    H251762   1.920   3.304   1.005  0.1455 -1.1908  1.2498
10091TIP3   OH251763   4.138   5.893  15.415  0.1218 -0.7437 -0.0859
10091TIP3    H151764   4.147   5.937  15.499  0.1563  0.6364 -0.7891
10091TIP3    H251765   4.112   5.804  15.437 -0.8216 -0.1366  1.3496
10092TIP3   OH251766   0.808   3.120  14.372 -0.4653 -0.0164 -0.1678
10092TIP3    H151767   0.715   3.139  14.387  0.0418  3.1371 -0.3507
10092TIP3    H251768   0.854   3.196  14.408  1.9192 -0.5938 -1.7880
10093TIP3   OH251769   5.232   5.942  11.519 -0.2868 -0.2194  0.4526
10093TIP3    H151770   5.282   6.012  11.479 -0.1030 -0.0291  0.9991
10093TIP3    H251771   5.141   5.970  11.512 -0.3762 -0.7693 -0.9393
10094TIP3   OH251772   2.565   2.045  16.122 -0.3282 -0.5619  0.4485
10094TIP3    H151773   2.624   2.113  16.154  0.5071 -2.0346  2.2218
10094TIP3    H251774   2.497   2.093  16.075  2.3641  1.2024 -1.9744
10095TIP3   OH251775   5.880   3.654  11.947 -0.1432 -0.3597 -0.0556
10095TIP3    H151776   5.891   3.646  11.852 -0.4699  0.8256 -0.2160
10095TIP3    H251777   5.964   3.687  11.978 -0.1397 -0.4393  0.0186
10096TIP3   OH251778   1.245   6.564  15.565 -0.0643 -0.0076  0.2005
10096TIP3    H151779   1.241   6.571  15.660 -1.8680  1.2920  0.0829
10096TIP3    H251780   1.278   6.475  15.549  0.5182 -0.1532  2.0225
10097TIP3   OH251781   2.286   2.122  12.166 -0.1665 -0.5039  0.1550
10097TIP3    H151782   2.212   2.172  12.132 -0.9773 -2.2725 -0.8202
10097TIP3    H251783   2.314   2.067  12.093  0.3925 -1.8006  1.2957
10098TIP3   OH251784   0.346   2.252  16.962 -0.3532  1.2401  0.2448
10098TIP3    H151785   0.399   2.330  16.975  0.1565  1.1770 -1.1978
10098TIP3    H251786   0.408   2.179  16.971  0.2230  1.2114 -2.7929
10099TIP3   OH251787   1.287   4.313   0.038  0.4271 -0.3152 -0.2363
10099TIP3    H151788   1.347   4.302  -0.035  0.3143  0.6782 -0.4837
10099TIP3    H251789   1.226   4.239   0.030  1.8614 -1.6266  0.2986
10100TIP3   OH251790   3.528   3.312  14.782 -0.6857 -0.7868 -0.2303
10100TIP3    H151791   3.503   3.231  14.736  0.0875 -1.7086  0.9243
10100TIP3    H251792   3.465   3.318  14.854  0.9807 -1.9788  1.4249
10101TIP3   OH251793   4.039   0.115  12.373  0.4700  0.7259  0.0603
10101TIP3    H151794   4.033   0.199  12.327 -0.1301  0.3613 -0.5523
10101TIP3    H251795   3.980   0.057  12.324  0.8766 -0.0505  0.4771
10102TIP3   OH251796   1.109   3.808  15.949  0.2472  0.3161  0.3987
10102TIP3    H151797   1.022   3.842  15.971 -0.0955  1.1822 -1.9643
10102TIP3    H251798   1.168   3.853  16.009 -0.9521 -1.0331  2.7378
10103TIP3   OH251799   1.000   4.378  14.469  0.0882 -0.4069  0.2838
10103TIP3    H151800   0.951   4.449  14.427 -0.4028 -0.9553 -0.0955
10103TIP3    H251801   0.998   4.307  14.405  1.2752 -0.4903  0.3237
10104TIP3   OH251802   0.070   3.396   2.889  0.2857  0.3933 -0.0389
10104TIP3    H151803   0.159   3.414   2.918  0.3141 -0.2180  0.2695
10104TIP3    H251804   0.051   3.465   2.826  0.9358  0.5966 -0.0198
10105TIP3   OH251805   1.381   2.738   2.948  0.3052  0.0840  0.1637
10105TIP3    H151806   1.384   2.773   2.859 -2.6920  2.7909  0.9347
10105TIP3    H251807   1.337   2.654   2.939 -0.9708  0.8249 -0.8605
10106TIP3   OH251808   1.275   2.089  15.702  0.1084  0.1028 -0.2559
10106TIP3    H151809   1.253   2.035  15.627 -0.8064  0.6169 -0.3806
10106TIP3    H251810   1.363   2.122  15.684  1.5926 -2.9038  0.7595
10107TIP3   OH251811   5.720   2.646  12.732 -0.3159 -0.4683 -0.8608
10107TIP3    H151812   5.637   2.625  12.690 -2.2628  0.4930  2.1500
10107TIP3    H251813   5.697   2.706  12.802  3.0936  0.5400 -0.4068
10108TIP3   OH251814   5.940   2.976   6.371 -0.5360  0.2442 -0.2280
10108TIP3    H151815   5.907   2.889   6.352  2.0365 -1.2963  1.7446
10108TIP3    H251816   6.005   2.993   6.303 -1.2921  0.8375 -0.8259
10109TIP3   OH251817   1.325   3.404   0.760  0.1939 -0.3804 -0.2966
10109TIP3    H151818   1.420   3.413   0.770  0.1240 -1.0248  1.1610
10109TIP3    H251819   1.306   3.314   0.787 -0.8665 -0.1743 -0.3105
10110TIP3   OH251820   2.058   6.311  12.224  0.2993  0.5954 -0.2918
10110TIP3    H151821   2.146   6.320  12.188  0.1424  0.4714 -0.7162
10110TIP3    H251822   2.000   6.331  12.150 -0.0269  0.7282 -0.0017
10111TIP3   OH251823   6.322   4.602   3.096  0.0913 -0.2720  0.1113
10111TIP3    H151824   6.260   4.658   3.143  0.5316 -1.4689  2.2505
10111TIP3    H251825   6.274   4.520   3.083  1.0535 -1.0897  1.4780
10112TIP3   OH251826   2.943   1.487  13.288 -0.7234  0.5568  0.2570
10112TIP3    H151827   3.033   1.457  13.301 -0.9676 -1.4673 -1.9699
10112TIP3    H251828   2.902   1.478  13.374  1.0889  1.2114  1.2413
10113TIP3   OH251829   0.385   1.669  14.319  0.4792 -0.4868 -0.3620
10113TIP3    H151830   0.384   1.666  14.415  2.1572 -1.3319 -0.3372
10113TIP3    H251831   0.447   1.601  14.293  1.5961  1.0423 -1.9759
10114TIP3   OH251832   2.802   5.739   1.957  0.3925 -0.5798 -0.0805
10114TIP3    H151833   2.855   5.771   2.030  0.3469  0.3992 -0.4670
10114TIP3    H251834   2.750   5.814   1.930 -0.1562 -1.1401 -0.6357
10115TIP3   OH251835   0.896   3.049   5.239 -0.3290  0.2618  0.2696
10115TIP3    H151836   0.897   3.047   5.143 -1.0440  0.5324  0.2502
10115TIP3    H251837   0.916   2.959   5.264  3.2850  0.8169 -0.0528
10116TIP3   OH251838   4.269   5.197  16.222  0.1742 -0.4148  0.1343
10116TIP3    H151839   4.325   5.125  16.252  0.8126 -0.1436 -0.3932
10116TIP3    H251840   4.194   5.153  16.182  0.7989 -0.8070 -0.6409
10117TIP3   OH251841   6.381   0.529  13.494 -0.3075  0.6621 -0.8153
10117TIP3    H151842   6.449   0.540  13.561 -1.5528 -0.4457  0.7126
10117TIP3    H251843   6.299   0.541  13.542 -1.2709 -1.3629 -1.8712
10118TIP3   OH251844   1.318   0.343   4.259  0.1819  0.2576 -0.5504
10118TIP3    H151845   1.407   0.335   4.225  0.4760  1.0562 -0.0038
10118TIP3    H251846   1.316   0.428   4.302 -0.3633 -0.4424  0.8713
10119TIP3   OH251847   2.364   0.182  11.203  0.0522 -0.2666 -0.5383
10119TIP3    H151848   2.377   0.115  11.136  0.9392 -0.3796 -0.2697
10119TIP3    H251849   2.453   0.210  11.226 -0.2114 -0.4903  0.8359
10120TIP3   OH251850   5.863   1.794   4.867 -0.3127 -0.1841  0.2287
10120TIP3    H151851   5.877   1.828   4.956 -1.7936 -2.5577  1.4984
10120TIP3    H251852   5.786   1.842   4.835 -0.7339 -0.3854  0.9036
10121TIP3   OH251853   2.393   0.618   4.648 -0.9156 -0.5559 -0.3432
10121TIP3    H151854   2.369   0.693   4.593  0.0505  0.3101  0.3845
10121TIP3    H251855   2.360   0.542   4.600  0.2132  0.1399 -2.3288
10122TIP3   OH251856   2.420   1.585  16.313 -0.2230  0.0330  0.4315
10122TIP3    H151857   2.357   1.655  16.330  0.5552  0.8738 -0.0624
10122TIP3    H251858   2.494   1.628  16.271  0.1717 -1.1274 -0.1381
10123TIP3   OH251859   2.348   3.134  13.509  0.0133 -0.2659 -0.5291
10123TIP3    H151860   2.286   3.084  13.456 -0.9078  0.1943  0.0983
10123TIP3    H251861   2.350   3.221  13.469 -0.1094 -0.1412 -0.2668
10124TIP3   OH251862   3.445   0.804  11.442 -0.1079  0.4480 -0.2804
10124TIP3    H151863   3.393   0.858  11.383  0.1355 -0.5529 -1.4734
10124TIP3    H251864   3.402   0.719  11.441 -1.3319  0.9074  2.6929
10125TIP3   OH251865   0.551   5.894   1.598 -0.1460  0.5468 -0.2517
10125TIP3    H151866   0.552   5.953   1.522  0.3117  2.5628  1.2256
10125TIP3    H251867   0.640   5.859   1.602 -0.1644  0.4516 -0.6287
10126TIP3   OH251868   2.516   0.644   1.715 -0.2352  0.1027  0.5633
10126TIP3    H151869   2.507   0.739   1.700  0.5275  0.3026  1.2749
10126TIP3    H251870   2.465   0.627   1.793 -1.9108 -0.4322 -0.6078
10127TIP3   OH251871   0.547   4.464  13.969  0.3112  0.4799  0.4857
10127TIP3    H151872   0.466   4.413  13.978 -0.4907  1.5120 -0.5550
10127TIP3    H251873   0.608   4.404  13.927 -0.3640  0.1035  0.0194
10128TIP3   OH251874   2.054   0.017  15.290  0.2225  0.4644  0.3261
10128TIP3    H151875   2.126   0.064  15.249  0.4675 -1.2483 -1.3831
10128TIP3    H251876   2.086  -0.073  15.298 -1.1917 -0.0208  0.8801
10129TIP3   OH251877   2.285   4.286   4.254  0.0255  0.2106  0.1183
10129TIP3    H151878   2.345   4.293   4.329  0.4311  0.3527 -0.2203
10129TIP3    H251879   2.199   4.273   4.294  0.0783  1.4047  0.6376
10130TIP3   OH251880   4.736   2.887   5.901  0.0530 -0.0352 -0.1921
10130TIP3    H151881   4.783   2.914   5.980  0.2998 -2.1582  0.4530
10130TIP3    H251882   4.693   2.805   5.925 -2.0738  0.6198 -1.4940
10131TIP3   OH251883   0.244   5.243  14.077 -0.1981  0.2993  0.3970
10131TIP3    H151884   0.163   5.195  14.092  0.6038 -0.5496  2.2896
10131TIP3    H251885   0.293   5.188  14.016 -0.2085 -0.2019  0.8340
10132TIP3   OH251886   0.114   5.252   2.364  0.6971 -0.7571 -0.3773
10132TIP3    H151887   0.042   5.231   2.305  1.2036 -0.9935 -0.9200
10132TIP3    H251888   0.149   5.166   2.389  0.8486 -0.6402 -0.1857
10133TIP3   OH251889   4.590   6.539  15.928  0.1019 -0.1914  0.5253
10133TIP3    H151890   4.554   6.452  15.910 -1.0801 -0.1409  2.3585
10133TIP3    H251891   4.574   6.552  16.021  0.5940  1.8588  0.3610
10134TIP3   OH251892   5.136   0.231  10.632  0.0084  0.4366 -0.0270
10134TIP3    H151893   5.219   0.185  10.621  0.6820  1.3227  1.0779
10134TIP3    H251894   5.087   0.213  10.551  1.4928  0.3455 -0.9390
10135TIP3   OH251895   0.737   0.038   0.179  0.2805  0.3589 -0.6781
10135TIP3    H151896   0.660  -0.010   0.210 -0.6365  0.9867 -1.8995
10135TIP3    H251897   0.759   0.096   0.253 -0.6557  0.4269 -0.4307
10136TIP3   OH251898   6.237   3.637  11.454  0.2407 -0.1697 -0.5004
10136TIP3    H151899   6.290   3.597  11.385 -0.4052  0.2047 -1.2242
10136TIP3    H251900   6.159   3.582  11.459 -0.5740  0.8788 -1.3806
10137TIP3   OH251901   4.766   0.452  13.813 -0.5670 -0.0143  0.3103
10137TIP3    H151902   4.794   0.535  13.850  0.0393  0.0278 -0.2252
10137TIP3    H251903   4.740   0.400  13.888 -2.0534  1.0457  0.5717
10138TIP3   OH251904   3.055   0.865  17.236  1.0389  0.6468  0.2016
10138TIP3    H151905   3.091   0.789  17.191 -0.3590 -0.1418  0.3447
10138TIP3    H251906   3.130   0.922  17.251  1.6670  0.6833 -2.5622
10139TIP3   OH251907   5.995   1.461   1.958  0.8361 -0.8994  0.2366
10139TIP3    H151908   5.939   1.402   1.908 -1.4694  0.5922  0.9126
10139TIP3    H251909   5.979   1.437   2.050  2.2268 -1.1829  0.4347
10140TIP3   OH251910   0.760   2.295  17.114 -0.3395 -0.1321  0.0579
10140TIP3    H151911   0.796   2.234  17.049 -0.4903  0.3811 -0.5261
10140TIP3    H251912   0.818   2.371  17.109  0.1650 -0.4217  1.1593
10141TIP3   OH251913   2.783   0.169   1.963  0.0238  0.6460 -0.3728
10141TIP3    H151914   2.738   0.251   1.979 -1.4840  0.0450 -1.3492
10141TIP3    H251915   2.740   0.132   1.885 -0.3564 -1.7520  0.8710
10142TIP3   OH251916   4.743   2.587   1.381 -0.4960  0.4437 -0.2936
10142TIP3    H151917   4.729   2.668   1.331 -0.3883 -0.0073 -1.0837
10142TIP3    H251918   4.815   2.608   1.440 -1.6686  1.4853  0.8377
10143TIP3   OH251919   0.242   0.649   3.496  0.4931  0.3340  0.0161
10143TIP3    H151920   0.157   0.653   3.452  0.7063  0.6064 -0.3731
10143TIP3    H251921   0.223   0.606   3.580  0.0662 -0.0895 -0.2881
10144TIP3   OH251922   2.129   3.010  16.038 -0.0157  0.1355  0.0143
10144TIP3    H151923   2.049   3.003  16.089 -0.3094  0.1003 -0.4418
10144TIP3    H251924   2.184   3.072  16.086  0.4748 -1.2751  1.3508
10145TIP3   OH251925   4.618   6.378   4.998  0.2994  0.2696  0.2463
10145TIP3    H151926   4.619   6.292   5.040 -3.3126 -0.0798 -0.0295
10145TIP3    H251927   4.673   6.368   4.920 -1.3504 -2.4171 -0.7088
10146TIP3   OH251928   4.253   1.616   4.521  0.6869 -0.2515  0.0298
10146TIP3    H151929   4.274   1.533   4.479  0.3164 -0.4295  0.1892
10146TIP3    H251930   4.201   1.664   4.457 -0.1738 -0.6651  0.3999
10147TIP3   OH251931   5.732   5.912  14.438 -0.0198  0.0645  0.2004
10147TIP3    H151932   5.748   5.874  14.351  0.0073 -0.0515  0.2566
10147TIP3    H251933   5.647   5.956  14.429  0.0155  0.1127  0.0960
10148TIP3   OH251934   3.047   4.755   0.403 -0.2004 -0.0878  0.3035
10148TIP3    H151935   3.023   4.672   0.362  0.7277  0.5831 -1.7263
10148TIP3    H251936   3.081   4.809   0.331  0.5067  1.5675  1.7897
10149TIP3   OH251937   1.728   0.064   3.924  0.1669 -0.0453 -0.2043
10149TIP3    H151938   1.666  -0.002   3.893  0.2999  0.8988 -2.6757
10149TIP3    H251939   1.679   0.146   3.923  0.5544  0.2139  0.9396
10150TIP3   OH251940   0.179   0.139  13.632 -0.4936 -0.4034  0.0331
10150TIP3    H151941   0.209   0.060  13.587 -1.9162 -1.6123  1.1058
10150TIP3    H251942   0.171   0.113  13.724  2.2666  1.9645  1.0953
10151TIP3   OH251943   6.493   4.061   1.500  0.0976  0.4318  0.2336
10151TIP3    H151944   6.583   4.092   1.501 -0.5560  2.5294  1.9179
10151TIP3    H251945   6.477   4.030   1.589 -0.7935 -0.0619 -0.0874
10152TIP3   OH251946   1.025   4.671   2.496  0.0635  0.2828 -0.9100
10152TIP3    H151947   1.068   4.693   2.413  1.6572  0.1588 -0.1468
10152TIP3    H251948   1.022   4.575   2.496  1.9420  0.1737  0.0358
10153TIP3   OH251949   2.385   4.939  16.022  0.0842  0.2804 -0.3426
10153TIP3    H151950   2.358   4.880  16.092 -0.9133  1.6368  0.4544
10153TIP3    H251951   2.466   4.901  15.989  0.4638 -0.5115  1.3881
10154TIP3   OH251952   1.916   0.156   4.133 -0.0938 -0.0119 -0.4432
10154TIP3    H151953   1.901   0.250   4.136  1.3609  0.3139 -2.0930
10154TIP3    H251954   1.866   0.126   4.057  0.3855 -0.3791 -0.6176
10155TIP3   OH251955   3.404   6.583   0.674 -0.1291 -0.4159  0.3670
10155TIP3    H151956   3.406   6.498   0.631  0.2592 -0.0844 -0.2975
10155TIP3    H251957   3.312   6.601   0.690 -0.3321 -0.3296 -0.8050
10156TIP3   OH251958   6.203   0.720   5.112  0.6460  0.1117  0.0983
10156TIP3    H151959   6.147   0.756   5.180 -0.5758  0.6497 -1.1339
10156TIP3    H251960   6.285   0.768   5.120  0.2143  0.7713  0.6299
10157TIP3   OH251961   0.136   3.767   1.161  0.2116  0.2386  0.2934
10157TIP3    H151962   0.215   3.712   1.162  0.2094  0.2225  1.2616
10157TIP3    H251963   0.168   3.856   1.177  0.2405  0.5960 -1.5127
10158TIP3   OH251964   2.166   5.536   6.379  0.1409 -0.4099  0.2540
10158TIP3    H151965   2.241   5.572   6.426  0.9919  0.7426 -1.8594
10158TIP3    H251966   2.090   5.565   6.430  1.0271  0.3000  1.2188
10159TIP3   OH251967   3.884   6.353  15.115 -0.9123  0.2704  0.1850
10159TIP3    H151968   3.819   6.380  15.180  0.3155  0.0094  1.5752
10159TIP3    H251969   3.968   6.379  15.153 -0.1877  0.8736 -1.6975
10160TIP3   OH251970   4.600   3.216   0.692  0.1501 -0.6162 -0.3045
10160TIP3    H151971   4.621   3.280   0.760  1.1981 -0.4890 -0.7280
10160TIP3    H251972   4.506   3.225   0.679 -0.3040 -1.4907  1.9581
10161TIP3   OH251973   0.339   1.210   3.411  0.2105 -0.1865  0.0191
10161TIP3    H151974   0.289   1.129   3.404 -0.7776  0.3805  0.3666
10161TIP3    H251975   0.387   1.216   3.328  0.0741 -0.9700 -0.1278
10162TIP3   OH251976   0.656   3.678   4.256  0.2056 -0.2748 -0.0483
10162TIP3    H151977   0.692   3.756   4.298  0.7506  0.4040 -1.6960
10162TIP3    H251978   0.697   3.604   4.302  0.6053  0.4120  0.7304
10163TIP3   OH251979   0.695   1.082  12.646 -0.6899 -0.2753  0.0987
10163TIP3    H151980   0.672   1.115  12.559  1.2099 -0.9623 -0.7131
10163TIP3    H251981   0.756   1.148  12.681  0.8514 -1.3983 -0.3494
10164TIP3   OH251982   3.461   0.835  14.077  0.2864  0.3432  0.0798
10164TIP3    H151983   3.495   0.881  14.000 -2.2823 -0.5619 -1.7604
10164TIP3    H251984   3.432   0.904  14.136 -1.7216  1.1908 -1.7768
10165TIP3   OH251985   1.699   2.700  12.390 -0.7483  0.0050 -0.1129
10165TIP3    H151986   1.711   2.645  12.312 -0.1264  0.4278 -0.3209
10165TIP3    H251987   1.648   2.646  12.450 -1.7654 -0.1078 -1.0497
10166TIP3   OH251988   3.082   1.615  11.878  0.1828 -0.4538  0.1970
10166TIP3    H151989   2.993   1.580  11.874 -0.5234  1.2641 -0.1358
10166TIP3    H251990   3.079   1.680  11.948  0.5210  1.2312 -1.2715
10167TIP3   OH251991   5.537   0.974  13.154 -0.0239  0.5621 -0.5030
10167TIP3    H151992   5.528   0.953  13.247 -2.2686 -1.8752 -1.1447
10167TIP3    H251993   5.560   0.891  13.113 -0.3689  1.2990 -2.2845
10168TIP3   OH251994   3.022   3.897   5.293 -0.6757  0.3729  0.2759
10168TIP3    H151995   3.116   3.915   5.301 -0.6426 -0.0823  1.0070
10168TIP3    H251996   2.994   3.875   5.382 -1.3522 -0.0716 -0.0368
10169TIP3   OH251997   6.133   1.966   2.230  0.1126  0.2231  0.2508
10169TIP3    H151998   6.053   1.919   2.208  0.8118 -0.4438 -0.9821
10169TIP3    H251999   6.202   1.918   2.184  0.9960  1.8022 -0.1361
10170TIP3   OH252000   0.448   1.976  13.707 -0.1679  0.5292 -0.2211
10170TIP3    H152001   0.378   2.026  13.748 -0.1957  0.1413  0.2139
10170TIP3    H252002   0.504   2.042  13.666 -0.2338  0.9155  0.2971
10171TIP3   OH252003   0.066   0.466  13.633  0.1524 -0.0138  1.0850
10171TIP3    H152004   0.096   0.505  13.714  1.1012  1.6952 -0.0435
10171TIP3    H252005   0.136   0.483  13.570 -1.5102  0.6954 -0.6618
10172TIP3   OH252006   0.338   5.186   3.252  0.8689  0.1496  0.1351
10172TIP3    H152007   0.373   5.270   3.224  0.1785  0.4127  0.0627
10172TIP3    H252008   0.416   5.132   3.267  1.4073  1.2830  1.7360
10173TIP3   OH252009   6.304   1.531  13.855 -0.0596  0.1772 -0.0079
10173TIP3    H152010   6.271   1.443  13.872  0.1626  0.5559  2.9888
10173TIP3    H252011   6.364   1.521  13.782  1.0414 -2.4749  1.1289
10174TIP3   OH252012   3.511   6.590   5.791  0.1073  0.6730 -0.4084
10174TIP3    H152013   3.478   6.658   5.732 -0.8007  1.5604  1.0519
10174TIP3    H252014   3.531   6.637   5.872 -0.9430 -0.8353  0.7850
10175TIP3   OH252015   0.423   4.618   4.197  0.1475  0.0106  0.1210
10175TIP3    H152016   0.446   4.672   4.122 -0.8272  0.9262  0.4529
10175TIP3    H252017   0.504   4.612   4.248  0.1984  1.5002  0.2658
10176TIP3   OH252018   0.981   5.574  15.708 -0.1535 -0.1316  0.2046
10176TIP3    H152019   0.892   5.538  15.702 -0.1627  0.0258 -0.7462
10176TIP3    H252020   1.036   5.497  15.720 -0.4081 -0.2362  0.7440
10177TIP3   OH252021   4.113   0.951  12.119 -0.5342 -0.0383 -0.5439
10177TIP3    H152022   4.019   0.957  12.135 -0.4266 -1.0298  0.6253
10177TIP3    H252023   4.121   0.937  12.025 -1.7454 -2.9954 -0.2930
10178TIP3   OH252024   6.257   6.638   1.843 -0.1697  0.2030 -0.7231
10178TIP3    H152025   6.315   6.588   1.900 -0.3315  0.6492 -0.1598
10178TIP3    H252026   6.170   6.599   1.857 -0.4655  1.2187  0.4209
10179TIP3   OH252027   0.339   3.030   2.046  0.0920  0.3423  0.3198
10179TIP3    H152028   0.385   3.049   1.964 -0.5585 -1.0839 -0.4075
10179TIP3    H252029   0.272   3.098   2.051  1.1429  1.3984  0.5103
10180TIP3   OH252030   4.287   1.136  11.589 -0.3835  0.1494 -0.3087
10180TIP3    H152031   4.311   1.064  11.530  1.4987  0.9674 -0.6003
10180TIP3    H252032   4.256   1.205  11.531  1.6233  1.0161 -0.4134
10181TIP3   OH252033   2.655   1.116  14.596 -0.1767 -0.6508 -0.4558
10181TIP3    H152034   2.662   1.029  14.556  1.6204 -0.6563 -0.1986
10181TIP3    H252035   2.745   1.145  14.608 -0.7236  0.8137  0.4605
10182TIP3   OH252036   1.174   4.294  16.053  0.3399  0.1920  0.7428
10182TIP3    H152037   1.206   4.358  16.117  0.9740  1.1588 -0.4927
10182TIP3    H252038   1.080   4.315  16.045  0.2694  0.1160  1.2740
10183TIP3   OH252039   1.380   5.098   4.584  0.3770 -0.1890 -0.7973
10183TIP3    H152040   1.308   5.063   4.532  0.1423 -0.9135 -0.0047
10183TIP3    H252041   1.368   5.193   4.581  0.2591 -0.2193 -1.8866
10184TIP3   OH252042   1.297   1.706   3.682  0.0036 -0.3552 -0.0699
10184TIP3    H152043   1.350   1.687   3.604 -0.9142  0.0125 -0.7885
10184TIP3    H252044   1.229   1.766   3.651 -0.5201 -0.4073  0.9623
10185TIP3   OH252045   3.878   2.545   1.194 -0.2529  0.3213  0.2378
10185TIP3    H152046   3.943   2.524   1.261  0.0016  0.2267 -0.0352
10185TIP3    H252047   3.929   2.581   1.121 -0.5202  0.3705  0.0707
10186TIP3   OH252048   1.610   5.692  14.207  0.3095 -0.6550  0.1788
10186TIP3    H152049   1.679   5.675  14.271  1.6489  0.6127 -0.8621
10186TIP3    H252050   1.632   5.778  14.170 -1.6566 -0.3572 -0.4275
10187TIP3   OH252051   0.129   5.471   4.418  0.2129  0.3354  0.1663
10187TIP3    H152052   0.130   5.445   4.326 -0.1093  2.2449 -0.3999
10187TIP3    H252053   0.194   5.413   4.459  0.2150 -0.6864 -1.1986
10188TIP3   OH252054   5.309   5.738   1.328  0.2643 -0.2075  1.0562
10188TIP3    H152055   5.382   5.728   1.389  1.2882  0.2875 -0.0468
10188TIP3    H252056   5.267   5.820   1.354 -0.2915 -0.7997  2.0763
10189TIP3   OH252057   3.617   0.608  14.160 -0.7928 -0.1370  0.1422
10189TIP3    H152058   3.679   0.681  14.150 -0.1400 -0.5913  0.7896
10189TIP3    H252059   3.531   0.648  14.149 -0.4765  0.8698  1.1761
10190TIP3   OH252060   2.189   1.584   4.670 -0.6763 -0.4929 -0.0457
10190TIP3    H152061   2.234   1.509   4.708 -0.3672 -0.8830 -1.1687
10190TIP3    H252062   2.204   1.655   4.733  1.0170 -0.7658 -0.1167
10191TIP3   OH252063   3.862   6.183  14.898 -0.2578 -0.2844 -0.1210
10191TIP3    H152064   3.793   6.133  14.941  0.1211  0.6661  1.7150
10191TIP3    H252065   3.881   6.255  14.959  0.0991  1.3608 -2.0581
10192TIP3   OH252066   0.461   6.580  12.790 -0.2351 -0.1223  0.1419
10192TIP3    H152067   0.512   6.528  12.728 -1.1454 -0.0526 -0.6735
10192TIP3    H252068   0.378   6.532  12.799 -0.1409 -0.1102  1.2720
10193TIP3   OH252069   2.592   0.363  14.994  0.2992 -0.1550 -0.3932
10193TIP3    H152070   2.523   0.426  14.973 -0.6133 -0.7998  0.5518
10193TIP3    H252071   2.551   0.278  14.983  0.3912 -0.5379  1.8238
10194TIP3   OH252072   6.757   6.006   3.540  0.0868  0.1238 -0.6810
10194TIP3    H152073   6.731   6.095   3.514 -2.3353 -0.1748  0.5000
10194TIP3    H252074   6.703   5.949   3.485 -1.5572 -0.5329  1.5078
10195TIP3   OH252075   6.387   3.320  14.231 -0.0497 -0.4529  0.0104
10195TIP3    H152076   6.312   3.347  14.284 -0.7892 -2.4945  0.0794
10195TIP3    H252077   6.353   3.318  14.142  0.0701 -0.8480 -0.0269
10196TIP3   OH252078   3.753   2.126  14.146  0.0715 -0.2252 -0.1447
10196TIP3    H152079   3.758   2.040  14.103 -1.3634  0.1772 -1.1878
10196TIP3    H252080   3.831   2.129  14.201  0.9146 -1.6127 -1.1787
10197TIP3   OH252081   2.744   3.834  15.013 -0.0689 -0.2020  0.0568
10197TIP3    H152082   2.668   3.889  14.996 -0.0506 -0.6996 -1.8095
10197TIP3    H252083   2.712   3.767  15.074 -0.6821  0.5298  0.5512
10198TIP3   OH252084   6.493   6.679   1.480 -0.3202 -0.0509 -0.1708
10198TIP3    H152085   6.485   6.632   1.562 -0.9401  0.6183  0.1606
10198TIP3    H252086   6.561   6.745   1.497 -0.4949  0.1299 -0.1704
10199TIP3   OH252087   1.353   6.232   3.007  0.4301  0.3120 -0.3526
10199TIP3    H152088   1.410   6.219   3.082 -0.7017  3.2034  1.1897
10199TIP3    H252089   1.392   6.306   2.960 -1.9073  2.4517  0.8140
10200TIP3   OH252090   1.095   1.683  12.918  0.3821 -0.0771  0.3286
10200TIP3    H152091   1.094   1.775  12.946 -1.8076  0.2650 -0.6445
10200TIP3    H252092   1.130   1.636  12.994  0.1036  1.4070  1.4315
10201TIP3   OH252093   1.185   3.008   2.087 -0.4111 -0.2060  0.3851
10201TIP3    H152094   1.116   3.067   2.058 -1.3233 -1.5848 -0.3582
10201TIP3    H252095   1.263   3.063   2.092 -1.0482  0.8913 -1.0296
10202TIP3   OH252096   2.056   0.723   3.804 -0.0385  0.1487  0.0786
10202TIP3    H152097   2.063   0.649   3.744  0.3280 -0.3722  0.7505
10202TIP3    H252098   2.129   0.780   3.780 -2.0611  1.9097 -2.5277
10203TIP3   OH252099   3.389   4.665  12.357 -0.5722  0.1241 -0.4755
10203TIP3    H152100   3.330   4.607  12.405  0.2427  0.1385  0.5969
10203TIP3    H252101   3.477   4.632  12.378 -0.1675  0.5144 -1.4803
10204TIP3   OH252102   0.680   2.758  12.651 -0.9654  0.5358  0.2632
10204TIP3    H152103   0.732   2.713  12.718  1.3150 -0.4931 -1.9951
10204TIP3    H252104   0.722   2.843  12.642 -0.0640 -0.0023 -1.0157
10205TIP3   OH252105   0.846   2.094   0.825 -0.2779  0.1663  0.0364
10205TIP3    H152106   0.931   2.121   0.790 -0.0315 -0.2302  0.3201
10205TIP3    H252107   0.863   2.011   0.868 -1.0053 -0.3991 -0.7301
10206TIP3   OH252108   4.668   5.693   3.121 -0.4878 -0.2318  0.0661
10206TIP3    H152109   4.669   5.613   3.069  1.6126  0.1077 -0.5262
10206TIP3    H252110   4.608   5.751   3.075 -0.5470 -0.8079 -0.5978
10207TIP3   OH252111   6.212   5.644   4.624  0.2607 -0.7710  0.4063
10207TIP3    H152112   6.271   5.698   4.676 -0.2022  0.0795  0.0679
10207TIP3    H252113   6.257   5.632   4.540 -0.2971  0.4175 -0.0875
10208TIP3   OH252114   0.296   2.271   5.538  0.0142 -0.4212 -0.2167
10208TIP3    H152115   0.239   2.195   5.526  0.3693 -0.7757  0.3073
10208TIP3    H252116   0.352   2.270   5.460 -1.3807  0.5636 -1.2849
10209TIP3   OH252117   1.373   4.874  16.483  0.0253 -0.3199 -0.5464
10209TIP3    H152118   1.412   4.951  16.441  0.4793 -1.1266 -1.6678
10209TIP3    H252119   1.283   4.872  16.449 -0.0483 -0.1682 -0.3592
10210TIP3   OH252120   4.314   1.429  16.757 -0.0169 -0.7753  0.7447
10210TIP3    H152121   4.330   1.507  16.810 -0.1415 -0.7948  0.8119
10210TIP3    H252122   4.386   1.426  16.695 -0.8957  0.3382 -0.3750
10211TIP3   OH252123   4.143   6.631   2.655  0.2915  0.5066 -0.4549
10211TIP3    H152124   4.052   6.619   2.681  1.1772 -1.1679  2.2876
10211TIP3    H252125   4.153   6.575   2.577 -0.9349  0.5446 -0.6669
10212TIP3   OH252126   4.069   5.357  15.075  0.7879 -0.2796  0.1603
10212TIP3    H152127   4.098   5.293  15.010 -0.2334 -2.6306  1.8701
10212TIP3    H252128   3.976   5.370  15.056  0.9806  0.7363 -0.1597
10213TIP3   OH252129   1.246   2.158   5.099  0.2136  0.3147 -0.1468
10213TIP3    H152130   1.255   2.247   5.135 -1.0267  0.6170 -0.5357
10213TIP3    H252131   1.225   2.104   5.175 -3.5904  1.1388 -0.4046
10214TIP3   OH252132   1.042   3.071  15.119 -0.0807  0.3150  0.2840
10214TIP3    H152133   0.953   3.105  15.112  0.3503  1.6179  0.7544
10214TIP3    H252134   1.085   3.130  15.182  1.3591  0.2566 -0.6023
10215TIP3   OH252135   1.937   1.636   5.855 -0.1912 -0.0175 -0.3975
10215TIP3    H152136   1.887   1.574   5.803 -1.4499  0.0931  0.6377
10215TIP3    H252137   1.874   1.673   5.917  1.2604 -0.3112  1.3672
10216TIP3   OH252138   3.851   1.022  12.816 -0.3478  0.4232  0.1352
10216TIP3    H152139   3.851   1.031  12.911  0.9004 -1.6871  0.3881
10216TIP3    H252140   3.931   1.066  12.787  1.2878 -2.1261  0.5111
10217TIP3   OH252141   0.490   2.490  11.793  0.3265  0.1349  0.1775
10217TIP3    H152142   0.470   2.489  11.886  0.3404  0.3264  0.1827
10217TIP3    H252143   0.462   2.577  11.763  0.9551  0.3339  0.1410
10218TIP3   OH252144   2.592   6.435  16.468 -0.1563  0.2399  0.5350
10218TIP3    H152145   2.567   6.500  16.403  0.1601 -0.5743 -0.4175
10218TIP3    H252146   2.589   6.352  16.422 -0.1974 -0.3889  1.6379
10219TIP3   OH252147   0.462   5.494  13.548  0.0304  0.3554  0.3328
10219TIP3    H152148   0.401   5.438  13.501  0.0327 -1.4142  2.2896
10219TIP3    H252149   0.440   5.583  13.520 -1.8550 -0.4031 -0.7694
10220TIP3   OH252150   0.136   3.929  12.519  0.1006  0.8192 -0.1743
10220TIP3    H152151   0.082   4.005  12.498 -0.0948  0.9934  0.9047
10220TIP3    H252152   0.080   3.875  12.575  0.5279  0.2713 -0.2683
10221TIP3   OH252153   4.171   4.008   2.900  0.4476  0.3213 -0.0759
10221TIP3    H152154   4.220   3.925   2.900  0.6492  0.3740  2.4655
10221TIP3    H252155   4.105   3.997   2.969 -1.4185  1.2629 -1.6204
10222TIP3   OH252156   3.199   1.291   5.989  0.9191  0.2488  0.0706
10222TIP3    H152157   3.267   1.277   6.055  1.5845  0.5964 -0.5142
10222TIP3    H252158   3.242   1.267   5.906  0.5524  1.1185 -0.3832
10223TIP3   OH252159   0.128   2.466  15.320  0.0887 -0.4732 -0.3069
10223TIP3    H152160   0.061   2.533  15.332  0.5972  0.0286 -0.2335
10223TIP3    H252161   0.079   2.386  15.299 -0.4847  0.1085 -1.2310
10224TIP3   OH252162   6.469   1.615   2.809 -0.1799 -0.0186 -0.1920
10224TIP3    H152163   6.402   1.648   2.869 -1.5919 -2.0952 -0.5172
10224TIP3    H252164   6.550   1.619   2.859 -1.0112  0.0514  1.2028
10225TIP3   OH252165   5.530   1.009  15.039 -0.5677 -0.2688  0.1160
10225TIP3    H152166   5.515   0.936  15.100 -2.1752  0.3384  0.4976
10225TIP3    H252167   5.516   0.971  14.953 -1.5929 -0.3877  0.3244
10226TIP3   OH252168   3.154   6.549  15.657  0.3893 -0.0454 -0.2737
10226TIP3    H152169   3.154   6.465  15.612  1.7964  0.1964 -0.7989
10226TIP3    H252170   3.063   6.577  15.656 -0.2085 -1.8343  0.4738
10227TIP3   OH252171   1.544   5.771  16.529  0.0874 -0.4081 -0.4019
10227TIP3    H152172   1.479   5.841  16.542  2.5474  2.3503 -1.6474
10227TIP3    H252173   1.583   5.759  16.616 -1.0686 -1.0491  0.0465
10228TIP3   OH252174   4.827   1.631   4.747  0.5438 -0.1897 -0.6080
10228TIP3    H152175   4.801   1.716   4.783 -0.7869 -1.1162  0.7751
10228TIP3    H252176   4.755   1.606   4.689 -0.5281 -1.5991  1.2036
10229TIP3   OH252177   0.984   1.026  15.723  0.5363  0.0134 -0.3295
10229TIP3    H152178   1.062   1.007  15.775 -0.0156  0.3086  0.6466
10229TIP3    H252179   0.995   0.976  15.643  0.8015 -1.5278  0.6259
10230TIP3   OH252180   4.814   6.752   0.398  0.1480 -0.1313  0.1939
10230TIP3    H152181   4.758   6.736   0.474  0.6870  3.1886  1.4594
10230TIP3    H252182   4.898   6.713   0.422 -0.4925 -1.8059 -0.1111
10231TIP3   OH252183   5.097   3.470   4.077 -0.7222 -0.4994  0.3703
10231TIP3    H152184   5.116   3.476   4.171 -1.6446 -1.4707  0.6299
10231TIP3    H252185   5.136   3.550   4.040  0.1540 -0.3830  1.4813
10232TIP3   OH252186   0.292   1.607  13.583 -1.3377  0.0672 -0.2917
10232TIP3    H152187   0.263   1.683  13.533  1.0643 -0.0029 -1.9242
10232TIP3    H252188   0.259   1.532  13.534  1.0145 -0.0019 -1.9565
10233TIP3   OH252189   0.368   6.330  11.438  0.1109 -0.3011  0.4008
10233TIP3    H152190   0.391   6.367  11.353  1.3891 -2.5232 -0.3126
10233TIP3    H252191   0.392   6.238  11.431  1.1230 -0.3818  3.4827
10234TIP3   OH252192   4.153   3.884  14.939 -0.4867  0.2604 -0.6016
10234TIP3    H152193   4.227   3.824  14.943  0.0456  0.9185 -0.4372
10234TIP3    H252194   4.084   3.835  14.895  0.2254 -0.1681 -1.2581
10235TIP3   OH252195   0.279   0.223   0.301 -0.1598  0.0050 -0.1810
10235TIP3    H152196   0.236   0.255   0.380 -0.8588  0.6681 -0.8165
10235TIP3    H252197   0.328   0.298   0.268  0.4545 -0.3818 -0.1683
10236TIP3   OH252198   1.602   0.930   5.026  0.0132  0.1844  0.4977
10236TIP3    H152199   1.506   0.924   5.030 -0.0765  1.2364  0.1783
10236TIP3    H252200   1.619   1.010   4.977  1.0667 -0.4213 -0.1599
10237TIP3   OH252201   5.912   4.459   1.426  0.0169 -0.0500 -0.1314
10237TIP3    H152202   5.832   4.505   1.448 -0.3701 -0.2732 -1.0192
10237TIP3    H252203   5.895   4.368   1.447 -0.4259 -0.2976 -1.4410
10238TIP3   OH252204   1.732   0.298   0.506  0.2899  0.6933 -0.4673
10238TIP3    H152205   1.756   0.357   0.577  0.0560  0.2053  0.0260
10238TIP3    H252206   1.813   0.283   0.458  0.0909  2.5304 -1.4675
10239TIP3   OH252207   3.629   2.507   1.727 -0.4798 -0.2160  0.2014
10239TIP3    H152208   3.696   2.561   1.769 -0.4543 -0.5527  0.6078
10239TIP3    H252209   3.617   2.546   1.640 -1.5880  1.3875  1.0246
10240TIP3   OH252210   5.728   4.850   2.449  0.6240 -0.4852 -0.9341
10240TIP3    H152211   5.694   4.808   2.528  2.6325 -0.1455  0.1669
10240TIP3    H252212   5.793   4.913   2.481  0.5332  0.6324 -2.7894
10241TIP3   OH252213   0.649   1.643   2.298  0.5573  0.1966 -0.3003
10241TIP3    H152214   0.667   1.561   2.252 -0.0532  1.2723 -2.6020
10241TIP3    H252215   0.584   1.687   2.243  0.8926  2.2437  0.8586
10242TIP3   OH252216   1.417   5.359   4.040  0.3545  0.1518 -0.0751
10242TIP3    H152217   1.493   5.340   3.985  0.3619  0.1935 -0.0790
10242TIP3    H252218   1.342   5.352   3.979  0.4067  0.7203 -0.2037
10243TIP3   OH252219   5.124   0.126  17.207  0.2701 -0.4529 -0.0656
10243TIP3    H152220   5.152   0.073  17.282  0.8465 -0.5567 -0.3531
10243TIP3    H252221   5.029   0.112  17.202 -0.0475  0.7719  1.6001
10244TIP3   OH252222   5.559   1.448  17.008  0.1924 -0.0596  0.4354
10244TIP3    H152223   5.558   1.457  17.104 -1.2386  1.6951  0.3303
10244TIP3    H252224   5.480   1.495  16.980  0.1767 -1.2078 -1.5684
10245TIP3   OH252225   2.677   3.660  15.208  0.0465 -0.3885 -0.2394
10245TIP3    H152226   2.588   3.677  15.238 -0.0560 -1.2113 -0.0450
10245TIP3    H252227   2.722   3.623  15.284  0.3650 -0.5897 -0.5221
10246TIP3   OH252228   5.133   5.460  15.169 -0.0198 -0.0559  0.2495
10246TIP3    H152229   5.101   5.530  15.226  0.3080 -0.1092  0.5030
10246TIP3    H252230   5.099   5.380  15.210  1.7945 -0.2494  1.4762
10247TIP3   OH252231   5.833   1.588   5.604 -0.3744  0.6950 -0.5956
10247TIP3    H152232   5.846   1.587   5.510 -1.1002 -0.7102 -0.7029
10247TIP3    H252233   5.738   1.594   5.616 -0.5648 -2.1676 -0.0369
10248TIP3   OH252234   4.643   3.368  13.211  0.3078 -0.1834  0.6762
10248TIP3    H152235   4.737   3.384  13.200  0.0256  1.2305 -0.0031
10248TIP3    H252236   4.629   3.281  13.174  1.3030 -0.3061  0.5470
10249TIP3   OH252237   1.907   6.131  16.681 -0.0682 -0.1727 -0.1225
10249TIP3    H152238   1.956   6.051  16.699 -1.2932 -0.6183  1.4928
10249TIP3    H252239   1.843   6.106  16.615  0.3782 -0.1784 -0.5591
10250TIP3   OH252240   5.746   3.417   4.790  0.1020  0.3816 -0.4174
10250TIP3    H152241   5.725   3.495   4.841  0.9202  2.0112 -2.4469
10250TIP3    H252242   5.752   3.448   4.700  0.7474 -1.9874 -1.2587
10251TIP3   OH252243   6.782   2.535  15.048 -0.2546 -0.4358  0.0181
10251TIP3    H152244   6.725   2.521  15.124 -1.2372 -0.3661 -0.6830
10251TIP3    H252245   6.724   2.523  14.973  0.2001  1.5158 -0.7023
10252TIP3   OH252246   1.686   0.755  11.041  0.0256 -0.9966  0.1561
10252TIP3    H152247   1.716   0.839  11.006  0.0788 -2.1816 -2.9658
10252TIP3    H252248   1.617   0.779  11.103  0.7804  1.3667  0.2020
10253TIP3   OH252249   0.820   2.888  17.073  0.0159  0.1386  0.6033
10253TIP3    H152250   0.904   2.933  17.067  0.3136 -0.2940  1.3570
10253TIP3    H252251   0.777   2.927  17.150 -0.5753  0.5171  0.0914
10254TIP3   OH252252   0.128   1.473  14.267  0.2742  0.9094 -0.2215
10254TIP3    H152253   0.102   1.428  14.187  0.1911  0.2937  0.1432
10254TIP3    H252254   0.206   1.426  14.297  0.3612  1.1941  0.0051
10255TIP3   OH252255   3.606   3.874  12.889 -0.5743 -0.3187 -0.1638
10255TIP3    H152256   3.655   3.792  12.896  1.5161  0.8483 -0.2792
10255TIP3    H252257   3.576   3.892  12.978  0.1925 -0.4934  0.1372
10256TIP3   OH252258   5.158   5.692  16.583  0.5159 -0.0498  0.2964
10256TIP3    H152259   5.102   5.728  16.514  1.5795  0.1550 -0.4999
10256TIP3    H252260   5.185   5.769  16.634  1.9106  0.2005 -0.7433
10257TIP3   OH252261   1.362   1.169   1.017 -0.2805 -0.2198  0.7313
10257TIP3    H152262   1.452   1.170   1.050 -0.7275 -0.8687  2.0195
10257TIP3    H252263   1.310   1.209   1.086 -0.8380  1.4208 -0.5598
10258TIP3   OH252264   2.570   5.929   2.104  0.1962 -0.1731  0.4837
10258TIP3    H152265   2.582   5.940   2.010  1.5980 -2.9662  0.2284
10258TIP3    H252266   2.478   5.950   2.119 -0.2048 -0.2154 -1.5996
10259TIP3   OH252267   5.794   4.367  17.240 -0.3005  0.1479 -0.4431
10259TIP3    H152268   5.846   4.363  17.160  0.1412  2.9537 -0.3863
10259TIP3    H252269   5.705   4.383  17.209 -0.1345  1.2045 -0.3871
10260TIP3   OH252270   0.749   3.868   1.384  0.1958  0.0052  0.2551
10260TIP3    H152271   0.810   3.941   1.394  0.6483 -0.2896 -0.2753
10260TIP3    H252272   0.707   3.859   1.469 -0.9275  1.8072 -0.0486
10261TIP3   OH252273   3.301   4.830   1.833  0.3876  0.1432  0.0681
10261TIP3    H152274   3.396   4.820   1.829  0.4231  0.1726  0.7344
10261TIP3    H252275   3.288   4.918   1.869  0.1027  0.2721 -0.3413
10262TIP3   OH252276   0.230   1.177   1.405  0.4627 -0.2184  0.2293
10262TIP3    H152277   0.171   1.198   1.478 -1.2411 -0.1663 -1.1011
10262TIP3    H252278   0.251   1.261   1.366  3.6248  0.0653  2.2039
10263TIP3   OH252279   6.145   3.132   5.785 -0.4517  0.9533  0.2878
10263TIP3    H152280   6.081   3.072   5.746 -1.0122  1.2438  0.7421
10263TIP3    H252281   6.225   3.118   5.734 -0.7291  0.2207  0.0303
10264TIP3   OH252282   6.228   3.528   0.875  0.1046 -0.1562 -0.4674
10264TIP3    H152283   6.288   3.454   0.881  1.0288  0.6905  1.8802
10264TIP3    H252284   6.261   3.581   0.802  0.7772 -0.8925 -0.7061
10265TIP3   OH252285   1.625   4.165   5.277  0.6796 -0.4773 -0.2816
10265TIP3    H152286   1.658   4.178   5.188 -0.2022  0.6703 -0.4780
10265TIP3    H252287   1.588   4.251   5.301  0.3670 -0.9364  0.9604
10266TIP3   OH252288   4.119   1.821   5.032 -0.4035 -0.2609  0.2431
10266TIP3    H152289   4.148   1.730   5.030 -1.5131 -0.7366  2.3989
10266TIP3    H252290   4.041   1.823   4.976 -0.3355 -0.6271  0.1363
10267TIP3   OH252291   0.482   3.207   4.922  0.4577 -0.2821  0.0891
10267TIP3    H152292   0.444   3.255   4.995  1.6596  0.2673  0.3742
10267TIP3    H252293   0.426   3.129   4.912  0.1992 -0.2898  1.4760
10268TIP3   OH252294   6.065   6.555   1.586 -0.3693 -0.3758  0.0927
10268TIP3    H152295   6.027   6.468   1.596  0.1675 -0.7883 -1.2872
10268TIP3    H252296   6.159   6.543   1.602 -0.4219  0.1472  0.8764
10269TIP3   OH252297   4.056   4.307   5.934  0.3261  0.0338  0.0876
10269TIP3    H152298   4.002   4.288   5.857  1.5695  0.0139 -0.8094
10269TIP3    H252299   4.041   4.400   5.951 -0.4045 -0.0938  0.1969
10270TIP3   OH252300   1.737   4.179   1.837  0.1037 -0.5691 -0.2551
10270TIP3    H152301   1.669   4.140   1.893  0.1424 -1.9129 -1.0953
10270TIP3    H252302   1.747   4.117   1.765  1.8534 -0.1359 -0.4307
10271TIP3   OH252303   2.421   5.992  15.435 -0.5732  0.5773  0.1826
10271TIP3    H152304   2.401   6.081  15.462 -0.4720  0.6875 -0.0974
10271TIP3    H252305   2.341   5.943  15.451 -0.6332  0.7222  0.3223
10272TIP3   OH252306   0.932   3.861   0.832  0.1921 -0.5416  0.2096
10272TIP3    H152307   1.004   3.917   0.861  0.3377 -1.0523  0.8720
10272TIP3    H252308   0.960   3.825   0.748 -0.7051  1.8554 -1.2079
10273TIP3   OH252309   3.823   5.716  13.574  0.2204  0.1384  0.5319
10273TIP3    H152310   3.731   5.719  13.598 -0.1125  1.0881 -0.7685
10273TIP3    H252311   3.843   5.804  13.541  1.6026 -0.0387  0.8157
10274TIP3   OH252312   5.074   1.377   3.600  0.0520 -0.2080 -0.2369
10274TIP3    H152313   4.979   1.386   3.595 -0.2782 -1.6564  1.9783
10274TIP3    H252314   5.108   1.446   3.542 -2.3106  0.9726 -0.3399
10275TIP3   OH252315   0.162   0.966   0.979 -0.0215 -0.0737  0.2446
10275TIP3    H152316   0.123   0.880   0.964  0.6269 -0.3169 -0.0407
10275TIP3    H252317   0.140   0.986   1.070  0.2424 -0.7522  0.4600
10276TIP3   OH252318   5.993   1.052  14.580 -0.1040  0.5066 -0.4015
10276TIP3    H152319   6.063   0.992  14.553  0.7641  1.0919  0.4745
10276TIP3    H252320   6.009   1.132  14.531 -0.3434  0.5401 -0.4261
10277TIP3   OH252321   1.895   1.880   0.248  0.1120  0.6384  0.2695
10277TIP3    H152322   1.901   1.932   0.168 -3.2000  1.6582  0.5709
10277TIP3    H252323   1.924   1.939   0.317  0.0391  0.7810  0.1783
10278TIP3   OH252324   5.302   0.264   2.873  0.0728 -0.6460  0.2333
10278TIP3    H152325   5.225   0.208   2.860  0.7634 -1.2590 -1.4501
10278TIP3    H252326   5.374   0.203   2.886  0.2361 -0.0743  2.3825
10279TIP3   OH252327   0.501   1.490  13.715  1.0413 -1.0018  0.6525
10279TIP3    H152328   0.499   1.570  13.767  0.7116 -1.2534  1.0349
10279TIP3    H252329   0.431   1.501  13.650  0.2949 -1.4059  1.3634
10280TIP3   OH252330   3.886   0.192  14.519  0.2246 -0.4295 -0.6114
10280TIP3    H152331   3.870   0.225  14.607  2.2102 -3.1789  0.9099
10280TIP3    H252332   3.841   0.254  14.462 -1.4171  1.2758  2.3134
10281TIP3   OH252333   2.792   1.421   0.969  0.1371 -0.3956  0.1667
10281TIP3    H152334   2.823   1.432   1.059  0.0859 -1.1388  0.2820
10281TIP3    H252335   2.771   1.510   0.940  1.3161  0.0052  0.4631
10282TIP3   OH252336   0.084   1.165  13.757 -0.0116  0.0870 -0.1088
10282TIP3    H152337   0.078   1.197  13.847  0.7754 -2.9518  1.1515
10282TIP3    H252338   0.176   1.177  13.733  0.2902 -1.0982  0.3747
10283TIP3   OH252339   5.341   0.333   5.930  0.2111 -0.0679  0.3286
10283TIP3    H152340   5.276   0.359   5.995 -2.2349 -1.3822 -1.4191
10283TIP3    H252341   5.358   0.241   5.949  1.1063  0.1019  0.3870
10284TIP3   OH252342   3.853   4.749   2.464  0.2959 -0.2765 -0.3379
10284TIP3    H152343   3.920   4.687   2.436  0.4021 -0.7336  0.8583
10284TIP3    H252344   3.876   4.831   2.421  1.1599 -0.6283 -0.5649
10285TIP3   OH252345   1.391   0.173  12.311  0.2683  1.1196  0.2455
10285TIP3    H152346   1.384   0.134  12.224  0.3937 -1.7138  1.4116
10285TIP3    H252347   1.307   0.218  12.324  0.1367  1.3420 -1.1753
10286TIP3   OH252348   0.187   1.792   5.352 -0.1616 -0.0146  0.0096
10286TIP3    H152349   0.162   1.757   5.267 -0.4292  0.7920 -0.2445
10286TIP3    H252350   0.156   1.727   5.415  2.0048 -1.7669 -0.5933
10287TIP3   OH252351   2.887   6.639   2.549 -0.2215  0.0989  0.3801
10287TIP3    H152352   2.826   6.586   2.497  1.0902 -1.6728  0.5667
10287TIP3    H252353   2.957   6.663   2.487 -1.1659  2.3964  0.0831
10288TIP3   OH252354   3.602   1.212  15.121 -0.6151 -0.1382  0.2721
10288TIP3    H152355   3.526   1.174  15.165 -0.2965 -0.6796  0.3589
10288TIP3    H252356   3.651   1.255  15.191 -1.1191  0.6963  0.1319
10289TIP3   OH252357   4.942   3.372  13.605 -0.3397  0.1055  0.5211
10289TIP3    H152358   4.931   3.326  13.689  0.0628 -1.0678 -0.0504
10289TIP3    H252359   4.855   3.369  13.565 -1.0955  2.5838  1.8039
10290TIP3   OH252360   5.929   3.047  15.087  0.2607 -0.4304  0.8430
10290TIP3    H152361   5.888   2.967  15.120  0.4561 -0.3527  1.2850
10290TIP3    H252362   5.936   3.033  14.992  0.2550 -0.9204  0.9117
10291TIP3   OH252363   0.609   5.089   5.568 -0.1628 -0.3118  0.6120
10291TIP3    H152364   0.616   5.181   5.542  1.4314 -0.9342 -1.4837
10291TIP3    H252365   0.522   5.062   5.537  0.7210 -0.3596 -2.1201
10292TIP3   OH252366   2.708   0.982   5.144 -0.0500  0.1947  0.9522
10292TIP3    H152367   2.664   0.960   5.226  0.6421 -0.3855  1.1760
10292TIP3    H252368   2.650   1.046   5.102  0.6644  2.2688  2.9289
10293TIP3   OH252369   2.417   1.349  16.663 -0.3110  0.2752 -0.4222
10293TIP3    H152370   2.434   1.322  16.573  0.6026  1.2566 -0.5615
10293TIP3    H252371   2.400   1.443  16.657 -0.2961  0.3378  0.4281
10294TIP3   OH252372   0.170   3.115   2.760 -0.1540 -0.2202  0.1240
10294TIP3    H152373   0.128   3.197   2.737 -0.8576 -0.1185  1.6503
10294TIP3    H252374   0.262   3.137   2.771 -0.5235  0.6672  1.7356
10295TIP3   OH252375   6.572   1.666   0.264 -0.4524 -0.9265 -0.0592
10295TIP3    H152376   6.622   1.591   0.231  1.3313  0.1541  0.0612
10295TIP3    H252377   6.527   1.633   0.341  0.2181 -1.9064 -0.0713
10296TIP3   OH252378   4.999   4.339   6.131 -0.8486 -0.0003  0.4062
10296TIP3    H152379   4.988   4.430   6.102  1.4585 -0.3409 -1.8644
10296TIP3    H252380   5.075   4.341   6.189  0.7049 -0.7171 -1.4926
10297TIP3   OH252381   3.945   5.500   5.366  0.8215 -0.1886  0.2794
10297TIP3    H152382   4.017   5.564   5.366 -0.4072  1.2450  1.3586
10297TIP3    H252383   3.869   5.549   5.397 -1.1282 -1.1482 -2.5407
10298TIP3   OH252384   4.601   6.225   2.610 -0.2580 -0.5163  0.2621
10298TIP3    H152385   4.617   6.319   2.612 -2.5285  0.0171 -1.6487
10298TIP3    H252386   4.667   6.191   2.549  0.2023 -0.0720  0.5075
10299TIP3   OH252387   3.069   6.464   2.001  0.5761 -0.2021  0.5409
10299TIP3    H152388   3.147   6.516   2.020  1.4840 -1.1085 -0.5883
10299TIP3    H252389   3.005   6.528   1.969  0.6455  0.6208  1.9591
10300TIP3   OH252390   2.806   6.444  16.157  0.4182 -0.4286  0.5998
10300TIP3    H152391   2.797   6.420  16.064 -0.0866  1.7649  0.0252
10300TIP3    H252392   2.720   6.479  16.181  1.1121  0.8710  1.3033
10301TIP3   OH252393   2.011   3.583   0.557  0.4620 -0.0468 -0.4868
10301TIP3    H152394   1.960   3.505   0.537 -1.4170  0.1280  2.9655
10301TIP3    H252395   2.071   3.555   0.626 -0.1039  1.4433  0.6613
10302TIP3   OH252396   4.025   4.472  12.270 -0.6999 -0.1749 -0.2187
10302TIP3    H152397   4.001   4.391  12.316 -1.0737 -0.8063 -1.4897
10302TIP3    H252398   4.079   4.520  12.333 -2.4499 -0.2888  1.4610
10303TIP3   OH252399   1.707   3.715   3.209  0.1479  0.4000 -0.1410
10303TIP3    H152400   1.745   3.683   3.127  1.2496 -1.0052  0.8673
10303TIP3    H252401   1.686   3.635   3.258 -0.6688  1.2132  0.8845
10304TIP3   OH252402   4.534   6.747  13.802 -0.4706 -0.1753 -0.4950
10304TIP3    H152403   4.567   6.672  13.752  1.7902 -0.7182  1.6047
10304TIP3    H252404   4.540   6.820  13.741  2.2484 -0.7824 -1.1284
10305TIP3   OH252405   1.765   6.517  11.953 -0.9112 -0.1298  0.2147
10305TIP3    H152406   1.705   6.447  11.981 -0.4273  0.0853  1.8595
10305TIP3    H252407   1.852   6.481  11.968 -0.6558  0.8129  1.1056
10306TIP3   OH252408   6.256   1.053  13.194  1.1962  0.0558  0.2931
10306TIP3    H152409   6.223   1.090  13.112  2.0241 -0.4665 -0.3018
10306TIP3    H252410   6.226   0.962  13.192  2.1253 -0.2553  0.0341
10307TIP3   OH252411   6.091   2.784  15.015  0.1538 -0.2877  0.3016
10307TIP3    H152412   6.187   2.785  15.010  0.1405  2.2362 -1.2379
10307TIP3    H252413   6.071   2.835  15.094  0.0496 -1.0341  0.7686
10308TIP3   OH252414   6.086   5.739   2.899 -0.3864  0.5612  0.6097
10308TIP3    H152415   6.105   5.661   2.848 -0.0275  0.2565  1.2009
10308TIP3    H252416   5.993   5.755   2.885 -0.3589  0.3040  0.1159
10309TIP3   OH252417   3.623   1.069   3.745 -0.3894 -0.8827 -0.1123
10309TIP3    H152418   3.647   0.995   3.801 -1.6264 -0.0806  1.5587
10309TIP3    H252419   3.532   1.053   3.721 -1.2952  0.9145  1.7808
10310TIP3   OH252420   4.811   2.515  11.056 -0.1844  0.0585  0.3578
10310TIP3    H152421   4.850   2.600  11.036  1.3843 -0.8828 -0.8112
10310TIP3    H252422   4.753   2.497  10.981 -0.6517  0.1632  0.6886
10311TIP3   OH252423   0.442   3.321  15.625  0.2547 -0.1562  0.2748
10311TIP3    H152424   0.439   3.358  15.536  0.6860  3.0738  1.4862
10311TIP3    H252425   0.506   3.374  15.671 -0.3019 -1.4420  2.7138
10312TIP3   OH252426   0.824   1.345   2.831 -0.2029  0.4883 -0.4319
10312TIP3    H152427   0.772   1.349   2.751  0.0476  1.0778 -0.5698
10312TIP3    H252428   0.909   1.311   2.803 -0.0509  0.8762 -0.4600
10313TIP3   OH252429   4.208   5.236   4.727 -0.1157  0.5902 -0.0904
10313TIP3    H152430   4.187   5.301   4.794  2.7002  1.7816 -0.2214
10313TIP3    H252431   4.148   5.255   4.655 -1.2388  1.1755  0.9568
10314TIP3   OH252432   0.116   3.526   3.998  0.4524  0.3702  0.1268
10314TIP3    H152433   0.109   3.606   3.946  0.9080  0.1449 -0.2946
10314TIP3    H252434   0.161   3.553   4.078  0.1407  0.6370  0.2109
10315TIP3   OH252435   2.709   2.418   4.505  0.0625 -0.3210  0.4451
10315TIP3    H152436   2.662   2.485   4.554  0.4579  1.0531 -0.9825
10315TIP3    H252437   2.790   2.404   4.555  0.5147  1.1387  0.1509
10316TIP3   OH252438   1.190   4.097   4.184 -0.1225  0.1782 -0.1939
10316TIP3    H152439   1.129   4.122   4.254 -2.1730  1.3067 -2.2739
10316TIP3    H252440   1.201   4.003   4.195 -2.5346 -0.1325  0.0757
10317TIP3   OH252441   2.669   3.729   2.652  0.6483  0.1922  0.1523
10317TIP3    H152442   2.722   3.676   2.710  1.1520  0.7793  0.2366
10317TIP3    H252443   2.696   3.703   2.564  0.3734 -0.2054  0.1816
10318TIP3   OH252444   1.789   4.047   0.232 -0.3081  0.2960  0.1127
10318TIP3    H152445   1.790   4.052   0.137  0.5308  0.5515  0.1318
10318TIP3    H252446   1.841   4.121   0.261 -0.1230 -0.0766  0.7557
10319TIP3   OH252447   4.553   3.714   4.665 -0.7512 -0.3511 -0.0400
10319TIP3    H152448   4.496   3.685   4.593 -0.0846  0.6274 -0.9850
10319TIP3    H252449   4.595   3.793   4.632 -1.1619  0.6988  1.7925
10320TIP3   OH252450   3.161   5.426   3.311 -0.7969  0.1521 -0.4813
10320TIP3    H152451   3.171   5.459   3.400  0.2951 -0.1484 -0.4778
10320TIP3    H252452   3.249   5.431   3.273 -1.3564  0.8380 -1.7481
10321TIP3   OH252453   6.266   1.846  16.095 -0.3137  0.1912 -1.2445
10321TIP3    H152454   6.254   1.893  16.012 -0.6468  1.8623 -0.2875
10321TIP3    H252455   6.361   1.846  16.109 -0.2943  0.3791 -1.3688
10322TIP3   OH252456   3.585   1.228  16.888 -0.5754 -0.0844 -0.1472
10322TIP3    H152457   3.505   1.273  16.914  0.4594  0.7054  1.9691
10322TIP3    H252458   3.559   1.136  16.878 -1.7828  0.1897  0.2784
10323TIP3   OH252459   3.449   1.219  17.174 -0.0964 -0.2922 -0.2750
10323TIP3    H152460   3.506   1.168  17.231 -1.3131  1.3653  2.6385
10323TIP3    H252461   3.366   1.170  17.174 -0.6414  0.5734  0.9098
10324TIP3   OH252462   2.794   2.553  13.521  0.5983 -0.7936  0.3241
10324TIP3    H152463   2.719   2.605  13.551 -0.0149 -1.2062 -0.4563
10324TIP3    H252464   2.803   2.575  13.428  0.6802 -1.6588  0.1245
10325TIP3   OH252465   4.981   6.616  16.191  0.0514 -0.1158 -0.3820
10325TIP3    H152466   5.045   6.563  16.239  0.8486 -1.2441 -2.5589
10325TIP3    H252467   4.903   6.561  16.187 -0.4217  0.4604  0.5816
10326TIP3   OH252468   5.766   0.367  13.052  0.0865  0.1194  0.2989
10326TIP3    H152469   5.733   0.419  12.979  0.2949 -1.0389 -0.6465
10326TIP3    H252470   5.731   0.410  13.130 -2.1460  0.0007 -0.5617
10327TIP3   OH252471   3.622   1.618   5.707 -0.1246  0.3504 -0.7547
10327TIP3    H152472   3.670   1.535   5.708  1.3782  1.1703 -0.5782
10327TIP3    H252473   3.551   1.604   5.645 -2.5129 -2.3990  2.2182
10328TIP3   OH252474   6.628   6.002   1.415 -0.2003  0.1862 -0.3069
10328TIP3    H152475   6.640   6.016   1.509  0.9156 -0.8362 -0.2831
10328TIP3    H252476   6.670   5.918   1.397  0.7409  0.9641 -1.9459
10329TIP3   OH252477   3.584   1.748   2.571  0.2929  0.4533 -0.1118
10329TIP3    H152478   3.599   1.779   2.660 -0.6173  0.8025 -0.0648
10329TIP3    H252479   3.669   1.756   2.528  0.0008  3.6949 -0.3029
10330TIP3   OH252480   1.226   3.751   1.001  0.3297  0.0908 -0.3372
10330TIP3    H152481   1.201   3.832   0.957  1.9639  0.8547  0.0772
10330TIP3    H252482   1.178   3.752   1.084  0.7845  0.9460 -0.0737
10331TIP3   OH252483   1.650   5.593  16.350 -0.4401  0.2672 -0.5483
10331TIP3    H152484   1.620   5.667  16.402 -0.5731 -0.5197  0.5339
10331TIP3    H252485   1.632   5.516  16.404  1.0767 -0.4455 -0.9841
10332TIP3   OH252486   5.666   1.576   0.170  0.1483  0.2645  0.7953
10332TIP3    H152487   5.753   1.538   0.153 -0.1381  0.0485 -0.2700
10332TIP3    H252488   5.618   1.507   0.215 -0.0295 -0.2680 -0.1875
10333TIP3   OH252489   4.578   1.595  13.704 -0.2334 -0.3626  0.4693
10333TIP3    H152490   4.488   1.593  13.738 -0.9943  1.7030 -1.1732
10333TIP3    H252491   4.628   1.639  13.772 -0.8139 -0.0885  0.7290
10334TIP3   OH252492   3.271   1.998   0.613  0.4044 -0.2186  0.8123
10334TIP3    H152493   3.353   2.006   0.661  0.3141  1.3581  0.7420
10334TIP3    H252494   3.254   2.085   0.577 -0.0680 -1.0761 -1.2343
10335TIP3   OH252495   3.868   2.153   2.554 -0.1125  0.2360 -0.1148
10335TIP3    H152496   3.949   2.133   2.509  0.0507  2.4433 -0.9027
10335TIP3    H252497   3.803   2.162   2.484 -0.8324 -0.5441  0.4338
10336TIP3   OH252498   6.691   1.056  16.181 -0.5917 -0.3100 -0.5307
10336TIP3    H152499   6.784   1.038  16.172  0.2208  3.3372 -1.0619
10336TIP3    H252500   6.667   1.102  16.101 -1.6854  2.6652  1.3521
10337TIP3   OH252501   1.081   3.681   2.714  0.7342  0.1450  0.5617
10337TIP3    H152502   1.036   3.673   2.629 -0.2556  0.1881  1.0684
10337TIP3    H252503   1.098   3.775   2.722 -1.6917  0.5671  1.6341
10338TIP3   OH252504   6.150   5.585   0.802  0.2910  0.1198 -0.2530
10338TIP3    H152505   6.196   5.513   0.845 -0.0942 -0.0596 -0.1342
10338TIP3    H252506   6.060   5.578   0.834  0.3785  1.0118  0.2091
10339TIP3   OH252507   4.920   3.324   0.923  0.2771  0.2369 -0.0556
10339TIP3    H152508   4.996   3.266   0.918  0.2462  0.0661  1.0979
10339TIP3    H252509   4.860   3.280   0.984  0.4716  1.6921  1.2701
10340TIP3   OH252510   0.918   2.381  16.148  0.2254 -0.1909 -0.2850
10340TIP3    H152511   0.840   2.432  16.170  0.3946  0.2133 -0.6134
10340TIP3    H252512   0.900   2.294  16.183 -1.0654 -0.5561 -1.7713
10341TIP3   OH252513   1.662   2.826   4.528 -0.5941  0.3362  0.7663
10341TIP3    H152514   1.594   2.819   4.461  0.1629 -0.8334  0.0792
10341TIP3    H252515   1.676   2.920   4.537  0.1422  0.5510 -1.6881
10342TIP3   OH252516   4.078   2.860   2.011  0.1649  0.0429  0.0957
10342TIP3    H152517   4.117   2.788   2.059 -0.3604  0.5583  1.3523
10342TIP3    H252518   4.114   2.853   1.923  1.0738 -1.0015  0.5279
10343TIP3   OH252519   0.407   6.006   2.950  0.5884 -0.1595 -0.0584
10343TIP3    H152520   0.443   6.090   2.979 -0.7343  0.1869  0.6665
10343TIP3    H252521   0.462   5.940   2.993 -1.3610  0.3298  3.5581
10344TIP3   OH252522   1.652   6.723   3.007 -0.2543 -0.0980 -0.1776
10344TIP3    H152523   1.685   6.716   2.917 -1.3115 -1.2063 -0.4934
10344TIP3    H252524   1.660   6.635   3.043 -0.0368  0.2935  0.7552
10345TIP3   OH252525   0.733   0.452   3.462  0.0031 -0.2838 -0.3793
10345TIP3    H152526   0.727   0.445   3.367 -0.4221  0.1368 -0.3848
10345TIP3    H252527   0.644   0.431   3.493  0.8510 -3.8127  0.1435
10346TIP3   OH252528   1.212   2.209   5.711 -0.4784  0.4765 -0.3903
10346TIP3    H152529   1.265   2.278   5.751 -0.3906  0.6063 -0.7309
10346TIP3    H252530   1.273   2.136   5.700 -0.7351  0.0866  0.6186
10347TIP3   OH252531   6.505   1.884  16.976 -0.6205 -0.2626  0.5475
10347TIP3    H152532   6.508   1.963  16.922  1.3023  0.5230  1.6927
10347TIP3    H252533   6.519   1.915  17.066  2.0275 -1.9894  0.8472
10348TIP3   OH252534   3.160   5.662   1.973  0.1782 -0.5354 -0.6498
10348TIP3    H152535   3.208   5.591   1.930  1.3533 -0.1958  0.0521
10348TIP3    H252536   3.099   5.618   2.031  0.8052 -0.9881 -0.3213
10349TIP3   OH252537   6.513   4.014  11.954  0.8690  0.0808 -0.3899
10349TIP3    H152538   6.519   3.966  11.872  1.0232  0.1609 -0.4259
10349TIP3    H252539   6.600   4.006  11.993  0.4769 -0.9428  0.3289
10350TIP3   OH252540   4.206   1.408   4.741  0.5919  0.6832  0.0747
10350TIP3    H152541   4.162   1.489   4.717 -0.4273 -0.0010 -0.4629
10350TIP3    H252542   4.282   1.403   4.683  1.2470  1.7357  0.8120
10351TIP3   OH252543   3.132   5.539  14.349 -0.0383  0.1256  0.2484
10351TIP3    H152544   3.082   5.575  14.276 -0.9740 -2.2748 -0.3878
10351TIP3    H252545   3.223   5.558  14.327 -0.4570  1.7707 -0.1792
10352TIP3   OH252546   4.473   6.640  15.467  0.1496 -0.0455  0.1660
10352TIP3    H152547   4.529   6.679  15.533  0.3202  0.6376 -0.3807
10352TIP3    H252548   4.470   6.547  15.491  2.0066 -0.2221 -0.1443
10353TIP3   OH252549   4.418   1.888   1.517 -0.1675  0.4533  0.2309
10353TIP3    H152550   4.438   1.917   1.428  0.6452  0.3634  0.3715
10353TIP3    H252551   4.502   1.896   1.563 -0.0740 -1.4443  0.4543
10354TIP3   OH252552   6.261   2.837   0.741  0.2931 -0.8419  0.1956
10354TIP3    H152553   6.252   2.780   0.665  1.3405 -0.0858 -0.5258
10354TIP3    H252554   6.228   2.785   0.815  0.0708 -1.8999 -0.6334
10355TIP3   OH252555   1.864   6.041  13.297  0.6075  0.1005  0.6891
10355TIP3    H152556   1.881   6.124  13.253 -1.0921 -0.7593 -1.8280
10355TIP3    H252557   1.777   6.016  13.267  0.5310 -1.9791  2.4229
10356TIP3   OH252558   4.389   2.313   0.886 -0.2280  0.2087  0.1151
10356TIP3    H152559   4.412   2.282   0.973  0.2143 -3.1539 -1.0708
10356TIP3    H252560   4.297   2.340   0.894 -0.0233  0.5422  1.7025
10357TIP3   OH252561   0.250   5.941  15.422  0.7342  0.3929  0.0389
10357TIP3    H152562   0.220   5.850  15.425 -1.4364  1.0895  1.5185
10357TIP3    H252563   0.308   5.950  15.498  1.4781  0.1329 -0.4739
10358TIP3   OH252564   0.442   0.646   3.784 -0.0632  0.0881 -0.2632
10358TIP3    H152565   0.469   0.555   3.795 -0.2600  0.1220  0.6061
10358TIP3    H252566   0.359   0.652   3.832  2.1412  1.7929  3.9075
10359TIP3   OH252567   0.959   2.393  13.059 -0.4530  0.5585  0.4692
10359TIP3    H152568   0.951   2.333  13.133  0.7566 -2.0135 -1.3343
10359TIP3    H252569   1.052   2.391  13.037 -1.0012 -0.0752 -2.0956
10360TIP3   OH252570   2.122   4.025   5.905 -0.2098  0.1596 -0.3108
10360TIP3    H152571   2.034   4.048   5.875 -0.6862 -0.0264  0.9099
10360TIP3    H252572   2.130   3.931   5.885 -0.3758  0.1219 -0.1957
10361TIP3   OH252573   5.833   3.276  11.050 -0.2920  0.4109 -0.1161
10361TIP3    H152574   5.782   3.196  11.038 -0.3319  0.1611  1.4953
10361TIP3    H252575   5.796   3.338  10.987 -2.3822  0.1357  0.7617
10362TIP3   OH252576   0.798   0.672  12.020  0.0533 -0.0625 -0.0559
10362TIP3    H152577   0.800   0.640  11.929  0.4086 -1.3894  0.4006
10362TIP3    H252578   0.845   0.755  12.017 -1.0551  0.5723 -1.3172
10363TIP3   OH252579   5.303   2.810  12.031 -0.1333 -0.5395 -0.4182
10363TIP3    H152580   5.373   2.744  12.036 -0.9685 -1.4233 -0.0928
10363TIP3    H252581   5.263   2.808  12.118 -0.5758 -0.0591 -0.6123
10364TIP3   OH252582   1.847   5.381  11.771 -0.2703 -0.1635 -0.1422
10364TIP3    H152583   1.868   5.310  11.709 -0.6647 -1.9814  1.7009
10364TIP3    H252584   1.902   5.454  11.743 -0.1771 -1.0237 -2.3983
10365TIP3   OH252585   5.669   6.155   4.051  0.5047  0.4202 -0.6227
10365TIP3    H152586   5.653   6.171   4.144  0.4571  0.5874 -0.6585
10365TIP3    H252587   5.763   6.137   4.046  1.0802  2.9813 -0.8607
10366TIP3   OH252588   5.997   5.250   1.775  0.4013 -0.7420  0.2921
10366TIP3    H152589   6.004   5.345   1.769  2.7741 -0.8389  0.3096
10366TIP3    H252590   6.001   5.231   1.868 -1.4121 -0.8461  0.3866
10367TIP3   OH252591   3.869   3.752  15.763  0.1138 -0.0009  0.0821
10367TIP3    H152592   3.873   3.750  15.859  0.0349  0.1723  0.0912
10367TIP3    H252593   3.943   3.699  15.734 -0.6331 -1.1625  0.2402
10368TIP3   OH252594   5.979   4.519   2.490  0.3123  0.4180 -0.3689
10368TIP3    H152595   5.955   4.598   2.442 -2.1134 -0.7465 -1.2029
10368TIP3    H252596   6.023   4.552   2.569 -0.5274  2.5850 -0.7294
10369TIP3   OH252597   4.399   1.421  11.687  0.0427 -0.2002 -0.2745
10369TIP3    H152598   4.383   1.398  11.779  0.0930  0.7455 -0.0108
10369TIP3    H252599   4.328   1.379  11.639 -0.4012 -0.1192  0.2961
10370TIP3   OH252600   4.168   2.180   4.039  0.1425  0.6555 -0.5626
10370TIP3    H152601   4.173   2.237   3.962 -1.7557  1.5717 -0.0710
10370TIP3    H252602   4.127   2.100   4.007  0.2151  0.6682 -0.6879
10371TIP3   OH252603   0.242   5.261   4.540 -0.6517  0.2740  0.5402
10371TIP3    H152604   0.287   5.227   4.617 -1.6235 -0.5335  0.7720
10371TIP3    H252605   0.153   5.226   4.547 -0.8958  0.6085 -0.6782
10372TIP3   OH252606   4.981   3.016  10.961  0.1705 -0.2004 -0.2761
10372TIP3    H152607   4.896   2.980  10.987 -0.0030  0.4273  0.0433
10372TIP3    H252608   4.985   3.101  11.004  2.1751 -1.3591  2.0500
10373TIP3   OH252609   0.881   4.977   1.317  0.2317 -0.4404 -0.1494
10373TIP3    H152610   0.896   5.014   1.404  0.1782  2.7802 -1.3470
10373TIP3    H252611   0.792   4.942   1.321 -0.5587  1.5032  0.6082
10374TIP3   OH252612   2.561   3.236   1.450  0.2769  0.2148  0.4045
10374TIP3    H152613   2.613   3.308   1.487 -1.3148  0.5759  2.0593
10374TIP3    H252614   2.489   3.279   1.405 -0.3154 -0.3201  0.8238
10375TIP3   OH252615   5.453   1.012   2.239  0.1229  0.0399  0.4835
10375TIP3    H152616   5.387   0.993   2.305  0.6881  0.3758  1.1509
10375TIP3    H252617   5.517   0.942   2.247  0.8054  0.7188  1.1058
10376TIP3   OH252618   4.006   1.689   1.086  0.3249  0.0162  0.2256
10376TIP3    H152619   4.015   1.674   1.180 -0.6909 -1.0487  0.1772
10376TIP3    H252620   4.094   1.676   1.051  0.2300 -2.3257  0.7013
10377TIP3   OH252621   6.327   5.457  12.667  0.3591  0.7252  0.2164
10377TIP3    H152622   6.382   5.505  12.728 -1.1510  2.6197  0.1805
10377TIP3    H252623   6.322   5.512  12.589 -0.7134  0.1103 -0.1758
10378TIP3   OH252624   1.335   6.760   1.728  0.2779  0.1414 -0.2106
10378TIP3    H152625   1.333   6.855   1.740 -1.9236  0.0376  0.6300
10378TIP3    H252626   1.255   6.741   1.680  0.5239 -1.3462 -0.0592
10379TIP3   OH252627   5.038   2.794  14.064  0.0497  0.4332  0.6387
10379TIP3    H152628   5.092   2.718  14.046  0.2009  0.0785  2.4416
10379TIP3    H252629   4.986   2.769  14.141 -0.6210  1.7899  0.6560
10380TIP3   OH252630   5.779   5.684  13.470 -0.3557  0.5358 -0.3635
10380TIP3    H152631   5.852   5.677  13.408  0.4637  2.3072  0.3624
10380TIP3    H252632   5.794   5.766  13.516 -1.8357  0.0412  1.0781
10381TIP3   OH252633   5.639   1.289  16.176 -0.6932  0.1696  0.7371
10381TIP3    H152634   5.614   1.278  16.268 -1.6525 -1.8402  0.2772
10381TIP3    H252635   5.579   1.355  16.143  0.0061  1.3139  1.6477
10382TIP3   OH252636   4.475   3.352   0.433  0.6963  0.2647  0.2894
10382TIP3    H152637   4.500   3.438   0.467  0.7843 -0.6130  2.6420
10382TIP3    H252638   4.558   3.304   0.428  0.5215 -0.0013 -0.0416
10383TIP3   OH252639   4.904   0.905   3.264 -0.2105  0.4504  0.0922
10383TIP3    H152640   4.812   0.931   3.271 -0.8650 -1.0759 -1.7125
10383TIP3    H252641   4.908   0.820   3.306  0.3059  0.3710 -0.1133
10384TIP3   OH252642   1.510   4.781   3.328 -0.0448  0.0964  0.0281
10384TIP3    H152643   1.584   4.726   3.353 -1.3477 -1.2956  0.9607
10384TIP3    H252644   1.517   4.789   3.233  0.2532 -1.5987 -0.1247
10385TIP3   OH252645   6.467   4.962   1.449 -0.2881  0.2014 -0.0441
10385TIP3    H152646   6.415   4.934   1.525  1.5518  1.3017  1.7188
10385TIP3    H252647   6.558   4.955   1.479  0.5415 -0.0438 -2.4437
10386TIP3   OH252648   2.291   1.023   1.585  0.9063 -0.4150  0.0692
10386TIP3    H152649   2.206   1.065   1.574  0.0524 -1.6244  1.6957
10386TIP3    H252650   2.328   1.020   1.496 -1.3251 -1.0728 -0.9104
10387TIP3   OH252651   4.597   0.230   0.538 -0.7902 -0.2760 -0.0758
10387TIP3    H152652   4.526   0.281   0.577 -0.8079 -0.8300  0.6400
10387TIP3    H252653   4.577   0.228   0.445  0.0580  2.3617 -0.3722
10388TIP3   OH252654   5.168   0.407   2.560  0.3707 -0.4588  0.5385
10388TIP3    H152655   5.102   0.344   2.588 -0.6889  0.6497  0.6399
10388TIP3    H252656   5.187   0.459   2.638 -0.4917  0.8172 -0.0602
10389TIP3   OH252657   2.230   2.752   4.210  0.4005  0.5016  0.0156
10389TIP3    H152658   2.217   2.670   4.257  0.0652  0.7211  0.3077
10389TIP3    H252659   2.144   2.792   4.206  1.0187  2.3778  2.7186
10390TIP3   OH252660   4.823   5.739  16.262  0.0982  1.0124 -0.0483
10390TIP3    H152661   4.779   5.751  16.178  0.4801  1.6119 -0.1676
10390TIP3    H252662   4.759   5.694  16.317  0.5490 -1.2579 -1.2910
10391TIP3   OH252663   3.213   0.303  11.237 -0.3570 -0.1969  0.0361
10391TIP3    H152664   3.145   0.249  11.197  0.5171 -1.0334 -0.3567
10391TIP3    H252665   3.227   0.265  11.324  0.2189 -0.5857 -0.2182
10392TIP3   OH252666   2.186   0.985  12.972 -0.3460  0.0890 -0.0634
10392TIP3    H152667   2.269   1.014  12.935 -0.5634  0.8641  0.0332
10392TIP3    H252668   2.192   1.003  13.065 -0.9186  0.9072 -0.1735
10393TIP3   OH252669   2.256   0.082   5.460 -0.3075  0.2278 -0.2191
10393TIP3    H152670   2.351   0.074   5.473 -0.3779  2.0733  2.0318
10393TIP3    H252671   2.234   0.169   5.493 -2.7562  0.0195 -1.0900
10394TIP3   OH252672   0.402   0.070  11.847  0.3961  0.1208  0.1384
10394TIP3    H152673   0.427   0.104  11.933  0.5279  1.4978 -0.4110
10394TIP3    H252674   0.344  -0.004  11.866  0.0646  0.6789  1.4029
10395TIP3   OH252675   0.893   6.616  17.301 -0.1506 -0.1279  0.0952
10395TIP3    H152676   0.920   6.707  17.316 -0.5212 -0.0348  0.2025
10395TIP3    H252677   0.971   6.574  17.264  0.0682  0.1966  0.1835
10396TIP3   OH252678   1.031   1.671   6.248  0.3036 -0.1617  0.0918
10396TIP3    H152679   1.053   1.764   6.252 -2.9296  0.7210  0.2384
10396TIP3    H252680   0.990   1.659   6.162 -1.1216 -0.9268  0.8288
10397TIP3   OH252681   5.573   3.222  17.200 -0.4954 -0.9395 -0.3596
10397TIP3    H152682   5.572   3.176  17.284 -0.1636  0.0068  0.1771
10397TIP3    H252683   5.663   3.211  17.169 -0.3202 -0.3585 -0.0615
10398TIP3   OH252684   3.395   1.813   0.424  0.0212  0.4876 -0.1102
10398TIP3    H152685   3.417   1.821   0.517  2.3836  1.0458 -0.6554
10398TIP3    H252686   3.360   1.899   0.401 -0.6291  0.3303  0.2349
10399TIP3   OH252687   0.676   0.681   2.840 -0.1232  0.2030 -0.0844
10399TIP3    H152688   0.695   0.596   2.800  2.9869  0.9994 -0.5216
10399TIP3    H252689   0.756   0.705   2.886 -1.7425  1.8379  2.1477
10400TIP3   OH252690   4.390   5.877   5.134  0.7925  0.2205  0.5215
10400TIP3    H152691   4.386   5.889   5.039  2.9596  1.5963  0.5356
10400TIP3    H252692   4.300   5.893   5.163 -0.1474 -1.1974 -1.3340
10401TIP3   OH252693   2.300   1.255  13.123  0.5710 -0.1226 -0.2514
10401TIP3    H152694   2.306   1.225  13.032 -0.1413  1.2328 -0.7681
10401TIP3    H252695   2.310   1.350  13.118  0.5738 -0.0322  1.1002
10402TIP3   OH252696   6.412   5.823   2.590  0.1109  0.2376 -0.8651
10402TIP3    H152697   6.407   5.834   2.685 -0.0332 -2.0606 -0.5468
10402TIP3    H252698   6.483   5.881   2.563  0.5249  0.5252  0.7055
10403TIP3   OH252699   1.231   4.777   3.143 -0.1205 -0.4709 -0.2518
10403TIP3    H152700   1.198   4.864   3.120 -0.5751 -1.0164 -1.7866
10403TIP3    H252701   1.318   4.773   3.103 -0.6830 -1.2240 -1.4442
10404TIP3   OH252702   2.243   0.354  14.202 -0.3707 -0.2235  0.3427
10404TIP3    H152703   2.264   0.266  14.231 -0.5107 -0.2703  0.3037
10404TIP3    H252704   2.276   0.411  14.271 -2.0305 -0.4044  1.3357
10405TIP3   OH252705   5.261   5.017   0.127  0.0325  0.1011  0.0332
10405TIP3    H152706   5.323   5.001   0.198 -0.7963 -2.3664  0.2907
10405TIP3    H252707   5.286   4.954   0.059 -1.6711 -0.3599 -0.1949
10406TIP3   OH252708   2.657   4.594  10.779 -0.0878  0.3963  0.5989
10406TIP3    H152709   2.665   4.676  10.730  1.1343  0.3211  0.6250
10406TIP3    H252710   2.748   4.565  10.791 -0.3443  0.2302  2.5916
10407TIP3   OH252711   6.613   3.545   1.752  0.1957 -0.7179  0.3467
10407TIP3    H152712   6.649   3.586   1.674 -0.4758 -0.7773 -0.0026
10407TIP3    H252713   6.605   3.452   1.729 -0.8453 -0.5935  0.1533
10408TIP3   OH252714   5.808   1.379  12.227  0.4281 -0.4003  0.2471
10408TIP3    H152715   5.851   1.422  12.301  2.5739 -0.8609 -0.6556
10408TIP3    H252716   5.880   1.346  12.174 -1.0651 -3.5563 -0.0410
10409TIP3   OH252717   6.118   2.334   2.378  0.1277  0.3103  0.0654
10409TIP3    H152718   6.027   2.316   2.356  0.1136 -0.7420  0.8955
10409TIP3    H252719   6.164   2.336   2.294 -0.2696 -1.5061 -0.2306
10410TIP3   OH252720   2.908   2.895   1.931 -0.2660  0.0858 -0.0988
10410TIP3    H152721   2.905   2.946   1.849 -0.8399 -0.7405 -0.6118
10410TIP3    H252722   2.960   2.949   1.991  0.8166  0.3719 -1.2444
10411TIP3   OH252723   2.152   0.895  15.540 -0.1320  0.5047  0.1545
10411TIP3    H152724   2.173   0.805  15.514  0.7943  0.6876  0.2416
10411TIP3    H252725   2.080   0.885  15.603 -0.8252 -0.0881 -0.7122
10412TIP3   OH252726   2.307   3.641  14.201 -0.4612 -0.0234 -0.0412
10412TIP3    H152727   2.244   3.641  14.273  0.4501  0.5250  0.7781
10412TIP3    H252728   2.335   3.732  14.193  0.4809 -0.3152 -0.1696
10413TIP3   OH252729   5.842   5.930   3.553  0.1555 -0.2363 -0.1337
10413TIP3    H152730   5.862   6.014   3.512  0.4370 -1.1625 -2.0026
10413TIP3    H252731   5.907   5.921   3.622 -1.0704  1.9160  1.4301
10414TIP3   OH252732   3.058   3.597   1.717 -0.2075 -0.6062 -0.0934
10414TIP3    H152733   3.028   3.612   1.627  0.6137 -1.0018 -0.4458
10414TIP3    H252734   3.143   3.554   1.707  0.0432 -0.3569  0.8786
10415TIP3   OH252735   4.572   4.837  11.005  0.5347 -0.1964  0.1593
10415TIP3    H152736   4.490   4.836  11.054  1.1933 -0.3043  1.3056
10415TIP3    H252737   4.566   4.914  10.949  0.8752  1.6087  2.4581
10416TIP3   OH252738   6.748   6.206   1.278 -0.6809  0.5854 -0.4195
10416TIP3    H152739   6.747   6.155   1.197  1.9191  0.5824 -0.5599
10416TIP3    H252740   6.717   6.145   1.345  1.3260 -0.9509 -0.7576
10417TIP3   OH252741   5.652   2.638   0.626 -0.4330  0.1126 -0.1327
10417TIP3    H152742   5.575   2.693   0.639  0.5757  1.6874 -0.5151
10417TIP3    H252743   5.719   2.698   0.593  0.7654 -1.3368 -0.4465
10418TIP3   OH252744   6.550   0.215   1.848 -0.0568  0.0257 -0.6143
10418TIP3    H152745   6.506   0.202   1.764 -1.8893  1.7564  0.0140
10418TIP3    H252746   6.518   0.144   1.903 -1.3014  0.6786 -0.4750
10419TIP3   OH252747   0.816   6.725  15.433 -0.1490  0.1588  0.2072
10419TIP3    H152748   0.772   6.798  15.478 -0.0938 -0.6550  1.6219
10419TIP3    H252749   0.785   6.732  15.342 -0.0713  1.9864  0.2733
10420TIP3   OH252750   2.212   2.913   4.522 -0.1659  0.7209  1.1966
10420TIP3    H152751   2.167   2.972   4.583 -2.0764  0.9793 -0.3659
10420TIP3    H252752   2.210   2.959   4.438 -0.3764 -0.9254  0.2554
10421TIP3   OH252753   1.707   2.470  13.632 -0.5529  0.1000 -0.5499
10421TIP3    H152754   1.647   2.477  13.707 -0.9166  0.5643 -0.8792
10421TIP3    H252755   1.790   2.503  13.666 -0.1267 -1.6802  0.2718
10422TIP3   OH252756   3.530   2.125  15.698  0.2487 -0.0999 -0.4498
10422TIP3    H152757   3.562   2.048  15.746 -0.2723  0.8149  1.4895
10422TIP3    H252758   3.467   2.090  15.636 -2.0203 -1.1104  2.1992
10423TIP3   OH252759   0.905   2.350  12.721 -0.3690  0.0314  0.4317
10423TIP3    H152760   0.880   2.362  12.812  1.2306  1.8132  0.7000
10423TIP3    H252761   0.994   2.385  12.715 -0.5008  0.1658 -1.8602
10424TIP3   OH252762   0.221   3.856  13.371  0.2420 -0.2214 -0.3962
10424TIP3    H152763   0.143   3.837  13.423  0.7936 -1.2649  0.0817
10424TIP3    H252764   0.195   3.836  13.281 -0.3169  0.3266 -0.3592
10425TIP3   OH252765   1.686   3.213  14.886 -0.3904  0.7348 -0.1272
10425TIP3    H152766   1.673   3.298  14.927  1.8821  0.9081  0.3597
10425TIP3    H252767   1.671   3.229  14.793 -0.9895  1.4207  0.0793
10426TIP3   OH252768   2.762   0.695   0.421  0.0838  0.1500 -0.5485
10426TIP3    H152769   2.708   0.751   0.366  0.0147 -0.1183 -0.7550
10426TIP3    H252770   2.843   0.745   0.432 -0.2896  0.6598 -0.0356
10427TIP3   OH252771   3.240   5.421   0.914 -0.2150  0.5661 -0.4829
10427TIP3    H152772   3.233   5.415   0.819 -1.4542  0.2054 -0.3887
10427TIP3    H252773   3.334   5.421   0.931  0.0261  0.6447 -1.7002
10428TIP3   OH252774   6.157   0.234   1.970 -0.2475 -0.1019 -0.3689
10428TIP3    H152775   6.102   0.157   1.983 -0.1763 -0.3370 -1.4143
10428TIP3    H252776   6.128   0.272   1.887  0.6367  0.2115 -0.5560
10429TIP3   OH252777   4.741   5.954   0.180  0.3198 -0.2733  0.0055
10429TIP3    H152778   4.712   5.901   0.106  0.5902 -1.1453  0.5169
10429TIP3    H252779   4.778   5.892   0.241 -1.5594  0.1746  1.7161
10430TIP3   OH252780   6.493   2.946   2.515  0.0383  0.4893 -0.4907
10430TIP3    H152781   6.557   2.875   2.507  1.4532  1.5228  0.9257
10430TIP3    H252782   6.412   2.902   2.540  0.2381 -0.8277 -1.9804
10431TIP3   OH252783   1.195   1.085   6.278  0.2101 -0.4990  0.4080
10431TIP3    H152784   1.177   1.017   6.344 -1.3997 -0.4122  0.0860
10431TIP3    H252785   1.117   1.140   6.278  0.8164  0.3904 -0.5247
10432TIP3   OH252786   6.629   4.116   0.225  0.0988  0.1918 -1.1155
10432TIP3    H152787   6.719   4.142   0.244  0.6036 -1.9094 -0.3704
10432TIP3    H252788   6.579   4.146   0.301  0.7158 -1.1204 -0.1430
10433TIP3   OH252789   2.772   5.464   3.774 -0.0671  0.0121 -0.7402
10433TIP3    H152790   2.819   5.472   3.691  1.4107  1.0451  0.1591
10433TIP3    H252791   2.732   5.550   3.787  2.9645  1.2776  1.4333
10434TIP3   OH252792   1.983   5.839  16.701 -0.0975  0.0002  0.3664
10434TIP3    H152793   2.041   5.785  16.755 -0.0287  1.6665  2.0317
10434TIP3    H252794   2.014   5.825  16.612  1.3837 -0.9370  0.9885
10435TIP3   OH252795   6.516   4.358   3.978  0.2844  0.3756 -0.6302
10435TIP3    H152796   6.492   4.362   3.885 -0.4026  1.0476 -0.4324
10435TIP3    H252797   6.486   4.272   4.006 -0.6311  0.6384 -0.7463
10436TIP3   OH252798   4.165   3.818  13.796  0.5846  0.3064 -0.4983
10436TIP3    H152799   4.088   3.824  13.739  0.2350  1.0728  0.0346
10436TIP3    H252800   4.235   3.860  13.746  0.5795 -0.0973 -0.8500
10437TIP3   OH252801   1.761   3.968  11.341 -0.0198  0.2187 -0.4188
10437TIP3    H152802   1.798   3.945  11.256  1.5619  0.4637  0.1687
10437TIP3    H252803   1.799   4.053  11.363  1.5552 -0.8903  1.5662
10438TIP3   OH252804   2.735   1.032   0.007  0.0035 -0.1145 -0.0717
10438TIP3    H152805   2.796   1.066  -0.058  0.1675  0.0856  0.1855
10438TIP3    H252806   2.763   0.942   0.022  1.8760  0.7054  1.9391
10439TIP3   OH252807   0.323   2.635   5.393 -0.2676  0.0010 -0.4723
10439TIP3    H152808   0.279   2.581   5.459  1.4650  0.5996  1.2684
10439TIP3    H252809   0.391   2.682   5.442 -0.4275  2.2593 -2.2911
10440TIP3   OH252810   0.861   5.325  15.508 -0.3194 -0.0160  0.2305
10440TIP3    H152811   0.851   5.247  15.562 -1.4010  0.7667  1.2274
10440TIP3    H252812   0.799   5.312  15.436  0.9344 -0.9435 -0.7138
10441TIP3   OH252813   3.959   1.097   2.540 -0.1531 -0.0947  0.1604
10441TIP3    H152814   3.888   1.066   2.484  1.5253  0.2709 -2.3512
10441TIP3    H252815   3.963   1.191   2.523 -0.3204  0.2473  1.8399
10442TIP3   OH252816   5.650   4.641   3.039  0.3510 -0.4044 -0.2239
10442TIP3    H152817   5.591   4.716   3.043  0.9545  0.1489 -1.2774
10442TIP3    H252818   5.715   4.658   3.107  0.8140  0.3390 -0.8290
10443TIP3   OH252819   4.296   0.713   1.387 -0.0705 -0.6491  0.7503
10443TIP3    H152820   4.263   0.772   1.318 -0.0617 -0.9652  0.4718
10443TIP3    H252821   4.229   0.646   1.395  0.4365 -1.2358  0.2571
10444TIP3   OH252822   4.852   0.342  16.688  0.6175  0.2539  0.5401
10444TIP3    H152823   4.844   0.364  16.595 -1.1641 -3.1386 -0.2675
10444TIP3    H252824   4.913   0.269  16.691 -1.6759 -1.7731  1.5253
10445TIP3   OH252825   1.942   3.173  13.855  0.9839 -0.1964 -0.1779
10445TIP3    H152826   2.001   3.204  13.924  0.4423  1.8516 -0.5585
10445TIP3    H252827   1.967   3.082  13.841  3.2083  0.2347  0.5470
10446TIP3   OH252828   2.753   5.271  16.261  0.4017 -0.0368  0.1355
10446TIP3    H152829   2.694   5.201  16.234  1.2590 -0.2494 -1.3094
10446TIP3    H252830   2.756   5.265  16.357 -1.8282 -0.0518  0.2519
10447TIP3   OH252831   0.432   6.047  12.564 -0.4625 -0.1182 -0.5080
10447TIP3    H152832   0.493   5.974  12.564 -0.3707 -0.0498  0.2204
10447TIP3    H252833   0.392   6.046  12.477  0.9869  0.1842 -1.2081
10448TIP3   OH252834   5.980   2.701  12.651 -0.4083 -0.2016 -0.8592
10448TIP3    H152835   5.969   2.705  12.556 -1.3982  1.1342 -0.7118
10448TIP3    H252836   5.894   2.673  12.684 -0.0281 -0.8021 -0.3540
10449TIP3   OH252837   5.955   3.962   1.766 -0.2055 -0.0242 -0.1248
10449TIP3    H152838   5.886   3.991   1.826 -0.4692 -0.8359 -0.0205
10449TIP3    H252839   6.024   4.027   1.776 -0.7995  0.5947  0.0526
10450TIP3   OH252840   0.212   4.187  13.232  0.1254 -0.1521 -0.7000
10450TIP3    H152841   0.166   4.211  13.313  0.3827 -1.2164 -0.2296
10450TIP3    H252842   0.142   4.178  13.167 -0.2558 -0.8583 -0.2104
10451TIP3   OH252843   2.687   2.177   1.535 -0.0058  0.1751  0.1904
10451TIP3    H152844   2.732   2.262   1.527 -1.2587  0.7012 -1.8185
10451TIP3    H252845   2.620   2.192   1.602 -0.0585  0.6969  0.0254
10452TIP3   OH252846   3.007   2.305  14.133 -0.6870 -0.1830 -0.2295
10452TIP3    H152847   3.000   2.245  14.207  1.8693 -0.1671  0.1158
10452TIP3    H252848   2.917   2.323  14.108 -1.5938 -1.2879  1.9840
10453TIP3   OH252849   6.061   2.808   1.547 -0.3173 -0.0366  0.4940
10453TIP3    H152850   6.038   2.738   1.485  2.6770 -1.7082  1.0799
10453TIP3    H252851   6.049   2.889   1.497  0.9186 -1.2528 -1.9423
10454TIP3   OH252852   0.801   2.073   3.338  0.5424  0.5180 -0.2864
10454TIP3    H152853   0.832   2.128   3.266  0.0193  1.2580  0.0427
10454TIP3    H252854   0.875   2.070   3.399  0.1249  2.0307  0.3541
10455TIP3   OH252855   2.478   2.415  15.752 -0.2959  0.4027 -0.0782
10455TIP3    H152856   2.534   2.358  15.804  1.0683  1.7429  0.0113
10455TIP3    H252857   2.389   2.388  15.773  0.2863 -1.4577  0.1824
10456TIP3   OH252858   0.428   1.741  16.876 -0.0640  0.1291 -0.7075
10456TIP3    H152859   0.513   1.708  16.848  0.3898  0.3839  0.3469
10456TIP3    H252860   0.438   1.836  16.877  0.7556  0.1240  2.6489
10457TIP3   OH252861   3.921   6.770   1.409  0.0992 -0.4021  0.9640
10457TIP3    H152862   3.843   6.736   1.365 -0.1177 -0.3241  1.2884
10457TIP3    H252863   3.903   6.863   1.421  0.6902 -0.1640  0.0824
10458TIP3   OH252864   4.162   1.435  17.159 -0.1083 -0.2464  0.2031
10458TIP3    H152865   4.168   1.477  17.074 -0.8705  0.5706  0.5318
10458TIP3    H252866   4.220   1.486  17.216 -1.1754  0.5154  0.6475
10459TIP3   OH252867   2.827   1.470   1.838 -0.6220 -0.4096  0.2624
10459TIP3    H152868   2.868   1.384   1.837  1.8608  0.6833  1.1733
10459TIP3    H252869   2.815   1.491   1.931 -0.3637  0.5947  0.0829
10460TIP3   OH252870   0.087   3.056   2.459  0.4011 -0.0426 -0.8484
10460TIP3    H152871   0.021   3.056   2.529 -1.3653  0.6495 -2.4304
10460TIP3    H252872   0.161   3.008   2.497 -0.4024  0.4379  1.5367
10461TIP3   OH252873   2.908   3.384  13.957  0.1627 -0.4344  0.8950
10461TIP3    H152874   2.933   3.469  13.921 -2.3671  0.6188  1.4122
10461TIP3    H252875   2.907   3.397  14.052 -1.4843 -0.6312  0.9281
10462TIP3   OH252876   4.363   0.396   0.614  0.4896  0.4164 -0.0780
10462TIP3    H152877   4.316   0.469   0.654 -2.0515 -0.8952 -0.4635
10462TIP3    H252878   4.366   0.417   0.521 -0.1152  0.1185 -0.1693
10463TIP3   OH252879   2.055   1.578  13.482 -0.2909 -0.0778  0.0348
10463TIP3    H152880   2.006   1.657  13.502 -0.0609 -0.1663  0.9841
10463TIP3    H252881   2.009   1.508  13.529 -0.7864 -0.6075 -1.1867
10464TIP3   OH252882   0.261   3.690  13.776  0.2352 -0.6917  0.1182
10464TIP3    H152883   0.241   3.716  13.866 -0.0250  4.0611 -1.0349
10464TIP3    H252884   0.180   3.651  13.744  0.2586 -2.2431  1.7991
10465TIP3   OH252885   2.978   5.074   4.145 -0.0318 -0.0231 -0.1066
10465TIP3    H152886   2.894   5.059   4.101  0.2354  0.7001 -0.8887
10465TIP3    H252887   3.031   5.120   4.081  0.7868  0.0127  0.5737
10466TIP3   OH252888   1.683   4.674   0.936 -0.1455 -0.5488 -0.1674
10466TIP3    H152889   1.754   4.621   0.901 -0.1155 -1.1902  0.8132
10466TIP3    H252890   1.629   4.612   0.985 -1.7871 -0.2049 -1.4561
10467TIP3   OH252891   3.552   2.936   1.015 -0.2353 -0.1930 -0.1686
10467TIP3    H152892   3.629   2.904   1.062 -0.3774  0.3915  0.4677
10467TIP3    H252893   3.548   2.881   0.936  0.3759 -0.7450  0.1765
10468TIP3   OH252894   5.152   0.047   2.368 -0.2131 -0.4072 -0.0367
10468TIP3    H152895   5.228   0.089   2.328 -0.6419 -0.3680 -0.8271
10468TIP3    H252896   5.078   0.104   2.347 -0.6116 -0.9351 -0.1121
10469TIP3   OH252897   6.445   6.731  11.762 -0.6323 -1.1287 -0.0906
10469TIP3    H152898   6.426   6.748  11.670  0.3346  1.5486  0.1126
10469TIP3    H252899   6.413   6.809  11.808  2.7548 -0.3853  1.2828
10470TIP3   OH252900   3.426   1.727   1.288 -0.1340 -0.1808 -0.6076
10470TIP3    H152901   3.458   1.710   1.376 -0.1965 -0.4931 -0.6438
10470TIP3    H252902   3.484   1.795   1.253  0.1871 -0.4034 -0.5009
10471TIP3   OH252903   1.680   4.795  16.783  0.4492 -0.3057  0.1456
10471TIP3    H152904   1.671   4.745  16.702  2.1053  0.7244 -0.7139
10471TIP3    H252905   1.596   4.782  16.828 -0.5834 -0.7758 -1.7939
10472TIP3   OH252906   2.222   5.505   2.812 -0.5677 -0.7691 -0.5889
10472TIP3    H152907   2.274   5.466   2.883 -1.2565  0.6664  0.7585
10472TIP3    H252908   2.216   5.597   2.834 -1.8456 -0.5004 -1.8880
10473TIP3   OH252909   0.962   1.019  14.719  0.5053  0.2547  0.3885
10473TIP3    H152910   0.892   0.973  14.672  0.3219  0.0514  0.8563
10473TIP3    H252911   1.037   0.960  14.712  0.6275  0.4554 -0.0797
10474TIP3   OH252912   3.345   0.154  15.915  0.6223 -0.5396  0.0254
10474TIP3    H152913   3.253   0.164  15.893  0.2625 -0.9447  1.2561
10474TIP3    H252914   3.381   0.096  15.848  0.3232  0.6736 -1.2378
10475TIP3   OH252915   6.751   3.669   5.710  0.5639  0.4950 -0.6656
10475TIP3    H152916   6.759   3.581   5.746 -1.1078  0.7044  0.3436
10475TIP3    H252917   6.730   3.655   5.617 -0.8954 -0.2258 -0.2556
10476TIP3   OH252918   4.678   6.476  11.703  0.1995 -0.4547 -0.2810
10476TIP3    H152919   4.727   6.398  11.730  0.1146 -0.3817  0.0918
10476TIP3    H252920   4.629   6.448  11.626  2.3425 -0.0008 -1.9112
10477TIP3   OH252921   1.729   3.253  16.550 -0.0354 -0.0642 -0.6335
10477TIP3    H152922   1.709   3.331  16.600 -0.2583  0.5605 -1.6681
10477TIP3    H252923   1.749   3.186  16.616  0.9526  1.0683  0.2433
10478TIP3   OH252924   3.228   5.886  14.875 -0.3749  0.8161  0.0555
10478TIP3    H152925   3.133   5.894  14.882 -0.4157 -0.9010  2.8885
10478TIP3    H252926   3.240   5.826  14.801 -1.2159  3.2596 -2.2672
10479TIP3   OH252927   6.653   1.955  15.934  0.0936 -0.0727 -0.3420
10479TIP3    H152928   6.731   1.933  15.883  0.4731  1.4806 -0.4639
10479TIP3    H252929   6.629   2.043  15.905 -1.0719 -0.0981  0.4823
10480TIP3   OH252930   0.376   3.937  16.550  0.4492 -0.2762  0.2617
10480TIP3    H152931   0.326   3.933  16.631  0.4683 -1.3506  0.2289
10480TIP3    H252932   0.459   3.978  16.575  0.1613  0.0944  0.6207
10481TIP3   OH252933   4.025   4.023   0.910  0.2307 -0.2631 -0.0315
10481TIP3    H152934   4.081   4.056   0.980 -1.0548 -0.7577  1.2718
10481TIP3    H252935   3.996   4.102   0.863  1.7880  0.0120 -0.5826
10482TIP3   OH252936   4.036   6.136  15.259  0.1702 -0.3003  0.3434
10482TIP3    H152937   3.959   6.097  15.217 -0.3759  0.0777  0.9850
10482TIP3    H252938   4.103   6.067  15.255  0.5876  0.1291 -2.3146
10483TIP3   OH252939   1.185   2.746  16.096 -0.7186 -0.4539 -0.2705
10483TIP3    H152940   1.139   2.779  16.173 -1.3444 -0.1006 -0.7841
10483TIP3    H252941   1.180   2.650  16.103  2.9607 -0.6608  2.3609
10484TIP3   OH252942   3.985   5.754  13.038  0.8265  0.5135  0.1802
10484TIP3    H152943   3.983   5.796  12.952 -0.2203 -2.3170 -1.3267
10484TIP3    H252944   4.066   5.702  13.037 -0.2295 -1.2156 -0.0577
10485TIP3   OH252945   2.125   4.315  12.712  0.1167 -0.5715  0.3001
10485TIP3    H152946   2.158   4.298  12.624  0.6190  2.2335 -0.1440
10485TIP3    H252947   2.197   4.359  12.757 -1.1567  0.8235  1.0690
10486TIP3   OH252948   5.391   2.634  11.676 -0.1944 -0.0882 -0.4416
10486TIP3    H152949   5.466   2.694  11.672  1.0480 -1.3793  1.5710
10486TIP3    H252950   5.326   2.681  11.728  0.6960 -0.3439  0.9584
10487TIP3   OH252951   0.542   3.078   6.410  0.4155  0.3443 -0.2156
10487TIP3    H152952   0.620   3.131   6.428 -0.5925  1.3589  1.4459
10487TIP3    H252953   0.469   3.132   6.439 -0.6271 -2.3360  2.7838
10488TIP3   OH252954   4.341   3.582  13.462  0.4153 -0.5950 -0.2129
10488TIP3    H152955   4.273   3.522  13.494 -0.7000  0.4801 -0.4812
10488TIP3    H252956   4.318   3.666  13.500  1.4806 -0.1664 -0.5058
10489TIP3   OH252957   4.496   1.179   2.770 -0.0663  0.0927  0.3503
10489TIP3    H152958   4.550   1.258   2.771  1.3987 -0.8793  0.8586
10489TIP3    H252959   4.406   1.212   2.771  0.4502  1.7860  3.4129
10490TIP3   OH252960   0.121   0.904  13.537  0.8307  0.1933  0.4672
10490TIP3    H152961   0.063   0.844  13.490  0.5946 -0.2484  1.2849
10490TIP3    H252962   0.101   0.887  13.630  2.7944 -0.4997  0.8036
10491TIP3   OH252963   5.810   3.572   2.897  0.0305  0.0938  0.2220
10491TIP3    H152964   5.734   3.621   2.931 -0.6961 -1.4600  0.9733
10491TIP3    H252965   5.777   3.529   2.818  1.2848  2.4649 -1.6911
10492TIP3   OH252966   2.057   1.021  11.956  0.1134  0.3809  0.1762
10492TIP3    H152967   1.990   0.977  12.009  1.0907 -0.3112  0.8791
10492TIP3    H252968   2.028   1.009  11.866 -1.9224  2.1148  0.5212
10493TIP3   OH252969   5.468   2.029   0.872  0.0411  0.2442  0.3706
10493TIP3    H152970   5.409   1.971   0.823 -0.3919  0.9054  0.0989
10493TIP3    H252971   5.481   1.985   0.956 -1.3716  0.4019  0.6920
10494TIP3   OH252972   3.371   6.305  16.074 -0.2139 -0.4651  0.2072
10494TIP3    H152973   3.277   6.300  16.054 -0.1254  0.8154 -0.7070
10494TIP3    H252974   3.412   6.322  15.990  0.8829 -1.2569  0.5667
10495TIP3   OH252975   6.027   0.442   2.739 -0.0250  0.6506 -0.9020
10495TIP3    H152976   6.035   0.368   2.678 -1.8434  0.5124 -1.0315
10495TIP3    H252977   5.979   0.508   2.689  0.5147  1.4562 -0.3692
10496TIP3   OH252978   2.113   6.325   3.774 -0.3274  0.4411  0.5666
10496TIP3    H152979   2.041   6.339   3.712 -0.0130  1.2957  0.3904
10496TIP3    H252980   2.152   6.411   3.785 -0.1337  0.2184  1.6635
10497TIP3   OH252981   4.606   1.653  14.691  0.5604 -0.2346 -0.7507
10497TIP3    H152982   4.540   1.631  14.757 -0.3915  0.8009 -1.3254
10497TIP3    H252983   4.558   1.654  14.609  1.3238  0.4403 -1.1972
10498TIP3   OH252984   3.131   2.172   0.818  0.3717 -0.0550  0.6506
10498TIP3    H152985   3.115   2.250   0.765 -0.6564 -1.3062 -0.9758
10498TIP3    H252986   3.056   2.116   0.801  0.9427 -1.2921  2.0120
10499TIP3   OH252987   3.464   2.104   6.274 -0.0548 -0.5500 -0.3262
10499TIP3    H152988   3.435   2.028   6.222 -1.6801 -1.0361  1.1804
10499TIP3    H252989   3.463   2.177   6.212 -1.7508 -1.1401 -1.0799
10500TIP3   OH252990   3.612   6.698   5.362 -0.1277  0.2298  0.8344
10500TIP3    H152991   3.614   6.794   5.360 -1.1177  0.2558  0.3155
10500TIP3    H252992   3.639   6.672   5.274 -1.5263  0.0942  0.4221
10501TIP3   OH252993   1.237   6.743  11.679 -0.5755 -0.8335  0.4934
10501TIP3    H152994   1.314   6.746  11.736 -1.4972 -2.1746  1.8651
10501TIP3    H252995   1.241   6.825  11.630 -0.7762  1.3616  3.8479
10502TIP3   OH252996   3.310   4.501  15.557 -0.2277  0.4598 -0.1094
10502TIP3    H152997   3.251   4.468  15.489 -0.7914  1.9366 -0.3796
10502TIP3    H252998   3.366   4.426  15.579 -0.2376 -0.1464 -1.9688
10503TIP3   OH252999   4.199   5.191  14.610  0.0455 -0.4175  0.1988
10503TIP3    H153000   4.113   5.217  14.579 -1.1280 -1.2464  2.5367
10503TIP3    H253001   4.248   5.274  14.618 -0.2391 -0.0145 -1.8213
10504TIP3   OH253002   5.717   4.139  12.740 -0.1287  0.1254 -0.1226
10504TIP3    H153003   5.762   4.189  12.808  0.1143  0.2809 -0.3943
10504TIP3    H253004   5.781   4.074  12.712 -0.2229  0.0712 -0.2129
10505TIP3   OH253005   0.010   3.764   0.037 -0.6100  0.3722 -0.4275
10505TIP3    H153006  -0.060   3.766   0.102 -1.1542 -0.5814 -0.9655
10505TIP3    H253007   0.056   3.847   0.049 -1.5045  0.7843  0.2872
10506TIP3   OH253008   2.102   0.321  14.849 -0.2651  0.4611  0.2448
10506TIP3    H153009   2.037   0.377  14.807  0.7662 -0.3937 -2.7374
10506TIP3    H253010   2.059   0.236  14.858 -0.2618  0.4633  0.2811
10507TIP3   OH253011   4.688   0.420  15.837 -0.1231 -0.0085 -0.1516
10507TIP3    H153012   4.683   0.453  15.747  1.4422  0.7318 -0.0041
10507TIP3    H253013   4.699   0.499  15.890  1.1123 -0.5902  0.4724
10508TIP3   OH253014   5.711   4.074   1.897  0.0700 -0.0851  0.0879
10508TIP3    H153015   5.662   4.071   1.815  0.2700  0.8239 -0.0653
10508TIP3    H253016   5.739   4.165   1.906  2.3087 -0.6911 -0.1560
10509TIP3   OH253017   5.101   3.545   5.670  0.4031 -0.0944 -0.0529
10509TIP3    H153018   5.010   3.516   5.659  0.3620 -0.4406  1.1119
10509TIP3    H253019   5.148   3.504   5.597 -0.2463 -0.4607 -0.2726
10510TIP3   OH253020   1.042   5.959   2.707 -0.1064 -0.2578 -0.0797
10510TIP3    H153021   1.091   5.995   2.632  0.3158 -0.6386  0.0046
10510TIP3    H253022   1.052   6.024   2.776 -1.6228  0.7390 -0.7539
10511TIP3   OH253023   1.222   6.455   1.122 -0.6399  0.6568  0.0313
10511TIP3    H153024   1.164   6.382   1.100 -1.1468  1.0215  0.1554
10511TIP3    H253025   1.309   6.416   1.124 -0.9400 -0.0066  0.3704
10512TIP3   OH253026   5.553   3.559   4.259  0.4653 -0.0067 -0.3363
10512TIP3    H153027   5.567   3.464   4.259 -4.5281 -1.0156  0.3229
10512TIP3    H253028   5.525   3.580   4.170 -2.3364 -0.1237  0.4044
10513TIP3   OH253029   4.704   5.319  16.814  0.4064  0.0867  0.1992
10513TIP3    H153030   4.691   5.250  16.749  3.2624  0.6275 -1.0958
10513TIP3    H253031   4.734   5.272  16.892 -2.6846 -0.5276  1.1386
10514TIP3   OH253032   0.158   0.447   3.718  0.5556 -0.4388  0.5970
10514TIP3    H153033   0.182   0.465   3.809 -0.9080 -0.3229  0.9818
10514TIP3    H253034   0.063   0.443   3.719  0.4997 -0.0701 -1.0104
10515TIP3   OH253035   4.211   0.422  14.648 -0.5219  0.3335 -0.5436
10515TIP3    H153036   4.145   0.400  14.714 -1.4199 -2.6013 -2.2046
10515TIP3    H253037   4.293   0.426  14.696 -1.3546 -0.2089  0.9814
10516TIP3   OH253038   6.665   0.633  12.658 -0.1815  0.1278 -0.0612
10516TIP3    H153039   6.672   0.551  12.706 -0.0208  1.4806  2.3631
10516TIP3    H253040   6.712   0.617  12.576  0.4120 -1.9751  0.6302
10517TIP3   OH253041   0.563   1.833   5.577 -0.2372  0.8842  0.0665
10517TIP3    H153042   0.614   1.890   5.634  1.3466  0.4591 -0.8593
10517TIP3    H253043   0.556   1.881   5.494 -0.3114  0.4422 -0.1911
10518TIP3   OH253044   5.338   3.965  13.521  0.0530  0.2594 -0.4862
10518TIP3    H153045   5.324   4.058  13.538  0.7858  0.2406  0.2585
10518TIP3    H253046   5.419   3.944  13.568 -0.5454 -0.9447  0.0367
10519TIP3   OH253047   4.457   3.074  14.694  0.4033 -0.4347  0.0294
10519TIP3    H153048   4.451   3.103  14.603  1.7242 -0.0575  0.0392
10519TIP3    H253049   4.503   2.991  14.689 -0.0567 -0.7093  0.3125
10520TIP3   OH253050   4.781   6.113  16.063  0.3911 -0.1225  0.6540
10520TIP3    H153051   4.749   6.027  16.090 -1.4249  0.3232  0.0503
10520TIP3    H253052   4.817   6.152  16.143 -0.5245 -0.6821  1.3518
10521TIP3   OH253053   3.445   3.755   2.625 -0.2009 -0.2343  0.4525
10521TIP3    H153054   3.398   3.687   2.576  0.0809 -0.6138  0.7005
10521TIP3    H253055   3.534   3.720   2.633  0.6272  1.2253 -1.5113
10522TIP3   OH253056   2.652   4.371  14.705  0.5235 -0.2821  0.0273
10522TIP3    H153057   2.696   4.293  14.672 -0.8498 -0.9257 -0.3398
10522TIP3    H253058   2.657   4.363  14.800  2.4569  0.4111  0.0303
10523TIP3   OH253059   6.754   6.428   5.232  0.2996  0.6988  0.7909
10523TIP3    H153060   6.678   6.384   5.270  0.3810  1.6799  2.2065
10523TIP3    H253061   6.829   6.374   5.257  0.1290  0.0404 -0.1041
10524TIP3   OH253062   6.331   0.954  11.962 -0.6317  0.0580 -0.5049
10524TIP3    H153063   6.308   0.936  11.870  0.4035 -2.5799 -0.3242
10524TIP3    H253064   6.403   0.894  11.981 -2.1844 -1.0196  2.6354
10525TIP3   OH253065   3.024   3.107  15.775 -0.3347 -0.0680 -1.0482
10525TIP3    H153066   2.947   3.069  15.818 -0.5496  0.4463 -0.9669
10525TIP3    H253067   3.093   3.041  15.786  0.0048  0.5676  1.2850
10526TIP3   OH253068   6.135   2.198   5.976 -0.4458  0.2465 -0.1478
10526TIP3    H153069   6.139   2.249   6.057 -2.3953 -0.9127  0.7531
10526TIP3    H253070   6.061   2.237   5.927  0.0402  0.2535 -0.8938
10527TIP3   OH253071   4.383   3.327  16.061 -0.2872 -0.3794 -0.2787
10527TIP3    H153072   4.411   3.316  15.970 -0.9257  0.5541 -0.6024
10527TIP3    H253073   4.436   3.265  16.110 -0.9644 -2.0075 -1.4838
10528TIP3   OH253074   2.198   0.762   2.543  0.1724  0.9304  0.4638
10528TIP3    H153075   2.208   0.842   2.594  0.2555 -0.6762  3.1729
10528TIP3    H253076   2.288   0.732   2.528  0.1174  0.7469  0.4958
10529TIP3   OH253077   4.738   3.517  12.088 -0.0953 -0.2095  0.1147
10529TIP3    H153078   4.690   3.501  12.170 -1.5332  0.3965 -0.5853
10529TIP3    H253079   4.785   3.598  12.104 -3.6032  2.2789 -0.9418
10530TIP3   OH253080   2.328   3.157  14.918 -0.4618  0.2424 -0.7111
10530TIP3    H153081   2.267   3.085  14.900  0.0121  0.0580 -1.6283
10530TIP3    H253082   2.407   3.114  14.950 -1.1497  0.5405  1.5907
10531TIP3   OH253083   3.794   1.790   0.753 -0.3691  0.6113  0.3269
10531TIP3    H153084   3.862   1.754   0.696 -0.0982  0.4121  0.7710
10531TIP3    H253085   3.780   1.722   0.819 -2.2761 -0.1383 -0.7537
10532TIP3   OH253086   5.470   2.845   0.672 -0.1550 -0.0931  0.1260
10532TIP3    H153087   5.399   2.819   0.731 -0.4157  0.2363 -0.0390
10532TIP3    H253088   5.471   2.940   0.677  0.3737 -0.1043  0.2386
10533TIP3   OH253089   2.608   0.814  14.876  0.0728 -0.6026  0.0791
10533TIP3    H153090   2.533   0.857  14.834  0.7451 -0.3725 -0.9284
10533TIP3    H253091   2.677   0.815  14.809 -0.1341 -4.0479 -0.3994
10534TIP3   OH253092   4.822   0.485  13.171 -0.6315 -0.1301  0.3966
10534TIP3    H153093   4.903   0.521  13.136 -0.8022 -1.1018 -1.0874
10534TIP3    H253094   4.846   0.397  13.199 -1.3673 -0.8439 -1.0877
10535TIP3   OH253095   0.179   6.560   0.896 -0.1303 -0.1653  0.0244
10535TIP3    H153096   0.178   6.608   0.979 -1.1490 -1.1852  0.6321
10535TIP3    H253097   0.133   6.617   0.835  2.1895  1.3999 -0.3548
10536TIP3   OH253098   6.141   1.203  13.399  0.3190  0.1489 -0.5342
10536TIP3    H153099   6.181   1.289  13.410  0.2680  0.0026  0.9887
10536TIP3    H253100   6.190   1.163  13.327 -1.3132  2.3760 -3.1129
10537TIP3   OH253101   2.362   2.209   6.669 -0.5721  0.0057  0.0534
10537TIP3    H153102   2.367   2.114   6.666  1.1422  0.0961 -0.7917
10537TIP3    H253103   2.275   2.230   6.634 -1.3868 -1.2496  1.2223
10538TIP3   OH253104   4.886   1.200   5.150 -0.3214 -0.8206 -0.4116
10538TIP3    H153105   4.945   1.202   5.225 -1.7175 -0.1690  0.7148
10538TIP3    H253106   4.937   1.238   5.078  0.0608  1.5418  0.9965
10539TIP3   OH253107   4.857   2.414  16.384  0.1927  0.1650 -0.2397
10539TIP3    H153108   4.842   2.355  16.310 -3.3003 -0.0146  0.4361
10539TIP3    H253109   4.780   2.471  16.385 -0.0756 -0.0149  3.3449
10540TIP3   OH253110   1.252   2.416  16.744 -0.1695  0.0442  0.1902
10540TIP3    H153111   1.160   2.404  16.720 -0.6594 -0.8425  2.2685
10540TIP3    H253112   1.270   2.345  16.805  1.8153  0.4254  0.1129
10541TIP3   OH253113   2.056   4.733  16.391 -0.1236 -0.1946  0.3009
10541TIP3    H153114   2.149   4.722  16.372 -0.3885  0.5875 -1.6995
10541TIP3    H253115   2.019   4.765  16.309 -2.2811 -1.1306  0.8546
10542TIP3   OH253116   6.212   0.630   5.482  0.5832  0.3814  0.0681
10542TIP3    H153117   6.155   0.561   5.447  0.5125  0.5660 -0.1896
10542TIP3    H253118   6.171   0.657   5.564  1.0413 -0.4321  0.5779
10543TIP3   OH253119   3.273   0.735  12.712  0.2160 -0.2543 -0.4388
10543TIP3    H153120   3.295   0.821  12.747  0.4920 -0.3160 -0.4595
10543TIP3    H253121   3.316   0.732  12.627  0.3827 -0.4901 -0.3492
10544TIP3   OH253122   0.957   4.465  16.665 -0.1342 -0.0079 -0.6511
10544TIP3    H153123   0.930   4.452  16.756 -0.0258  1.3670 -0.3878
10544TIP3    H253124   1.053   4.470  16.670 -0.1018 -0.3891 -0.9094
10545TIP3   OH253125   2.535   2.269   2.888  0.1803  0.2486 -0.9465
10545TIP3    H153126   2.483   2.201   2.930  0.9515  1.2429  1.8413
10545TIP3    H253127   2.479   2.347   2.888  1.1802  1.0191  1.0106
10546TIP3   OH253128   1.942   4.652  16.990  0.1417  0.1208 -0.1547
10546TIP3    H153129   1.934   4.746  16.971  0.6093 -0.0956 -1.5437
10546TIP3    H253130   1.958   4.612  16.904  0.7444 -1.1348  0.5241
10547TIP3   OH253131   3.691   2.640   4.572  0.4212 -0.1722 -0.5724
10547TIP3    H153132   3.684   2.556   4.616  0.9305 -0.0747 -0.3013
10547TIP3    H253133   3.785   2.659   4.570  0.4536 -0.3312 -1.9842
10548TIP3   OH253134   5.689   3.402  13.875  0.4534  0.1834  0.2598
10548TIP3    H153135   5.780   3.400  13.848  0.3052  0.9756 -0.3288
10548TIP3    H253136   5.639   3.390  13.794  0.0298  0.1827  0.5140
10549TIP3   OH253137   3.979   4.808   5.520 -0.3289  0.0427 -0.3426
10549TIP3    H153138   4.041   4.879   5.512 -0.6508  0.1815 -1.7441
10549TIP3    H253139   4.009   4.758   5.596  0.6997  0.8680 -0.1990
10550TIP3   OH253140   3.233   3.177  15.580 -0.6891  0.3615 -0.2499
10550TIP3    H153141   3.156   3.181  15.636 -0.3460  1.1617  0.1786
10550TIP3    H253142   3.206   3.218  15.498 -0.9766 -0.1648 -0.4240
10551TIP3   OH253143   6.066   5.062   4.680  0.2240  0.2090  0.7396
10551TIP3    H153144   6.143   5.004   4.683 -0.6005 -1.0158 -0.7928
10551TIP3    H253145   6.009   5.023   4.615 -1.4456  1.4640  1.3906
10552TIP3   OH253146   3.143   1.488  14.280  0.0132  0.5773 -0.7191
10552TIP3    H153147   3.201   1.449  14.215  1.5067  1.4362  0.0183
10552TIP3    H253148   3.180   1.575  14.296 -0.1040  0.2953  1.4609
10553TIP3   OH253149   1.622   5.998   3.490 -0.4199 -0.0849  0.2324
10553TIP3    H153150   1.614   5.984   3.584 -1.7492 -2.1325 -0.1439
10553TIP3    H253151   1.570   5.929   3.450  0.9902  0.0550 -2.0496
10554TIP3   OH253152   3.059   3.618   3.900  1.3079  0.7996  0.1515
10554TIP3    H153153   3.046   3.693   3.958  1.6205 -0.9580  2.6249
10554TIP3    H253154   3.151   3.624   3.874  2.1610 -0.1995  2.6612
10555TIP3   OH253155   5.394   3.201  11.147 -0.2126 -0.6127  0.1532
10555TIP3    H153156   5.422   3.263  11.214 -1.2846 -1.2628  1.2363
10555TIP3    H253157   5.299   3.208  11.147 -0.2216  0.1614 -2.0994
10556TIP3   OH253158   1.387   5.847   5.744 -0.4533  0.4489 -0.8451
10556TIP3    H153159   1.456   5.809   5.690  1.5947  1.5809  0.8241
10556TIP3    H253160   1.413   5.939   5.755 -0.5327  0.2190  2.2673
10557TIP3   OH253161   6.389   0.145  13.889 -0.2122  0.0934 -0.2914
10557TIP3    H153162   6.406   0.226  13.937  0.0189 -0.3780  0.4335
10557TIP3    H253163   6.386   0.078  13.956  1.1519 -0.7452 -1.0280
10558TIP3   OH253164   3.976   3.484  15.663 -0.1311  0.3207  0.2506
10558TIP3    H153165   4.060   3.459  15.625 -0.3771  0.5654 -0.4694
10558TIP3    H253166   3.959   3.417  15.730 -0.6527 -1.3482 -1.4494
10559TIP3   OH253167   4.828   5.115   1.581  0.8415  0.5801 -0.1909
10559TIP3    H153168   4.862   5.031   1.612 -0.6047 -0.0979 -0.3432
10559TIP3    H253169   4.852   5.118   1.489 -1.1787 -0.8465 -0.8302
10560TIP3   OH253170   6.051   2.410   1.409 -0.4119  0.0920  0.2495
10560TIP3    H153171   6.073   2.384   1.320  0.5842  1.8149 -0.0433
10560TIP3    H253172   6.099   2.349   1.465 -0.0225 -0.1992 -0.3983
10561TIP3   OH253173   0.231   6.081   4.207 -0.5471 -0.3838 -0.0324
10561TIP3    H153174   0.242   6.015   4.139 -0.0816 -2.8025  2.2448
10561TIP3    H253175   0.317   6.125   4.212 -0.0798 -1.2864  0.0511
10562TIP3   OH253176   4.837   4.614   5.649 -0.1182 -0.1321  0.4157
10562TIP3    H153177   4.817   4.535   5.699 -2.9809  0.6344  0.6292
10562TIP3    H253178   4.772   4.616   5.579  1.3963  0.8442 -1.0506
10563TIP3   OH253179   0.981   2.777   2.576 -0.1651  0.0929  0.0769
10563TIP3    H153180   0.950   2.833   2.505 -1.2463  1.1666  1.3465
10563TIP3    H253181   0.901   2.744   2.617  0.4463 -1.6364 -0.0321
10564TIP3   OH253182   2.635   1.456   2.876 -0.5637 -0.1133 -0.2918
10564TIP3    H153183   2.690   1.491   2.946  1.0611 -0.7412 -1.1937
10564TIP3    H253184   2.625   1.363   2.898  0.6597 -0.5104 -1.2618
10565TIP3   OH253185   2.921   3.936  15.676  0.2575  0.3547  0.1920
10565TIP3    H153186   3.016   3.925  15.685  0.1834  0.3133  0.9382
10565TIP3    H253187   2.902   3.904  15.588  0.6370 -1.6306  0.7773
10566TIP3   OH253188   5.016   6.740   4.425  0.3127 -0.3264  0.4036
10566TIP3    H153189   4.977   6.775   4.345 -0.0629 -0.5246  0.4951
10566TIP3    H253190   5.072   6.810   4.458  1.5452 -0.7166 -0.7569
10567TIP3   OH253191   6.259   0.170  13.450  0.9135  0.0051  0.2026
10567TIP3    H153192   6.274   0.248  13.397 -0.7800  1.5985  1.9251
10567TIP3    H253193   6.192   0.121  13.402  1.1648  0.1698 -0.3235
10568TIP3   OH253194   6.753   2.215  15.587 -0.4593  0.0349 -0.2395
10568TIP3    H153195   6.672   2.251  15.624 -0.9781  1.4403 -2.5304
10568TIP3    H253196   6.761   2.128  15.626 -2.6269  0.1726  0.6722
10569TIP3   OH253197   2.994   2.784  13.104  0.0845 -0.1777  0.3204
10569TIP3    H153198   3.024   2.843  13.034  1.6562  1.2977  2.1342
10569TIP3    H253199   3.041   2.702  13.087  0.0371 -0.0264 -0.6285
10570TIP3   OH253200   1.870   4.702  13.599  0.0367 -0.2409 -0.2559
10570TIP3    H153201   1.810   4.735  13.532 -1.1100 -0.4099  0.6573
10570TIP3    H253202   1.911   4.781  13.635  0.4900 -0.1356 -1.0036
10571TIP3   OH253203   5.509   6.787   3.259 -0.1161  0.4186  0.6760
10571TIP3    H153204   5.566   6.819   3.189 -0.5491 -2.4031 -1.1661
10571TIP3    H253205   5.421   6.813   3.233 -0.2227 -0.1743  0.4253
10572TIP3   OH253206   0.309   2.301   5.074 -0.0845 -0.0671  0.1274
10572TIP3    H153207   0.219   2.317   5.104 -0.0147  0.3840  0.1043
10572TIP3    H253208   0.341   2.231   5.131  0.7199  2.0896  2.4993
10573TIP3   OH253209   0.063   4.441   0.595 -0.0082  0.3391  0.0722
10573TIP3    H153210   0.146   4.399   0.615  0.8623  1.4717 -1.0027
10573TIP3    H253211   0.071   4.529   0.632 -1.1631  0.1299  0.8776
10574TIP3   OH253212   2.188   0.065   4.450  0.4757 -0.3355 -0.0880
10574TIP3    H153213   2.156   0.125   4.383 -0.3210  1.8652  2.0803
10574TIP3    H253214   2.271   0.103   4.479 -1.5619  1.8794  3.5951
10575TIP3   OH253215   6.524   1.055  16.485  0.5672 -0.0338 -0.1810
10575TIP3    H153216   6.487   0.974  16.521  0.7160  0.5579  1.4034
10575TIP3    H253217   6.503   1.051  16.392 -0.7839 -1.1692  0.1251
10576TIP3   OH253218   6.242   0.422  15.274  0.6340  0.2784 -0.9127
10576TIP3    H153219   6.302   0.436  15.347  2.1653  0.5555 -2.1657
10576TIP3    H253220   6.168   0.481  15.291  0.0134 -1.0290  1.3475
10577TIP3   OH253221   2.398   4.928  13.715 -0.0734 -0.1667 -0.0905
10577TIP3    H153222   2.414   5.021  13.705  1.0009 -0.2121  0.9529
10577TIP3    H253223   2.470   4.886  13.669 -0.1689 -0.4746  0.0348
10578TIP3   OH253224   3.849   2.889  13.083  0.1675  0.4713  0.1832
10578TIP3    H153225   3.803   2.863  13.003  2.1115  0.2038 -0.9037
10578TIP3    H253226   3.823   2.980  13.097 -0.3038  0.4804 -0.6595
10579TIP3   OH253227   4.031   1.891  13.346 -0.6382 -0.3234  0.2004
10579TIP3    H153228   4.122   1.860  13.344  0.6831  3.1225 -2.6995
10579TIP3    H253229   4.031   1.960  13.412 -0.3261  1.5611 -1.6818
10580TIP3   OH253230   4.643   5.089  15.616  0.1983  0.0194 -0.0500
10580TIP3    H153231   4.631   5.006  15.569  1.0122  0.1446 -0.4967
10580TIP3    H253232   4.616   5.156  15.554  0.4362  0.1437 -0.0168
10581TIP3   OH253233   5.466   1.385  11.815 -0.2218  0.2370  0.6385
10581TIP3    H153234   5.416   1.461  11.786  2.3268  1.3403 -1.1772
10581TIP3    H253235   5.441   1.315  11.754 -0.1395  0.5642  0.2251
10582TIP3   OH253236   2.719   1.564   3.147 -0.1545  0.0310 -0.3830
10582TIP3    H153237   2.707   1.590   3.238 -1.2409  1.0570 -0.7893
10582TIP3    H253238   2.794   1.615   3.117  0.0291 -0.0966 -0.1444
10583TIP3   OH253239   1.042   5.712  10.247 -0.8901 -0.3389  0.0378
10583TIP3    H153240   0.969   5.676  10.198 -0.9427  2.3857 -2.1482
10583TIP3    H253241   1.003   5.747  10.327 -1.5472 -1.0070  0.0132
10584TIP3   OH253242   4.732   6.645  15.076  0.1325  0.4735  0.1381
10584TIP3    H153243   4.677   6.583  15.030 -0.5145  1.2929 -0.2150
10584TIP3    H253244   4.672   6.697  15.129  0.3829  2.0872 -1.0614
10585TIP3   OH253245   3.713   0.520   3.952  0.2213  0.3127  0.3624
10585TIP3    H153246   3.722   0.491   3.861  0.1965  1.3970  0.0029
10585TIP3    H253247   3.620   0.541   3.961  0.3893  1.0742  0.3617
10586TIP3   OH253248   6.509   1.127  15.665  0.2066  0.6540  0.3471
10586TIP3    H153249   6.544   1.212  15.640  0.3192  0.4044 -0.3819
10586TIP3    H253250   6.534   1.068  15.593  1.1822 -0.2773  1.4046
10587TIP3   OH253251   6.153   6.520  12.098 -0.2451 -0.6690 -0.4125
10587TIP3    H153252   6.191   6.514  12.186  1.5559 -1.4174 -1.1876
10587TIP3    H253253   6.092   6.593  12.104  1.0073  0.3371  1.0629
10588TIP3   OH253254   5.195   0.584   1.540  0.0072  0.2444  0.2580
10588TIP3    H153255   5.247   0.539   1.474 -3.6039 -2.4799 -1.1032
10588TIP3    H253256   5.214   0.538   1.621  0.0348 -0.4220 -0.1224
10589TIP3   OH253257   2.580   4.062  15.013  0.2681  0.1121 -0.3226
10589TIP3    H153258   2.601   4.036  14.923  0.6714 -3.1476  0.5890
10589TIP3    H253259   2.487   4.044  15.022  0.3258 -0.0237  0.0248
10590TIP3   OH253260   5.023   2.200   2.899 -0.5451  0.0359 -0.6219
10590TIP3    H153261   5.118   2.216   2.900 -0.2968 -1.0330  1.9778
10590TIP3    H253262   5.012   2.122   2.845  0.0981 -0.0311 -0.6667
10591TIP3   OH253263   4.661   5.797   3.732  0.0488  0.1798 -0.0566
10591TIP3    H153264   4.637   5.867   3.670  0.5366  0.6086  0.2332
10591TIP3    H253265   4.755   5.808   3.746 -0.0045 -0.0862  0.5479
10592TIP3   OH253266   3.746   5.458   3.221 -0.1042 -0.2761  0.4616
10592TIP3    H153267   3.829   5.446   3.174 -0.6986  1.2916 -1.0917
10592TIP3    H253268   3.759   5.539   3.272 -0.2724 -0.6956  1.1821
10593TIP3   OH253269   0.621   6.617  11.645  1.2131 -0.6226 -0.5020
10593TIP3    H153270   0.601   6.542  11.588  1.1355 -2.0385  1.3168
10593TIP3    H253271   0.715   6.630  11.634  1.2727 -1.1407 -0.6687
10594TIP3   OH253272   6.294   5.882  13.201  0.2892  0.0746 -0.0171
10594TIP3    H153273   6.229   5.832  13.250  0.3438 -0.9176 -0.9360
10594TIP3    H253274   6.243   5.943  13.149  0.2510  1.6275  1.7295
10595TIP3   OH253275   3.865   3.701   4.220 -0.2804 -0.2382 -0.0349
10595TIP3    H153276   3.788   3.748   4.253  0.6184  0.0829  1.6848
10595TIP3    H253277   3.904   3.661   4.297  1.2780 -0.4231 -0.8860
10596TIP3   OH253278   2.898   2.326  15.227 -0.3243 -0.3149 -0.2987
10596TIP3    H153279   2.935   2.326  15.139  0.7336  0.8867  0.1192
10596TIP3    H253280   2.908   2.236  15.258  3.1822  0.0623  0.1259
10597TIP3   OH253281   0.827   4.835   3.126  0.3395  0.0397  0.3706
10597TIP3    H153282   0.883   4.912   3.114  2.4399 -1.4024  0.4445
10597TIP3    H253283   0.738   4.869   3.112  1.1480  2.5043  0.6030
10598TIP3   OH253284   3.466   6.661   3.132  0.0230  0.1456 -0.0699
10598TIP3    H153285   3.423   6.746   3.130 -0.3897 -0.0579 -0.0441
10598TIP3    H253286   3.558   6.681   3.149  0.1556  0.6587 -1.3364
10599TIP3   OH253287   2.252   4.750  11.436  0.1341 -0.0261  0.0691
10599TIP3    H153288   2.243   4.839  11.403  0.4454  0.8796  2.2605
10599TIP3    H253289   2.324   4.713  11.385  0.2875  1.1270 -0.5872
10600TIP3   OH253290   2.574   5.980  14.128 -0.1234  0.7670 -0.2067
10600TIP3    H153291   2.572   5.904  14.187 -1.6204 -0.5302 -1.8306
10600TIP3    H253292   2.655   5.968  14.078 -0.5728 -0.0376 -0.7646
10601TIP3   OH253293   1.822   6.710  11.163  0.3498 -0.0268  0.6669
10601TIP3    H153294   1.874   6.657  11.224  1.3496 -0.1823 -0.2999
10601TIP3    H253295   1.732   6.698  11.192  0.5584 -2.1643  0.5666
10602TIP3   OH253296   0.929   4.727  13.670  0.1689 -0.9155  0.2142
10602TIP3    H153297   0.885   4.785  13.608  2.3248  0.7937  0.1426
10602TIP3    H253298   0.931   4.642  13.626  1.1858  0.1355 -1.8926
10603TIP3   OH253299   4.970   3.201   6.441  0.1052 -0.4669  0.3663
10603TIP3    H153300   4.950   3.258   6.367 -0.4406  0.0755  0.9276
10603TIP3    H253301   5.059   3.170   6.423  0.5900  0.9042  0.2635
10604TIP3   OH253302   1.015   5.735   1.982 -0.7454 -0.3078  0.4872
10604TIP3    H153303   1.072   5.703   2.052 -0.9196  1.1029  1.3017
10604TIP3    H253304   1.065   5.719   1.902  0.7682  0.7298  1.1655
10605TIP3   OH253305   1.644   3.507  15.450 -0.4329  0.0349 -0.4993
10605TIP3    H153306   1.564   3.479  15.404 -1.0963  0.1862  0.5285
10605TIP3    H253307   1.642   3.602  15.446 -1.2098  0.1196  0.9455
10606TIP3   OH253308   5.326   5.134   1.436  0.0764  0.0357  0.9543
10606TIP3    H153309   5.421   5.137   1.450  0.2474  1.0474 -0.1861
10606TIP3    H253310   5.303   5.223   1.407 -0.7846 -0.8026 -1.1862
10607TIP3   OH253311   0.990   3.066   0.561  0.4003 -0.8560  0.1759
10607TIP3    H153312   0.976   3.146   0.612  2.1572  0.4017 -1.1788
10607TIP3    H253313   0.941   2.998   0.608 -1.4579  1.0699  1.1612
10608TIP3   OH253314   4.576   2.930  16.573  0.2822  0.0455  0.2008
10608TIP3    H153315   4.534   2.953  16.656 -0.8183  1.3084 -0.6768
10608TIP3    H253316   4.669   2.938  16.591  0.0876 -0.1337  1.4305
10609TIP3   OH253317   4.430   5.805  14.057  0.3357  0.0888 -0.0826
10609TIP3    H153318   4.502   5.751  14.023 -0.6313 -1.0236 -0.4319
10609TIP3    H253319   4.459   5.831  14.144  1.3907  0.1241 -0.4212
10610TIP3   OH253320   0.734   3.289   5.565 -0.0386 -0.2542  0.0312
10610TIP3    H153321   0.736   3.267   5.472 -2.4699  0.7335 -0.3258
10610TIP3    H253322   0.760   3.381   5.568  1.2060 -0.5979  0.5022
10611TIP3   OH253323   5.103   1.150   0.814 -0.0265 -0.1971 -0.4184
10611TIP3    H153324   5.092   1.061   0.847  1.2853 -0.6953 -1.2219
10611TIP3    H253325   5.016   1.188   0.817 -0.7815 -1.8123 -0.9021
10612TIP3   OH253326   4.625   5.051   2.469 -0.3848  0.1238  0.2927
10612TIP3    H153327   4.587   5.118   2.412 -1.2471 -0.4831  0.1308
10612TIP3    H253328   4.711   5.085   2.493 -0.1768  0.5776 -1.0333
10613TIP3   OH253329   0.843   5.231  16.469  0.3388  0.0823  0.2378
10613TIP3    H153330   0.831   5.319  16.433 -0.6632 -0.3716 -0.5727
10613TIP3    H253331   0.882   5.246  16.556 -2.3448  1.4868  1.3310
10614TIP3   OH253332   6.504   1.230  14.713 -0.0741  0.1583  0.2101
10614TIP3    H153333   6.452   1.244  14.792  0.5544  0.6286  0.5474
10614TIP3    H253334   6.509   1.135  14.704 -0.8262  0.1102  0.2829
10615TIP3   OH253335   3.226   0.207   3.747  0.6855  0.2126 -1.1481
10615TIP3    H153336   3.276   0.181   3.669  0.6761  1.8987 -1.7517
10615TIP3    H253337   3.161   0.269   3.714  0.5590  0.8213  0.1849
10616TIP3   OH253338   1.006   1.279  16.025 -0.8441  0.4267  0.0545
10616TIP3    H153339   0.945   1.287  16.098  0.0423 -3.8570  1.5833
10616TIP3    H253340   1.093   1.284  16.065 -0.1565  2.5784 -1.5147
10617TIP3   OH253341   4.624   3.091  13.093 -0.2769  0.6647 -0.2945
10617TIP3    H153342   4.699   3.088  13.034  0.6767  0.9076  0.8740
10617TIP3    H253343   4.548   3.087  13.035  0.6031  2.0516 -1.6085
10618TIP3   OH253344   2.773   2.199   1.179 -0.1219  0.2146 -0.0172
10618TIP3    H153345   2.792   2.225   1.269  2.0797 -1.5597  0.1245
10618TIP3    H253346   2.852   2.222   1.130  0.4654 -2.5962 -0.5700
10619TIP3   OH253347   0.272   3.821   0.401 -0.3269  0.7385 -0.3771
10619TIP3    H153348   0.254   3.733   0.368 -0.8418 -0.4106  2.6149
10619TIP3    H253349   0.366   3.823   0.415 -0.5370 -0.2495  1.6013
10620TIP3   OH253350   1.425   1.074   2.032  0.9914  0.2330 -0.5770
10620TIP3    H153351   1.389   1.068   1.944  0.6468 -2.4970 -0.3627
10620TIP3    H253352   1.350   1.056   2.089  1.4742  0.6278  0.1851
10621TIP3   OH253353   0.789   1.199  12.921  0.4848 -0.0849 -0.2723
10621TIP3    H153354   0.844   1.237  12.853 -1.6729 -0.7324 -2.5254
10621TIP3    H253355   0.793   1.262  12.993  1.8220  1.3062 -1.4907
10622TIP3   OH253356   2.609   3.429   4.536  0.3235 -0.0647  0.2477
10622TIP3    H153357   2.694   3.453   4.501  0.1332 -0.1433 -0.2864
10622TIP3    H253358   2.608   3.464   4.625  0.2816  1.3771 -0.2918
10623TIP3   OH253359   3.174   0.049  14.604  0.0678  0.8454 -0.1788
10623TIP3    H153360   3.121   0.127  14.620  0.7649  1.0539  1.1821
10623TIP3    H253361   3.260   0.069  14.641 -0.1462 -1.0883  1.5326
10624TIP3   OH253362   1.503   1.273   5.124 -0.5731  0.1694 -0.0120
10624TIP3    H153363   1.550   1.352   5.095 -0.0836 -0.0709  0.1093
10624TIP3    H253364   1.413   1.287   5.095 -0.7500  1.2884  0.9988
10625TIP3   OH253365   2.961   1.666   3.102 -0.3007  0.2665 -0.1658
10625TIP3    H153366   3.004   1.744   3.068  1.0656 -0.8510 -1.1372
10625TIP3    H253367   2.948   1.610   3.025 -2.7405  0.1675  0.2407
10626TIP3   OH253368   1.124   1.457   6.376  0.3051 -0.1247 -0.0848
10626TIP3    H153369   1.064   1.385   6.354 -1.4409  1.2541 -0.0633
10626TIP3    H253370   1.084   1.534   6.336  0.1038  1.5023  2.9938
10627TIP3   OH253371   1.742   4.266   1.396 -0.4666 -0.1505 -0.5318
10627TIP3    H153372   1.679   4.199   1.422  1.4924 -1.5185  0.9273
10627TIP3    H253373   1.794   4.224   1.328 -1.2663  1.0895 -1.9685
10628TIP3   OH253374   0.674   1.595  16.852  0.5364  0.3428 -0.1150
10628TIP3    H153375   0.750   1.568  16.904 -0.5975 -0.6334  1.1184
10628TIP3    H253376   0.676   1.537  16.776  0.5795 -0.2362  0.3193
10629TIP3   OH253377   0.161   1.803  12.703 -0.5942  0.1516 -0.3682
10629TIP3    H153378   0.110   1.723  12.691  0.9344 -1.0177  0.5293
10629TIP3    H253379   0.205   1.816  12.619  0.0719 -0.6575 -0.1618
10630TIP3   OH253380   4.122   4.683   2.165  0.3857 -0.1659  0.5294
10630TIP3    H153381   4.154   4.757   2.217 -0.8845 -0.1698  1.3432
10630TIP3    H253382   4.129   4.607   2.224  2.1002 -0.8372 -0.4344
10631TIP3   OH253383   6.531   3.437  12.278  0.3778  0.0732  0.1017
10631TIP3    H153384   6.512   3.344  12.270 -2.1370  0.6736 -2.5114
10631TIP3    H253385   6.585   3.444  12.357  0.2986 -3.4980  0.6184
10632TIP3   OH253386   3.749   5.410  11.399 -0.4188  0.1458 -0.1013
10632TIP3    H153387   3.685   5.339  11.394 -0.3749  0.1876 -2.5373
10632TIP3    H253388   3.746   5.450  11.312  1.6917  1.2447  0.2770
10633TIP3   OH253389   1.449   3.381   3.230  0.0684 -0.6007  0.2772
10633TIP3    H153390   1.472   3.402   3.140 -1.4066 -0.6303 -0.1371
10633TIP3    H253391   1.425   3.288   3.228 -1.7531 -0.1724  0.2724
10634TIP3   OH253392   2.677   3.221  14.102  0.0499 -0.3704 -0.0852
10634TIP3    H153393   2.683   3.280  14.178  2.9730 -0.0822 -0.4030
10634TIP3    H253394   2.748   3.250  14.044 -0.7454 -1.9478 -1.9536
10635TIP3   OH253395   4.268   1.220  14.732 -0.3577 -0.5751  0.3229
10635TIP3    H153396   4.174   1.234  14.717 -0.6062 -2.2251  0.1475
10635TIP3    H253397   4.284   1.133  14.697  1.7607  0.5848 -1.8677
10636TIP3   OH253398   2.833   3.904  15.390  0.4397  0.4546 -0.0343
10636TIP3    H153399   2.863   3.817  15.363 -2.0200 -0.4658 -0.0712
10636TIP3    H253400   2.833   3.955  15.310 -1.0178 -0.4559 -0.6482
10637TIP3   OH253401   0.933   6.254   1.934  0.0414  0.1427 -0.4699
10637TIP3    H153402   0.844   6.278   1.908  0.5420  0.5610 -1.9136
10637TIP3    H253403   0.944   6.165   1.901 -0.4283 -0.6203  1.3114
10638TIP3   OH253404   5.941   5.967  16.718  0.4025 -0.3731  0.4147
10638TIP3    H153405   5.944   5.961  16.813  2.9150  1.0643  0.5004
10638TIP3    H253406   5.848   5.978  16.697 -0.2776 -1.4736  2.5951
10639TIP3   OH253407   2.542   5.708  12.931  0.1840  0.5632  0.4611
10639TIP3    H153408   2.579   5.764  12.863 -0.1405  1.4660  1.0099
10639TIP3    H253409   2.449   5.703  12.911  0.1349  0.5923  0.6779
10640TIP3   OH253410   0.123   4.100   5.763 -0.3195 -0.5473 -0.1008
10640TIP3    H153411   0.217   4.080   5.770 -0.3039  0.0380  2.8421
10640TIP3    H253412   0.115   4.187   5.800 -1.8947  0.0662 -1.7518
10641TIP3   OH253413   3.877   6.722  12.255  0.3440 -0.2990 -0.0448
10641TIP3    H153414   3.909   6.680  12.174 -0.8510  1.2965 -1.4089
10641TIP3    H253415   3.787   6.692  12.263  0.2817  0.0018  0.3940
10642TIP3   OH253416   0.390   3.616  10.958 -0.0030 -0.1052 -0.0602
10642TIP3    H153417   0.337   3.610  10.879 -1.1706 -3.0219  0.8087
10642TIP3    H253418   0.472   3.572  10.936  0.2360  0.3112 -0.0244
10643TIP3   OH253419   4.098   4.168   2.693 -0.0324 -0.9200  0.1145
10643TIP3    H153420   4.132   4.098   2.748  0.7653  0.2539  1.1597
10643TIP3    H253421   4.164   4.180   2.625  0.7787  0.0678  1.0396
10644TIP3   OH253422   1.464   1.764   1.689 -0.5304  0.5464  0.4176
10644TIP3    H153423   1.395   1.728   1.634  1.3514 -1.8993 -0.5327
10644TIP3    H253424   1.451   1.723   1.774 -1.7402  2.1353  1.0503
10645TIP3   OH253425   0.120   6.334  12.603  0.0512 -0.0613 -0.1274
10645TIP3    H153426   0.155   6.405  12.656 -0.2504 -1.2799  1.7905
10645TIP3    H253427   0.193   6.308  12.547  1.1513 -0.2843  1.3606
10646TIP3   OH253428   5.798   0.015   5.430  0.0111  0.1221 -0.0611
10646TIP3    H153429   5.873  -0.010   5.376  0.5830  1.2910  0.1584
10646TIP3    H253430   5.794  -0.052   5.498  0.7826 -0.0312 -0.1521
10647TIP3   OH253431   3.110   1.736  12.561 -0.4513 -0.5282  0.3896
10647TIP3    H153432   3.044   1.747  12.629 -1.2708  0.0400 -0.4825
10647TIP3    H253433   3.120   1.823  12.522 -0.4323 -0.9711 -0.6132
10648TIP3   OH253434   0.375   0.324   1.680 -0.2897  0.1362 -0.3903
10648TIP3    H153435   0.288   0.359   1.699 -0.9805 -0.9838 -1.2922
10648TIP3    H253436   0.360   0.229   1.670  0.8083  0.0840 -1.7607
10649TIP3   OH253437   4.535   4.089   5.625  0.2006 -0.1629  0.1059
10649TIP3    H153438   4.596   4.088   5.699  0.4976 -1.3934 -0.1393
10649TIP3    H253439   4.477   4.164   5.643  0.1507 -0.5413  1.6814
10650TIP3   OH253440   2.365   5.193  14.978  0.0843  0.6809  0.2034
10650TIP3    H153441   2.428   5.147  14.922 -2.1889 -1.1319 -1.0287
10650TIP3    H253442   2.408   5.197  15.064  2.1424  0.1690 -0.7453
10651TIP3   OH253443   6.367   1.303  11.021  0.4035 -0.0344 -0.0011
10651TIP3    H153444   6.437   1.269  10.966 -0.4038  0.1598 -1.2024
10651TIP3    H253445   6.344   1.231  11.079  1.3610 -0.2037  0.1741
10652TIP3   OH253446   6.614   4.508  13.002 -0.0913 -0.5764 -0.2598
10652TIP3    H153447   6.629   4.603  13.003  2.9742 -0.9689 -0.2979
10652TIP3    H253448   6.543   4.496  12.940  0.1711  1.6147 -1.0847
10653TIP3   OH253449   0.992   1.132   2.119  0.2093  0.4129  0.2451
10653TIP3    H153450   0.954   1.147   2.033 -1.2259  0.3807  0.8400
10653TIP3    H253451   0.987   1.037   2.132  0.4434  0.4143  0.3559
10654TIP3   OH253452   2.822   1.375  11.626 -0.0963  0.0592  0.6177
10654TIP3    H153453   2.768   1.434  11.573  3.6157  3.6241  0.2676
10654TIP3    H253454   2.846   1.427  11.703 -0.8586 -3.0480  3.1480
10655TIP3   OH253455   6.340   0.618  15.953  0.0474  0.2350  0.1005
10655TIP3    H153456   6.253   0.607  15.992  0.5421  1.8988  1.8063
10655TIP3    H253457   6.336   0.704  15.910  0.6359  0.0119 -0.4118
10656TIP3   OH253458   4.706   5.161   5.929  0.2434 -0.5592  0.0798
10656TIP3    H153459   4.707   5.219   5.853 -0.2105 -0.2234  0.3189
10656TIP3    H253460   4.785   5.184   5.978  2.0713 -2.6819 -1.6510
10657TIP3   OH253461   4.987   2.255  15.062 -0.3104 -0.3046  0.0910
10657TIP3    H153462   5.066   2.269  15.009 -0.7178  0.3510 -0.3455
10657TIP3    H253463   4.941   2.184  15.018 -1.0851  0.8144 -0.9560
10658TIP3   OH253464   6.415   1.428  13.103 -0.0940  0.5606 -0.3981
10658TIP3    H153465   6.352   1.400  13.037  0.8476 -0.0392 -1.0658
10658TIP3    H253466   6.461   1.348  13.128  0.4499  0.9996  0.0339
10659TIP3   OH253467   2.538   0.210   0.743  0.0348  0.1278  0.6888
10659TIP3    H153468   2.515   0.120   0.722 -2.7407  0.8348  0.3072
10659TIP3    H253469   2.613   0.203   0.802  0.6720 -2.3435 -0.2773
10660TIP3   OH253470   4.441   5.956   0.662  0.1397  0.1235  0.3245
10660TIP3    H153471   4.470   5.975   0.573 -1.2246 -0.2127 -0.2191
10660TIP3    H253472   4.461   5.863   0.674  1.5045  0.4536  0.8746
10661TIP3   OH253473   6.793   5.003   1.177  0.0848  0.6421  0.0157
10661TIP3    H153474   6.734   5.056   1.123  1.0115  0.0498 -1.6383
10661TIP3    H253475   6.737   4.935   1.214 -0.3714  0.3917 -1.1073
10662TIP3   OH253476   1.211   0.278   6.108 -0.6725  0.3177 -0.0279
10662TIP3    H153477   1.286   0.242   6.154 -0.6880  0.0643 -0.2015
10662TIP3    H253478   1.176   0.345   6.167 -0.1906  0.5787 -0.0302
10663TIP3   OH253479   6.783   4.055  14.214  0.0480  0.3596  0.0244
10663TIP3    H153480   6.808   4.047  14.306 -0.9817 -0.4850  0.2502
10663TIP3    H253481   6.827   3.982  14.171  2.1708  1.8715 -0.5816
10664TIP3   OH253482   6.494   0.585  16.530 -0.1421  0.2919  0.0117
10664TIP3    H153483   6.589   0.598  16.528 -0.1291  0.2164 -2.2645
10664TIP3    H253484   6.482   0.498  16.490 -1.2705  1.4018 -2.2289
10665TIP3   OH253485   1.338   3.905  13.959  0.3921  0.6930 -0.4521
10665TIP3    H153486   1.290   3.866  14.031  0.1902  0.2509 -0.8182
10665TIP3    H253487   1.409   3.955  14.000  0.0568  0.7499  0.0574
10666TIP3   OH253488   1.245   5.941   3.197  0.1522 -0.0823  0.5252
10666TIP3    H153489   1.301   5.881   3.246 -1.0285 -0.5801  1.2973
10666TIP3    H253490   1.288   5.950   3.112 -0.0159 -2.5872  0.1212
10667TIP3   OH253491   3.861   5.088  15.185  0.3795  0.8760  0.0962
10667TIP3    H153492   3.880   5.180  15.204 -0.4929  0.8733  1.0954
10667TIP3    H253493   3.789   5.090  15.123 -1.1007  0.9109  1.7274
10668TIP3   OH253494   6.595   0.352  13.085  0.8286 -0.0682  0.0948
10668TIP3    H153495   6.538   0.354  13.162  1.0254  1.5613  0.2393
10668TIP3    H253496   6.544   0.394  13.016  1.2969  0.0817 -0.1660
10669TIP3   OH253497   3.099   4.765   6.666 -0.4722  0.0685  0.3189
10669TIP3    H153498   3.063   4.742   6.752 -1.0883 -0.1799 -0.0045
10669TIP3    H253499   3.176   4.819   6.686 -1.4422  1.2462  1.0112
10670TIP3   OH253500   6.499   5.465  16.636 -0.0252  0.0245  0.6328
10670TIP3    H153501   6.537   5.553  16.644 -1.0209  0.5027  0.2136
10670TIP3    H253502   6.407   5.480  16.617 -0.4087 -1.1180  1.4632
10671TIP3   OH253503   3.458   0.601   3.985  0.6498 -0.5737  0.6788
10671TIP3    H153504   3.424   0.582   4.072  1.8697 -0.9135  1.1020
10671TIP3    H253505   3.420   0.686   3.962 -0.0487 -0.6957  1.3338
10672TIP3   OH253506   5.017   0.996  13.202 -0.1637 -0.1521  0.2752
10672TIP3    H153507   4.926   0.981  13.177 -0.1330  2.1933 -1.5715
10672TIP3    H253508   5.069   0.949  13.136 -0.0364 -0.4281  0.5697
10673TIP3   OH253509   4.559   5.850  11.723 -0.9788 -0.3813 -0.4009
10673TIP3    H153510   4.586   5.786  11.789 -1.7132 -0.7116 -0.4016
10673TIP3    H253511   4.557   5.934  11.769  0.5177 -0.2457 -0.5324
10674TIP3   OH253512   1.304   2.617   1.204  0.4643 -0.5610  0.2352
10674TIP3    H153513   1.247   2.583   1.273  0.3088  1.4924  1.2112
10674TIP3    H253514   1.312   2.711   1.224  0.2708  0.1570 -2.6640
10675TIP3   OH253515   4.958   1.351  10.665  0.1241  0.1697 -0.2047
10675TIP3    H153516   4.941   1.329  10.573 -1.6891  0.7001 -0.0346
10675TIP3    H253517   4.976   1.445  10.664  2.4319 -0.2331 -0.2690
10676TIP3   OH253518   3.704   4.456   2.351  0.1426  0.6458  0.0783
10676TIP3    H153519   3.708   4.504   2.433 -0.1304  1.4959 -0.3942
10676TIP3    H253520   3.639   4.388   2.366  1.0267 -0.0241  0.9784
10677TIP3   OH253521   2.305   4.421  14.938 -0.2444  0.2409 -0.3103
10677TIP3    H153522   2.215   4.435  14.911 -0.1646  0.1533 -0.6362
10677TIP3    H253523   2.356   4.430  14.857 -0.1521 -1.6047 -0.4950
10678TIP3   OH253524   0.664   6.190   2.833  0.3346 -0.1758  0.0932
10678TIP3    H153525   0.675   6.269   2.887 -0.4359  0.8557 -1.2000
10678TIP3    H253526   0.720   6.125   2.875 -0.6622  0.3849  2.4952
10679TIP3   OH253527   2.683   3.136   6.384  0.4209  0.4527  0.2779
10679TIP3    H153528   2.644   3.077   6.319 -0.6238  0.2991  1.0160
10679TIP3    H253529   2.702   3.079   6.459  2.7070  0.3891 -0.2565
10680TIP3   OH253530   3.216   0.740   3.266 -0.1850 -0.5597 -0.6816
10680TIP3    H153531   3.168   0.659   3.247 -1.6798 -0.1178  0.9129
10680TIP3    H253532   3.182   0.768   3.351  1.5870  0.8206 -0.3846
10681TIP3   OH253533   6.536   3.359   5.632  0.1279  0.2896 -0.1740
10681TIP3    H153534   6.609   3.326   5.684  0.2399 -0.7460 -0.9468
10681TIP3    H253535   6.548   3.317   5.546 -0.7919  0.9154 -0.6175
10682TIP3   OH253536   6.492   6.110   3.020  0.5856 -0.4458 -0.1203
10682TIP3    H153537   6.525   6.122   2.930  0.8571 -1.5315 -0.1757
10682TIP3    H253538   6.400   6.134   3.014  0.7902  0.2831 -0.5056
10683TIP3   OH253539   6.152   4.063  16.847 -0.7667  0.3476 -0.2634
10683TIP3    H153540   6.133   4.034  16.936 -0.7376 -0.8541 -0.6380
10683TIP3    H253541   6.237   4.023  16.826 -0.7466  0.6650 -0.8121
10684TIP3   OH253542   2.933   3.000   0.893  0.6534  0.9624 -0.7664
10684TIP3    H153543   2.995   2.955   0.836  0.2469 -0.6566 -0.0145
10684TIP3    H253544   2.971   2.991   0.981 -1.9575 -2.9947  0.2819
10685TIP3   OH253545   0.474   2.946   5.243  0.2888 -0.2989 -0.0075
10685TIP3    H153546   0.418   2.987   5.310 -2.0601 -0.2059 -1.8922
10685TIP3    H253547   0.551   3.003   5.238 -0.1189  0.4548  1.6296
10686TIP3   OH253548   0.171   5.711   6.022  0.1326 -0.8517  0.3803
10686TIP3    H153549   0.077   5.700   6.038  0.0598 -0.6064  0.1330
10686TIP3    H253550   0.206   5.743   6.105 -0.1945  0.1426  0.1532
10687TIP3   OH253551   5.962   2.325  16.076  0.3924  0.4927  0.3648
10687TIP3    H153552   5.875   2.313  16.114  0.4047  0.7011  0.4575
10687TIP3    H253553   6.011   2.247  16.103  0.8124  1.2436  1.9186
10688TIP3   OH253554   1.996   4.552   5.559 -0.0027 -0.0218  0.1568
10688TIP3    H153555   1.943   4.537   5.637  1.0651  0.8540  1.0780
10688TIP3    H253556   1.958   4.629   5.518 -0.5892 -0.5067 -0.2255
10689TIP3   OH253557   3.377   4.202   1.404  0.2470  0.2819 -0.5126
10689TIP3    H153558   3.318   4.153   1.462  0.1471  0.4458 -0.4729
10689TIP3    H253559   3.356   4.170   1.317  0.2311  0.2045 -0.4807
10690TIP3   OH253560   3.360   2.677  14.660 -0.0273  0.0348 -0.2302
10690TIP3    H153561   3.429   2.682  14.594 -0.2920  0.2172 -0.4952
10690TIP3    H253562   3.279   2.687  14.611 -0.2777 -0.7049  0.0093
10691TIP3   OH253563   4.280   5.994   2.415  0.1036 -0.2689 -0.5934
10691TIP3    H153564   4.202   6.022   2.367  0.6867  1.2407 -0.6910
10691TIP3    H253565   4.254   6.000   2.507 -0.1509 -0.5819 -0.6405
10692TIP3   OH253566   4.460   6.294  12.329  0.2008  0.2860  0.5705
10692TIP3    H153567   4.479   6.323  12.418  0.9138 -2.2807  1.3316
10692TIP3    H253568   4.545   6.266  12.294 -0.5175 -1.5929  0.2211
10693TIP3   OH253569   4.622   0.602   4.166  0.2710 -0.1301  0.1283
10693TIP3    H153570   4.670   0.610   4.084 -0.3145 -1.1147 -0.3295
10693TIP3    H253571   4.548   0.545   4.145 -0.4770  0.4599  1.0821
10694TIP3   OH253572   1.055   3.880  15.674 -0.6663 -0.2366  0.5220
10694TIP3    H153573   1.095   3.838  15.750 -0.4178 -0.2410  0.3906
10694TIP3    H253574   1.104   3.845  15.599  0.0521  0.8346  0.4533
10695TIP3   OH253575   1.498   1.355  17.092 -0.2257 -0.1060 -0.2248
10695TIP3    H153576   1.522   1.432  17.041  1.7989 -0.2158  0.4594
10695TIP3    H253577   1.412   1.375  17.127 -0.6266  0.9484 -1.7485
10696TIP3   OH253578   4.405   2.382   3.950 -0.6073  0.5606 -0.2413
10696TIP3    H153579   4.459   2.343   3.881 -1.4698 -0.2464 -0.4704
10696TIP3    H253580   4.404   2.316   4.020  1.2289  1.8177  1.1114
10697TIP3   OH253581   0.802   5.137  11.439  0.0171  0.2215  0.1817
10697TIP3    H153582   0.849   5.087  11.373  0.1667 -0.7135  0.9763
10697TIP3    H253583   0.869   5.194  11.478  0.4474 -0.8096  1.0231
10698TIP3   OH253584   2.299   2.748  17.133  0.4126 -0.2741 -0.2762
10698TIP3    H153585   2.226   2.751  17.195  0.8333  0.2187  0.2059
10698TIP3    H253586   2.274   2.680  17.070 -0.2202 -0.4760  0.1798
10699TIP3   OH253587   0.454   1.857   2.819 -0.4565  0.3300 -0.4126
10699TIP3    H153588   0.522   1.813   2.871 -0.1801  2.4384  1.1150
10699TIP3    H253589   0.465   1.821   2.731  0.8674 -1.3359  0.3635
10700TIP3   OH253590   1.167   4.000   2.586 -0.4954 -0.0319 -0.0053
10700TIP3    H153591   1.173   3.938   2.513 -1.0819  1.2564 -1.2054
10700TIP3    H253592   1.249   4.048   2.584  0.1945 -1.0951  1.2753
10701TIP3   OH253593   2.054   0.494  13.325 -0.4671 -0.6704  0.0502
10701TIP3    H153594   2.056   0.398  13.329  0.5501 -0.6219  1.0179
10701TIP3    H253595   2.002   0.520  13.401  0.5797 -0.4159  0.6968
10702TIP3   OH253596   6.080   1.758   1.927  0.1619 -0.1158 -0.2845
10702TIP3    H153597   6.072   1.663   1.938  0.8138 -0.2712 -1.0234
10702TIP3    H253598   5.997   1.785   1.888  0.6398 -0.6848 -1.7772
10703TIP3   OH253599   1.026   3.066   2.833  0.1551  0.7221  0.3289
10703TIP3    H153600   1.083   3.142   2.821  1.6966 -0.4828 -0.3318
10703TIP3    H253601   1.010   3.033   2.745 -1.6914  1.0729  0.4914
10704TIP3   OH253602   6.260   3.637  15.651 -0.0189 -0.4469 -0.2302
10704TIP3    H153603   6.201   3.707  15.679  0.7946 -0.0948  0.6528
10704TIP3    H253604   6.346   3.662  15.686  0.5171 -1.2980 -0.8975
10705TIP3   OH253605   0.594   5.873   4.536 -0.3688  0.6319 -0.6455
10705TIP3    H153606   0.557   5.794   4.496 -0.0460 -0.0039  0.2868
10705TIP3    H253607   0.523   5.909   4.589 -0.6473  1.2095 -1.3995
10706TIP3   OH253608   6.698   3.065  11.407 -0.1105  0.2319  0.5033
10706TIP3    H153609   6.756   3.076  11.331 -0.7833  0.9234  0.0680
10706TIP3    H253610   6.665   2.975  11.399  1.8467 -0.6175  1.4639
10707TIP3   OH253611   5.444   4.063   0.950 -0.0627 -0.2458  0.2688
10707TIP3    H153612   5.455   3.992   0.886  0.5642 -0.3020  0.4283
10707TIP3    H253613   5.507   4.042   1.019  0.0447  0.4064  0.3733
10708TIP3   OH253614   3.500   5.151  12.756 -0.7467 -0.3086 -0.4739
10708TIP3    H153615   3.413   5.146  12.796 -0.4562  0.0480  0.2192
10708TIP3    H253616   3.509   5.243  12.729 -0.8244 -0.4809 -1.1145
10709TIP3   OH253617   1.617   6.270  13.967  0.1895  0.1131  0.1399
10709TIP3    H153618   1.635   6.281  13.874  1.2111 -0.1966  0.2936
10709TIP3    H253619   1.543   6.209  13.970  1.6381 -1.7826 -0.4515
10710TIP3   OH253620   0.223   3.576   3.043  0.0877  0.7489  0.6878
10710TIP3    H153621   0.302   3.545   3.087 -0.1013 -0.8553 -0.0314
10710TIP3    H253622   0.153   3.560   3.105  0.2641  1.9433  1.2278
10711TIP3   OH253623   4.925   0.384  17.361 -0.8062 -0.5423 -0.2207
10711TIP3    H153624   4.959   0.418  17.278 -1.8810  0.2333 -0.3705
10711TIP3    H253625   4.992   0.407  17.425 -0.3748 -0.3511 -0.7301
10712TIP3   OH253626   0.074   5.029   4.786 -0.1538 -0.3552  0.2287
10712TIP3    H153627   0.053   5.065   4.699 -0.8642 -0.3321  0.4084
10712TIP3    H253628   0.119   4.947   4.768  0.8943  0.2881 -0.1818
10713TIP3   OH253629   6.296   3.378  13.960 -0.2856  0.4035  0.3213
10713TIP3    H153630   6.201   3.378  13.977 -0.4330  1.2342 -0.4011
10713TIP3    H253631   6.308   3.311  13.893 -0.4634  0.6914 -0.0070
10714TIP3   OH253632   5.917   5.679  11.819 -0.3418 -0.0359 -0.1193
10714TIP3    H153633   5.876   5.731  11.750 -0.7086 -0.1605  0.0006
10714TIP3    H253634   5.846   5.624  11.853 -0.3803  0.6289  0.9239
10715TIP3   OH253635   4.556   0.998   3.837  0.6314 -0.2339 -0.2610
10715TIP3    H153636   4.509   1.019   3.756  0.7953 -0.9186 -0.5361
10715TIP3    H253637   4.620   1.069   3.846 -0.3288  0.6146  0.0238
10716TIP3   OH253638   3.189   2.072  12.114 -0.0024  0.5457  0.4444
10716TIP3    H153639   3.129   2.091  12.186 -1.1846  1.2931 -0.6907
10716TIP3    H253640   3.200   2.156  12.069  0.4473  0.0306 -0.4387
10717TIP3   OH253641   3.797   1.870  14.008 -0.3863 -0.0605  0.4847
10717TIP3    H153642   3.712   1.879  13.964 -0.1912  0.5205  0.2153
10717TIP3    H253643   3.856   1.838  13.940  0.3244  2.4846 -0.1971
10718TIP3   OH253644   5.876   3.157   4.895 -0.2550  0.9360  0.4627
10718TIP3    H153645   5.971   3.171   4.896 -0.0008 -0.5338  2.5238
10718TIP3    H253646   5.847   3.199   4.814  2.3367  0.1129 -1.0081
10719TIP3   OH253647   4.280   2.540  16.348 -0.2138  0.0193  0.1399
10719TIP3    H153648   4.195   2.496  16.344  0.1481 -0.6520 -0.2577
10719TIP3    H253649   4.274   2.596  16.426 -0.6272 -0.8501  0.7538
10720TIP3   OH253650   6.010   4.398   3.204  0.3043 -0.3589 -0.3057
10720TIP3    H153651   6.019   4.455   3.128 -0.6957  2.3787  1.4972
10720TIP3    H253652   5.934   4.344   3.185  0.7790 -0.5685 -1.7089
10721TIP3   OH253653   6.041   2.201  15.597 -0.4438  0.1499  0.2981
10721TIP3    H153654   6.007   2.156  15.674  0.3106 -0.5790  0.2184
10721TIP3    H253655   6.037   2.294  15.620 -0.1714 -0.0597  1.2362
10722TIP3   OH253656   2.645   0.248  17.247 -0.0330  0.3131  1.1511
10722TIP3    H153657   2.568   0.304  17.251  0.9003  1.8627 -0.8832
10722TIP3    H253658   2.708   0.289  17.306 -0.3164 -0.2438  1.8528
10723TIP3   OH253659   4.927   4.604   6.463  0.0972  0.1069  0.3081
10723TIP3    H153660   4.838   4.575   6.484  0.4320 -0.7812  0.5542
10723TIP3    H253661   4.980   4.525   6.473  0.7484  0.3685 -0.8888
10724TIP3   OH253662   1.968   5.039  10.577  0.0559  0.2394 -0.0791
10724TIP3    H153663   2.036   4.973  10.562  0.0282 -0.6081  2.9486
10724TIP3    H253664   2.009   5.102  10.636 -1.4094  0.3410  0.8567
10725TIP3   OH253665   6.144   6.713   4.658  0.1374  0.1558  0.1557
10725TIP3    H153666   6.180   6.626   4.678  0.9453  0.4345 -0.0633
10725TIP3    H253667   6.051   6.705   4.678 -0.0126 -1.0954 -0.9066
10726TIP3   OH253668   3.254   6.616  16.465  0.4836  0.7386  0.3286
10726TIP3    H153669   3.162   6.642  16.458  0.2828 -0.1341 -0.4793
10726TIP3    H253670   3.280   6.595  16.375  1.5049  1.0629  0.5325
10727TIP3   OH253671   1.816   5.402  11.346  0.0286 -0.0557  0.4941
10727TIP3    H153672   1.784   5.415  11.257  1.3197 -0.7112 -0.0823
10727TIP3    H253673   1.897   5.453  11.351  0.5881 -0.9525  0.9082
10728TIP3   OH253674   2.128   6.447   5.946  0.4723 -0.0892  0.0525
10728TIP3    H153675   2.172   6.505   6.009 -1.2714  0.1074  1.1513
10728TIP3    H253676   2.060   6.501   5.907  1.9274 -0.0128 -2.5834
10729TIP3   OH253677   0.466   6.582   0.058  0.1786  0.2760  0.7084
10729TIP3    H153678   0.408   6.657   0.058 -0.4368 -0.1885  0.9892
10729TIP3    H253679   0.515   6.589   0.140  0.5420  0.6761  0.4626
10730TIP3   OH253680   0.620   5.004   1.055 -0.5772 -0.4894 -0.1820
10730TIP3    H153681   0.671   4.928   1.027  1.2261  1.1862 -1.8102
10730TIP3    H253682   0.607   5.055   0.975  1.2312  2.5291  1.2618
10731TIP3   OH253683   1.814   0.114  15.279  0.2203 -0.1142  0.1750
10731TIP3    H153684   1.824   0.204  15.311  3.1732  0.0815 -0.9956
10731TIP3    H253685   1.903   0.081  15.273 -0.7733 -3.1093  0.3509
10732TIP3   OH253686   6.776   4.840  11.855  0.2480  0.1402 -0.4538
10732TIP3    H153687   6.709   4.843  11.787  1.3428 -0.4693 -1.5988
10732TIP3    H253688   6.849   4.794  11.814  1.0143 -0.0481  1.0799
10733TIP3   OH253689   6.466   2.846  11.294 -0.3816  0.1574 -0.5679
10733TIP3    H153690   6.541   2.819  11.346 -0.3737  2.5114  0.7797
10733TIP3    H253691   6.494   2.834  11.204  1.2363  0.0243 -0.0814
10734TIP3   OH253692   6.490   0.455  16.843  0.3686 -0.0228  0.2507
10734TIP3    H153693   6.494   0.539  16.889  0.2211 -1.1489  2.4766
10734TIP3    H253694   6.424   0.468  16.776  1.5459  2.1273 -0.6013
10735TIP3   OH253695   1.029   0.630  17.191 -0.0342 -0.2050  0.2850
10735TIP3    H153696   0.959   0.694  17.182 -0.1337 -0.2279  0.9020
10735TIP3    H253697   1.018   0.571  17.116 -0.3728  0.0783  0.1141
10736TIP3   OH253698   3.945   1.995   0.017  0.2796  0.6195  0.0721
10736TIP3    H153699   3.972   1.907   0.041 -0.1468  0.2817 -0.6473
10736TIP3    H253700   3.851   1.988  -0.000  0.3209  1.1188 -0.3924
10737TIP3   OH253701   5.173   6.132  13.234 -0.1848 -0.1364 -0.0302
10737TIP3    H153702   5.100   6.083  13.273 -0.5220 -1.0362 -1.7083
10737TIP3    H253703   5.251   6.097  13.277 -0.6264  0.0043  0.9346
10738TIP3   OH253704   4.021   4.667  14.122 -0.0760  0.4625  0.5489
10738TIP3    H153705   4.037   4.752  14.163  0.0235 -0.1661  1.8759
10738TIP3    H253706   3.966   4.687  14.046 -0.2241  1.6867  0.9468
10739TIP3   OH253707   1.506   4.770   4.231  0.0552 -0.1033 -0.0343
10739TIP3    H153708   1.430   4.716   4.253  0.6046 -0.9247 -0.1537
10739TIP3    H253709   1.479   4.816   4.151 -0.6448  0.2990  0.4137
10740TIP3   OH253710   2.946   0.325  12.328 -0.0975  0.6631 -0.2365
10740TIP3    H153711   2.877   0.271  12.366  0.8254  0.5427  1.3215
10740TIP3    H253712   3.023   0.306  12.381  1.7796 -0.8880 -3.2371
10741TIP3   OH253713   4.024   6.645   0.413 -0.1619  0.4592 -0.3094
10741TIP3    H153714   3.998   6.718   0.357  0.6124  1.2538  0.3233
10741TIP3    H253715   4.005   6.567   0.362 -2.5676  1.0165 -0.3527
10742TIP3   OH253716   2.762   1.503   2.580  0.4819  0.2122  0.2889
10742TIP3    H153717   2.754   1.583   2.528  0.5607  0.9184  1.3260
10742TIP3    H253718   2.690   1.509   2.644  0.2835 -0.7153  0.1606
10743TIP3   OH253719   4.118   4.108  11.592  0.2017 -0.1953  0.1822
10743TIP3    H153720   4.078   4.104  11.679 -1.4024  0.7693 -0.4804
10743TIP3    H253721   4.184   4.177  11.600  0.9621 -0.9811  0.9573
10744TIP3   OH253722   5.075   2.608  14.746 -0.9093 -0.1309  0.0698
10744TIP3    H153723   5.055   2.697  14.773 -1.3805 -0.5059  0.9968
10744TIP3    H253724   5.154   2.585  14.793 -0.7842 -0.2029 -0.1711
10745TIP3   OH253725   6.528   2.514   6.377  0.6961 -0.5192 -0.3583
10745TIP3    H153726   6.579   2.495   6.456  1.5898  1.7950 -0.2832
10745TIP3    H253727   6.464   2.444   6.372  0.9726 -1.0456  2.1212
10746TIP3   OH253728   0.310   6.751  11.119 -0.5483  0.4407  0.2459
10746TIP3    H153729   0.258   6.676  11.148  0.0063 -0.2822 -0.5824
10746TIP3    H253730   0.247   6.804  11.069 -1.2861  1.2610  1.9434
10747TIP3   OH253731   0.462   1.166   2.422 -0.4613 -0.3327  0.1152
10747TIP3    H153732   0.402   1.213   2.364 -0.8965 -0.4923  0.4341
10747TIP3    H253733   0.406   1.111   2.476 -0.0327 -0.4380  0.4611
10748TIP3   OH253734   6.193   2.301   3.468 -0.5501 -0.3416 -0.0337
10748TIP3    H153735   6.110   2.341   3.442 -0.4123  0.8235  1.2239
10748TIP3    H253736   6.169   2.217   3.507 -1.0521 -0.3662 -0.3909
10749TIP3   OH253737   3.042   2.406   0.722 -0.0446 -0.2570 -0.2084
10749TIP3    H153738   3.054   2.471   0.791 -0.0647 -0.6601  0.1804
10749TIP3    H253739   2.981   2.447   0.660  1.0854  0.6702 -0.7394
10750TIP3   OH253740   1.063   5.847   1.584 -0.0142 -0.1776  0.4117
10750TIP3    H153741   1.093   5.937   1.573 -0.9947  0.0554 -0.6460
10750TIP3    H253742   1.097   5.801   1.507 -0.4119 -0.4569  0.3993
10751TIP3   OH253743   4.452   0.175   6.197  0.2100  0.5274 -0.7052
10751TIP3    H153744   4.538   0.196   6.161  0.9814  0.0286  0.7831
10751TIP3    H253745   4.436   0.243   6.263  0.3089 -0.4195  0.3221
10752TIP3   OH253746   0.980   1.449   4.656  0.1795 -0.0689  0.1364
10752TIP3    H153747   1.011   1.504   4.584 -0.4222  0.1537  0.0421
10752TIP3    H253748   0.901   1.408   4.622 -0.1112  0.0367  0.6748
10753TIP3   OH253749   3.807   5.960   4.704 -0.6974 -0.2821 -0.0074
10753TIP3    H153750   3.859   6.002   4.636 -2.4198  0.0212 -1.2047
10753TIP3    H253751   3.785   5.874   4.667 -0.1548 -0.8507  0.9459
10754TIP3   OH253752   4.180   4.141  13.674 -0.1748  0.0234 -0.3764
10754TIP3    H153753   4.221   4.225  13.692  2.1228 -1.0717 -0.0135
10754TIP3    H253754   4.146   4.112  13.758  1.0050 -0.3578 -0.0159
10755TIP3   OH253755   0.671   5.015   1.895  0.1653  0.1013 -0.3938
10755TIP3    H153756   0.757   5.001   1.934  0.4435  0.5552 -0.8382
10755TIP3    H253757   0.635   5.091   1.940  0.0605  0.0108 -0.3217
10756TIP3   OH253758   6.783   1.757  13.800 -0.3351 -0.3811  0.2546
10756TIP3    H153759   6.759   1.702  13.725  0.8229 -0.8352  0.1926
10756TIP3    H253760   6.824   1.696  13.861 -1.7013 -0.1027  1.4841
10757TIP3   OH253761   0.483   2.363   0.958  0.8628  0.7126 -0.1677
10757TIP3    H153762   0.404   2.402   0.921  0.0426 -0.5641  0.1344
10757TIP3    H253763   0.517   2.306   0.889  2.0666  1.9543 -0.6251
10758TIP3   OH253764   2.274   5.797   3.175 -0.4435  0.1163 -0.0466
10758TIP3    H153765   2.206   5.855   3.210  0.4348  1.9710 -1.2378
10758TIP3    H253766   2.230   5.712   3.165 -2.2134  0.9224  0.4141
10759TIP3   OH253767   4.332   1.331   4.514  0.6892 -0.1215  0.7531
10759TIP3    H153768   4.366   1.312   4.426 -0.5913 -0.6445  0.3517
10759TIP3    H253769   4.407   1.316   4.572  1.9050  1.3708 -0.3267
10760TIP3   OH253770   0.763   5.503   6.518 -0.3673 -0.4004  0.0200
10760TIP3    H153771   0.685   5.508   6.572  0.0115  0.8425  0.4908
10760TIP3    H253772   0.831   5.471   6.577 -0.2714 -0.4167 -0.0983
10761TIP3   OH253773   0.054   0.625  15.382  0.4888  0.0359 -0.7330
10761TIP3    H153774   0.133   0.650  15.335  2.0200 -0.5800  1.3834
10761TIP3    H253775   0.039   0.697  15.444  0.5959 -0.8007  0.2819
10762TIP3   OH253776   1.810   0.272   2.082  0.2879  0.1044 -0.1352
10762TIP3    H153777   1.823   0.178   2.068  1.4535  0.2837 -0.4063
10762TIP3    H253778   1.824   0.311   1.996 -2.1654  0.3756 -0.4601
10763TIP3   OH253779   4.047   6.258   0.374 -0.2860  0.1229  0.2827
10763TIP3    H153780   4.002   6.287   0.294 -0.1517 -0.0231  0.1527
10763TIP3    H253781   4.119   6.321   0.385 -1.2458  1.0938  1.1766
10764TIP3   OH253782   0.429   3.246  12.598  0.2216  0.0864  0.0132
10764TIP3    H153783   0.389   3.200  12.672 -2.0703  0.0897 -1.1313
10764TIP3    H253784   0.422   3.338  12.621 -0.9543  0.1171 -0.3583
10765TIP3   OH253785   3.261   2.919  17.151  0.1173  0.1654  0.5996
10765TIP3    H153786   3.309   2.840  17.173 -0.9931 -1.1499 -1.3510
10765TIP3    H253787   3.172   2.903  17.182 -0.1725  0.5376 -0.0145
10766TIP3   OH253788   5.424   5.681   3.470 -0.6606 -0.0574 -0.3025
10766TIP3    H153789   5.405   5.588   3.457  0.7629 -0.4509  0.2394
10766TIP3    H253790   5.407   5.696   3.563 -2.4257  0.6416 -0.6968
10767TIP3   OH253791   4.212   4.146   1.096  0.6774 -0.1257 -0.0395
10767TIP3    H153792   4.191   4.215   1.033  0.6699 -1.5026 -1.6021
10767TIP3    H253793   4.259   4.191   1.166  0.5409  1.4778 -0.9390
10768TIP3   OH253794   1.894   1.463  17.368  0.1067 -0.1471  0.3589
10768TIP3    H153795   1.850   1.537  17.410  0.2349 -0.6999  1.5021
10768TIP3    H253796   1.896   1.395  17.435 -1.2491 -1.7015 -1.0719
10769TIP3   OH253797   2.269   0.559   0.427 -0.3561  0.2158  0.6559
10769TIP3    H153798   2.258   0.473   0.386 -1.6075 -0.0999  1.5754
10769TIP3    H253799   2.363   0.566   0.444 -0.3513 -1.4176  1.4899
10770TIP3   OH253800   3.753   5.644  15.884 -0.0277  0.0737  0.0914
10770TIP3    H153801   3.795   5.566  15.847  1.8857  0.5737  1.0999
10770TIP3    H253802   3.797   5.717  15.842  2.3267  0.6773  3.2509
10771TIP3   OH253803   2.254   0.021  12.393 -0.5769 -0.3111  0.5247
10771TIP3    H153804   2.240   0.055  12.305 -0.3474 -0.4675  0.4261
10771TIP3    H253805   2.177   0.048  12.442 -1.0019 -0.7566  0.1124
10772TIP3   OH253806   3.536   1.804  17.139 -0.1911  0.5957  0.0302
10772TIP3    H153807   3.492   1.769  17.216 -0.5397  1.2607  0.1416
10772TIP3    H253808   3.582   1.729  17.101 -0.2532  0.2022  0.7187
10773TIP3   OH253809   5.427   6.085  15.078  0.1247  1.0522 -0.0900
10773TIP3    H153810   5.501   6.112  15.024 -1.9111  0.4545 -3.5148
10773TIP3    H253811   5.362   6.154  15.065 -1.1166 -0.0434  0.0924
10774TIP3   OH253812   2.544   2.565   2.215 -0.5546  0.1191  0.3497
10774TIP3    H153813   2.449   2.553   2.218 -0.5471  0.1588  1.9081
10774TIP3    H253814   2.573   2.511   2.141 -1.5704 -1.6838  1.1851
10775TIP3   OH253815   3.174   4.057  14.449  0.0483  0.4711 -0.1861
10775TIP3    H153816   3.265   4.031  14.462 -0.0044 -0.1493 -0.9871
10775TIP3    H253817   3.141   4.073  14.537  0.7567  0.1063  0.1575
10776TIP3   OH253818   2.518   1.405   1.591  0.1971  0.0435 -0.3541
10776TIP3    H153819   2.462   1.482   1.598  1.8190  1.2165  0.1903
10776TIP3    H253820   2.607   1.439   1.593  1.0636 -1.4803 -4.1717
10777TIP3   OH253821   4.278   2.824  13.330 -0.4242 -0.6865 -0.0215
10777TIP3    H153822   4.337   2.829  13.255  0.2717 -1.3163  0.4680
10777TIP3    H253823   4.204   2.771  13.299 -0.6574 -0.0420 -0.5824
10778TIP3   OH253824   1.361   1.482  12.860 -0.2332 -0.3887 -0.4354
10778TIP3    H153825   1.420   1.431  12.917  1.1321  1.6229  0.0652
10778TIP3    H253826   1.419   1.518  12.793 -1.0509  0.8964 -0.4747
10779TIP3   OH253827   4.282   0.377   6.329 -0.3385  0.2219  0.0094
10779TIP3    H153828   4.232   0.299   6.306  1.6612 -1.1922  0.1697
10779TIP3    H253829   4.229   0.421   6.395 -0.9126 -1.7665  0.9614
10780TIP3   OH253830   4.118   1.221  13.845 -0.4980 -0.0937  0.4012
10780TIP3    H153831   4.061   1.298  13.838  0.4317  0.6573  0.7951
10780TIP3    H253832   4.131   1.192  13.755 -0.1220  0.7867  0.1577
10781TIP3   OH253833   6.008   0.613  14.858 -0.4655  0.3368  0.5949
10781TIP3    H153834   6.000   0.697  14.904 -2.3527  0.7565 -0.3644
10781TIP3    H253835   6.019   0.548  14.927  2.5670  1.4464  1.3064
10782TIP3   OH253836   0.033   4.670   5.131  0.6186  0.3538  0.0161
10782TIP3    H153837   0.035   4.615   5.054  0.5934 -0.0917  0.3301
10782TIP3    H253838   0.099   4.633   5.190  1.8838  1.7168 -0.4721
10783TIP3   OH253839   3.039   1.203   3.603  0.0776 -0.2450  0.5818
10783TIP3    H153840   3.032   1.141   3.675  0.1080 -3.0643 -1.6411
10783TIP3    H253841   3.021   1.150   3.525  3.9031  1.6078 -1.8651
10784TIP3   OH253842   4.399   6.336  16.895  0.2078  0.2633 -0.0076
10784TIP3    H153843   4.487   6.347  16.930 -0.5270 -0.3419  2.1658
10784TIP3    H253844   4.413   6.325  16.800  2.2093  2.8224 -0.1403
10785TIP3   OH253845   2.251   0.169   0.044 -0.2310 -0.4003  0.3761
10785TIP3    H153846   2.187   0.098   0.034  1.8516 -2.2515 -0.8103
10785TIP3    H253847   2.253   0.211  -0.043  0.4649 -0.6427  0.2720
10786TIP3   OH253848   3.191   2.196  15.133  0.5609  0.6400 -0.4896
10786TIP3    H153849   3.282   2.212  15.108  0.9821 -0.2390  0.3650
10786TIP3    H253850   3.198   2.149  15.217 -0.6333 -0.7353 -1.1187
10787TIP3   OH253851   4.146   3.582   5.852  0.1184  0.4019  0.3077
10787TIP3    H153852   4.106   3.592   5.766  1.9028 -0.1847 -0.6466
10787TIP3    H253853   4.158   3.671   5.884  1.2428  0.7427 -0.9640
10788TIP3   OH253854   0.083   2.120   0.328  0.3083  0.1124  0.1843
10788TIP3    H153855   0.171   2.133   0.295  0.1610  0.4547 -0.0729
10788TIP3    H253856   0.072   2.186   0.396 -0.3123  1.1411 -0.8799
10789TIP3   OH253857   5.903   4.970   0.424 -0.1208 -0.1619 -0.2721
10789TIP3    H153858   5.981   5.006   0.382  1.3808 -4.0008 -1.2262
10789TIP3    H253859   5.918   4.980   0.517  1.8609 -1.3035 -0.4222
10790TIP3   OH253860   4.059   0.997  15.061  0.4582 -0.3760  0.5297
10790TIP3    H153861   4.024   0.935  15.126  1.4678  0.0404  1.5019
10790TIP3    H253862   4.135   0.953  15.024 -1.1133 -1.3849 -1.7705
10791TIP3   OH253863   0.381   0.587  15.716 -0.1269 -0.5787  0.3373
10791TIP3    H153864   0.363   0.676  15.685  0.7867 -0.6646 -0.4714
10791TIP3    H253865   0.295   0.551  15.736 -0.4273  0.9783  2.1001
10792TIP3   OH253866   1.346   1.353  12.211 -0.3220 -0.3938  0.0186
10792TIP3    H153867   1.400   1.432  12.204 -0.0989 -0.6698 -1.8639
10792TIP3    H253868   1.409   1.281  12.210 -0.6308 -0.6631 -0.6000
10793TIP3   OH253869   0.945   2.800   5.584  0.9371 -0.8013 -0.1607
10793TIP3    H153870   0.930   2.872   5.644  1.6210 -1.2276  0.5342
10793TIP3    H253871   0.992   2.734   5.636  1.1402 -1.3633 -1.0304
10794TIP3   OH253872   1.800   2.610   3.807  0.2548  0.0904 -0.6362
10794TIP3    H153873   1.866   2.604   3.876 -0.6793  2.4168  0.5583
10794TIP3    H253874   1.788   2.704   3.794 -0.6968 -0.2916 -2.9293
10795TIP3   OH253875   5.117   1.957  15.599  0.1751  0.5299 -0.3010
10795TIP3    H153876   5.052   2.026  15.611 -1.3856 -0.5546 -1.9493
10795TIP3    H253877   5.170   1.960  15.678 -1.1653  2.2142  0.6100
10796TIP3   OH253878   1.087   0.643  16.638  0.0405 -0.5920 -0.1752
10796TIP3    H153879   1.180   0.662  16.628 -0.1525  2.1307  1.8961
10796TIP3    H253880   1.043   0.709  16.584 -0.6586  0.3959  1.5236
10797TIP3   OH253881   1.036   4.829   6.175 -0.6204 -0.6629 -0.1182
10797TIP3    H153882   1.035   4.774   6.253 -1.9387 -0.9122 -0.2811
10797TIP3    H253883   1.032   4.919   6.208 -0.2312 -0.7315  0.1149
10798TIP3   OH253884   3.641   6.296  16.479  0.0643 -0.1363 -0.7758
10798TIP3    H153885   3.546   6.292  16.495 -0.1793 -1.0506 -2.1787
10798TIP3    H253886   3.673   6.363  16.539 -1.1147 -1.3230  1.3088
10799TIP3   OH253887   1.693   0.659   5.674  0.5030 -0.0448 -0.2313
10799TIP3    H153888   1.687   0.733   5.734 -0.9797  0.4953 -0.9900
10799TIP3    H253889   1.649   0.689   5.594  0.1461 -1.6313 -0.6754
10800TIP3   OH253890   0.719   5.358   3.128  0.1444 -0.2460  0.5935
10800TIP3    H153891   0.740   5.440   3.172  1.1388 -0.5377  0.6828
10800TIP3    H253892   0.647   5.321   3.178  0.1246  0.2587  0.9418
10801TIP3   OH253893   0.283   3.379   6.046 -1.0977 -0.4734  0.1405
10801TIP3    H153894   0.315   3.289   6.053 -0.9256 -0.7663 -2.8116
10801TIP3    H253895   0.247   3.399   6.132  0.9539 -2.5100  1.5913
10802TIP3   OH253896   0.196   4.853  14.477  0.6466  0.0289  0.4638
10802TIP3    H153897   0.228   4.857  14.568  0.2694  0.4445  0.5812
10802TIP3    H253898   0.105   4.825  14.485  0.9488 -1.0817  0.1318
10803TIP3   OH253899   6.449   2.809  12.550  0.3769  0.0880 -0.0136
10803TIP3    H153900   6.488   2.795  12.463 -0.9370 -2.7013 -0.2741
10803TIP3    H253901   6.504   2.759  12.609 -1.3193 -2.0111 -0.0554
10804TIP3   OH253902   1.774   1.215   5.885 -0.5377 -0.4087 -0.5549
10804TIP3    H153903   1.718   1.159   5.940 -1.0326 -1.2226 -1.8403
10804TIP3    H253904   1.851   1.160   5.867 -0.4427 -0.1965 -0.7903
10805TIP3   OH253905   3.199   3.969  15.811 -0.5567 -0.0488  0.2665
10805TIP3    H153906   3.183   4.059  15.840  0.8754  0.7932 -1.3761
10805TIP3    H253907   3.294   3.963  15.803 -0.6775 -1.4751 -0.3668
10806TIP3   OH253908   2.790   2.418   1.560  0.8185  0.0656  0.6507
10806TIP3    H153909   2.856   2.406   1.492  2.8458 -0.6631  2.6157
10806TIP3    H253910   2.836   2.465   1.629 -1.2838  1.1622  1.4042
10807TIP3   OH253911   5.766   4.419  15.876  0.4853  0.5446  0.3740
10807TIP3    H153912   5.784   4.353  15.808 -1.0850 -0.2185  0.6340
10807TIP3    H253913   5.752   4.500  15.828 -0.0723  0.1233 -0.1961
10808TIP3   OH253914   5.772   3.211   2.424 -0.7035 -0.4532  0.3760
10808TIP3    H153915   5.676   3.206   2.423 -0.8919  1.5733 -2.2146
10808TIP3    H253916   5.797   3.215   2.332  1.9271 -0.9315  0.9779
10809TIP3   OH253917   0.558   1.153  13.511  0.0758  0.4531  0.3789
10809TIP3    H153918   0.494   1.175  13.578  1.2897 -0.0866  1.7601
10809TIP3    H253919   0.508   1.103  13.446 -1.0626  0.7357  1.0095
10810TIP3   OH253920   6.364   1.171  12.139 -0.1572 -0.1365 -0.2879
10810TIP3    H153921   6.411   1.235  12.087  1.4275  0.1367  1.4042
10810TIP3    H253922   6.350   1.097  12.079 -0.5882  1.0985 -1.7792
10811TIP3   OH253923   2.226   5.470  12.026 -0.5736 -0.6420  0.8638
10811TIP3    H153924   2.164   5.543  12.025  0.4280  0.2813  2.2147
10811TIP3    H253925   2.250   5.458  11.934 -1.6255 -0.0504  0.4903
10812TIP3   OH253926   1.714   5.780   3.105  0.4147 -0.3406  0.0441
10812TIP3    H153927   1.719   5.803   3.012 -0.1082  0.4900  0.2027
10812TIP3    H253928   1.637   5.829   3.137  0.4331 -0.8246  0.8498
10813TIP3   OH253929   1.273   3.353   5.399  0.2824  0.0137  0.3229
10813TIP3    H153930   1.204   3.378   5.461  0.3110  0.9700 -0.0127
10813TIP3    H253931   1.293   3.262   5.422 -1.0158 -0.2568  0.4862
10814TIP3   OH253932   3.908   3.980   5.373  0.5354 -0.0064  0.0473
10814TIP3    H153933   3.837   4.033   5.409  0.0419  0.1712 -1.1255
10814TIP3    H253934   3.950   3.940   5.449 -0.6959  0.0495  0.7716
10815TIP3   OH253935   6.046   1.375   4.169 -0.2653  0.0647  0.8701
10815TIP3    H153936   6.076   1.445   4.227 -1.7403  0.8299  0.7685
10815TIP3    H253937   5.951   1.389   4.162 -0.8247 -2.6585  1.7972
10816TIP3   OH253938   5.282   0.107   3.136 -0.0962  0.5612  0.8484
10816TIP3    H153939   5.283   0.194   3.175 -1.7808  1.0005 -0.0273
10816TIP3    H253940   5.190   0.088   3.120  0.3790 -0.4831 -0.9526
10817TIP3   OH253941   0.982   6.351   0.306  0.1386  0.2656 -0.4615
10817TIP3    H153942   0.928   6.272   0.307  0.0672  0.2730  2.0084
10817TIP3    H253943   0.927   6.417   0.264 -1.8176  0.2288  1.8218
10818TIP3   OH253944   0.734   2.651   0.139 -0.2158  0.0605 -0.1213
10818TIP3    H153945   0.640   2.660   0.153 -0.4710  0.1355 -1.7142
10818TIP3    H253946   0.758   2.727   0.085  0.8509  0.2946  0.6481
10819TIP3   OH253947   1.457   3.961  15.533 -0.1309  0.2788 -0.3494
10819TIP3    H153948   1.473   4.040  15.482  1.4121 -0.4722 -1.1056
10819TIP3    H253949   1.525   3.961  15.601  1.6837 -1.6786 -2.0099
10820TIP3   OH253950   1.142   2.469   0.696 -0.3776  0.0527  0.0874
10820TIP3    H153951   1.221   2.474   0.750 -1.2871  2.5105  1.3641
10820TIP3    H253952   1.082   2.532   0.736 -1.9607  0.3327 -2.5025
10821TIP3   OH253953   4.283   5.026   3.698 -0.3067  0.1498 -0.1217
10821TIP3    H153954   4.285   5.121   3.711  0.4487  0.1771 -0.3796
10821TIP3    H253955   4.282   4.990   3.786  1.4187  0.3797  0.0230
10822TIP3   OH253956   5.860   0.476  14.406 -0.5938 -0.1811  0.5096
10822TIP3    H153957   5.784   0.533  14.409 -1.2630 -1.0340  0.2913
10822TIP3    H253958   5.838   0.403  14.464 -1.4504 -2.1896 -2.1051
10823TIP3   OH253959   3.138   2.746  16.513 -0.0288 -0.3719  0.1722
10823TIP3    H153960   3.092   2.829  16.527  1.0075  0.5030 -1.3567
10823TIP3    H253961   3.131   2.730  16.419  2.9029 -0.0949 -0.1753
10824TIP3   OH253962   1.622   2.020   1.019  0.0992  0.1467 -0.7595
10824TIP3    H153963   1.618   1.975   0.934  1.4690 -1.7880  0.1343
10824TIP3    H253964   1.704   2.069   1.016 -0.3060  0.8317 -0.8819
10825TIP3   OH253965   0.358   1.227  13.671  0.0387  0.2630  0.6288
10825TIP3    H153966   0.401   1.309  13.697  0.1481  0.8805 -1.3141
10825TIP3    H253967   0.395   1.161  13.730  0.9067  1.3945  1.4090
10826TIP3   OH253968   1.495   6.513   1.417 -0.2848 -0.6601 -0.0402
10826TIP3    H153969   1.406   6.540   1.442 -0.6463 -1.1490 -0.7723
10826TIP3    H253970   1.486   6.480   1.328  0.9576  0.9209 -0.8018
10827TIP3   OH253971   0.972   4.044  13.051 -0.3502  0.4841  0.0624
10827TIP3    H153972   1.024   4.125  13.050 -1.0392  0.9542  0.8304
10827TIP3    H253973   0.960   4.021  12.959  2.2083 -0.2992 -0.1549
10828TIP3   OH253974   1.324   2.771   5.073 -0.3903 -0.0118 -0.5672
10828TIP3    H153975   1.366   2.779   5.159  1.1524 -0.2906 -1.2528
10828TIP3    H253976   1.308   2.862   5.045  1.3299  0.1940 -0.9948
10829TIP3   OH253977   2.898   2.660  16.317  0.0582 -0.5852 -0.2344
10829TIP3    H153978   2.993   2.667  16.313  0.0979 -1.5950 -1.9885
10829TIP3    H253979   2.867   2.750  16.306  0.8168 -0.5459 -2.9084
10830TIP3   OH253980   5.054   4.495   1.190  0.1172  0.4780  0.1837
10830TIP3    H153981   4.999   4.421   1.163  0.0168 -0.1200  1.8879
10830TIP3    H253982   5.070   4.479   1.283  2.3344  1.1847 -0.0320
10831TIP3   OH253983   1.899   1.556   3.015 -0.0638 -0.5595  0.2989
10831TIP3    H153984   1.975   1.501   2.995  0.7707  0.4773  0.5414
10831TIP3    H253985   1.852   1.565   2.932  1.3494  0.6707 -0.4002
10832TIP3   OH253986   5.221   5.455   5.626  0.4416 -0.0031 -0.4838
10832TIP3    H153987   5.150   5.444   5.691  1.1378 -0.1623  0.2660
10832TIP3    H253988   5.193   5.402   5.551  0.7114 -1.7852  0.6003
10833TIP3   OH253989   6.608   1.694  14.796 -0.1838 -0.4469  0.2607
10833TIP3    H153990   6.610   1.728  14.707 -0.4964 -2.3600 -0.5159
10833TIP3    H253991   6.683   1.736  14.840 -0.3436  0.9265 -0.7035
10834TIP3   OH253992   4.883   1.915   2.502  0.8245  0.2888 -0.4287
10834TIP3    H153993   4.821   1.892   2.434 -1.2460 -1.0100  1.7525
10834TIP3    H253994   4.953   1.850   2.494  0.5809  0.1296 -1.2991
10835TIP3   OH253995   5.101   2.054   1.706  0.2383  0.9349  0.4208
10835TIP3    H153996   5.146   2.005   1.637 -1.0631  0.0631  0.1455
10835TIP3    H253997   5.083   2.140   1.666  1.0514  1.0646  0.3121
10836TIP3   OH253998   0.573   0.260  12.163  0.4141 -0.8742 -0.2939
10836TIP3    H153999   0.656   0.239  12.118 -0.5094 -2.3051 -1.4190
10836TIP3    H254000   0.563   0.191  12.228 -0.4451 -1.3860 -0.9495
10837TIP3   OH254001   2.949   6.236  16.256 -0.2241  0.4108 -0.2171
10837TIP3    H154002   3.008   6.199  16.190 -0.3705 -2.5182  1.1200
10837TIP3    H254003   2.932   6.325  16.226  2.1345  0.2302 -2.4570
10838TIP3   OH254004   4.284   2.441  13.563  0.1896  0.5185  0.3478
10838TIP3    H154005   4.365   2.403  13.529 -0.0432  0.7386 -0.4594
10838TIP3    H254006   4.313   2.502  13.631  0.5969 -0.6835  1.2922
10839TIP3   OH254007   0.110   6.405   4.614  0.5528 -0.3984  0.5438
10839TIP3    H154008   0.086   6.332   4.557  0.0771  1.1676 -1.3375
10839TIP3    H254009   0.040   6.409   4.679  1.6325 -2.8621  1.9819
10840TIP3   OH254010   2.597   1.157  14.302  0.4445  0.7115  0.4312
10840TIP3    H154011   2.690   1.144  14.288  0.4902 -0.2426  1.5055
10840TIP3    H254012   2.567   1.077  14.343 -0.2800  2.0561  2.7192
10841TIP3   OH254013   1.151   1.693   3.124  0.5114 -0.3096  0.2725
10841TIP3    H154014   1.075   1.638   3.105 -0.1230  0.4334  0.5930
10841TIP3    H254015   1.167   1.742   3.044  0.0444  0.2395  0.5115
10842TIP3   OH254016   4.693   1.075   2.284 -0.3950 -0.2199  0.2881
10842TIP3    H154017   4.669   0.998   2.335  0.4238 -0.7538 -0.1150
10842TIP3    H254018   4.742   1.041   2.209 -1.3911  0.5619 -0.7672
10843TIP3   OH254019   4.013   1.232  12.793 -0.2623 -0.3654 -0.2244
10843TIP3    H154020   3.954   1.244  12.868 -1.2315 -2.0801 -0.6453
10843TIP3    H254021   4.061   1.314  12.786  0.6470 -0.4739  2.9514
10844TIP3   OH254022   0.267   4.869  13.651  0.0369 -0.3392  0.4890
10844TIP3    H154023   0.353   4.840  13.683 -0.3782  0.6973  2.7889
10844TIP3    H254024   0.205   4.814  13.698 -0.5912 -0.6158 -0.6431
10845TIP3   OH254025   2.629   6.324   5.009  0.4099  0.4574 -0.0237
10845TIP3    H154026   2.645   6.232   5.029  0.6199  0.1335 -1.5929
10845TIP3    H254027   2.710   6.369   5.035  0.4445  0.1641  0.3936
10846TIP3   OH254028   2.183   3.725   1.522  0.9112  0.1106  0.3336
10846TIP3    H154029   2.168   3.667   1.448  1.1850 -0.1910  0.5105
10846TIP3    H254030   2.278   3.729   1.531  0.8994  0.6538  0.2752
10847TIP3   OH254031   0.899   3.445  14.969  0.4308  0.0897 -0.6910
10847TIP3    H154032   0.916   3.540  14.968  1.6469 -0.1054 -1.6405
10847TIP3    H254033   0.885   3.424  15.061 -2.6332  1.6135 -0.6806
10848TIP3   OH254034   6.556   3.628   4.565  0.2777 -1.5514 -0.1259
10848TIP3    H154035   6.542   3.606   4.473 -0.6914 -1.3143 -0.0431
10848TIP3    H254036   6.588   3.718   4.563 -0.1967 -1.3840 -0.2029
10849TIP3   OH254037   2.406   4.547   0.964  0.2512  0.0697  0.2920
10849TIP3    H154038   2.485   4.528   0.913 -1.2012  0.1062 -2.1394
10849TIP3    H254039   2.404   4.480   1.032  1.6159 -0.8364 -0.5278
10850TIP3   OH254040   2.927   4.501   3.903 -0.1368  0.1142  0.1402
10850TIP3    H154041   2.979   4.505   3.983  0.7016  0.2394 -0.4004
10850TIP3    H254042   2.988   4.469   3.836 -0.8902 -0.2194 -0.3984
10851TIP3   OH254043   0.352   2.556  16.731 -0.1588  0.3457 -0.0208
10851TIP3    H154044   0.278   2.561  16.792 -1.1600 -0.0897 -1.1404
10851TIP3    H254045   0.382   2.646  16.722 -1.2778  0.7060 -0.3600
10852TIP3   OH254046   4.965   6.259   6.013  0.1394  0.7749  0.1861
10852TIP3    H154047   4.903   6.301   5.953 -0.6639  0.3321  0.6791
10852TIP3    H254048   5.031   6.220   5.956 -1.5442 -1.1523 -0.5993
10853TIP3   OH254049   6.040   2.048   1.902 -0.7396 -0.8388  0.4775
10853TIP3    H154050   6.042   1.959   1.936 -0.4747 -0.2765  1.9872
10853TIP3    H254051   5.990   2.041   1.820 -0.8651 -2.3310  0.6575
10854TIP3   OH254052   0.934   1.523  16.983  0.0430 -0.0801 -0.2567
10854TIP3    H154053   0.951   1.441  17.030 -0.0200  0.0950  0.0796
10854TIP3    H254054   0.974   1.510  16.897  2.5222  0.5440  0.6969
10855TIP3   OH254055   5.896   5.757  12.236  0.0316  0.3595 -0.6124
10855TIP3    H154056   5.980   5.730  12.200 -0.8309 -0.9363 -1.7689
10855TIP3    H254057   5.841   5.679  12.229 -0.9689  0.8713  1.0911
10856TIP3   OH254058   0.463   0.450   4.770  0.5576  0.1334 -0.4505
10856TIP3    H154059   0.393   0.450   4.705  0.6424 -1.6129 -0.5873
10856TIP3    H254060   0.543   0.460   4.719  0.4556  4.8470 -0.1426
10857TIP3   OH254061   1.291   5.412   3.230 -0.1129 -0.0536 -0.3427
10857TIP3    H154062   1.226   5.474   3.266  0.2670  0.0426  0.1910
10857TIP3    H254063   1.331   5.459   3.157 -0.8714 -0.2357 -0.8824
10858TIP3   OH254064   5.848   4.783  13.445 -0.3013  0.4218  0.4271
10858TIP3    H154065   5.831   4.806  13.354  2.3964 -0.9105 -0.5196
10858TIP3    H254066   5.915   4.846  13.473  0.5729 -0.6095  0.7073
10859TIP3   OH254067   2.608   1.232  12.147 -0.1179  0.2171  0.5086
10859TIP3    H154068   2.580   1.316  12.184  1.2865  0.4128  1.1910
10859TIP3    H254069   2.691   1.251  12.105 -1.2918 -0.1791 -2.1728
10860TIP3   OH254070   3.523   1.553   3.786 -0.0837 -0.2077 -0.0673
10860TIP3    H154071   3.469   1.621   3.747 -0.9066 -0.7796  0.0506
10860TIP3    H254072   3.546   1.496   3.713 -0.5984 -0.5977  0.0731
10861TIP3   OH254073   2.066   1.433   6.808  0.5052 -0.1813  0.6482
10861TIP3    H154074   2.051   1.452   6.715 -0.9473  0.7010  1.0326
10861TIP3    H254075   1.978   1.426   6.845  0.9082 -4.3270  1.2803
10862TIP3   OH254076   4.675   3.595   1.451 -0.2596  0.0785 -0.7334
10862TIP3    H154077   4.710   3.645   1.376 -0.5371  2.1048  0.4211
10862TIP3    H254078   4.637   3.661   1.508 -0.1162 -1.4210  1.1956
10863TIP3   OH254079   3.020   1.469   5.465  0.0436 -0.1996  0.3019
10863TIP3    H154080   3.048   1.380   5.487  0.2619 -0.5473 -1.3181
10863TIP3    H254081   2.933   1.477   5.505  0.0344 -1.1214  0.4861
10864TIP3   OH254082   3.436   1.833   1.750 -0.4145  0.0132  0.1340
10864TIP3    H154083   3.370   1.847   1.819 -1.3431  1.4849 -1.0005
10864TIP3    H254084   3.388   1.843   1.668  0.9859 -0.1309 -0.7370
10865TIP3   OH254085   5.029   5.750  13.677  0.4967 -0.4646  0.0184
10865TIP3    H154086   5.025   5.703  13.594 -0.4689 -0.1518 -0.1132
10865TIP3    H254087   5.000   5.839  13.657  0.0650 -0.4353  0.7201
10866TIP3   OH254088   2.260   1.956  13.498  0.0378  0.0867  0.6058
10866TIP3    H154089   2.167   1.976  13.496 -0.3819 -1.7459  0.0395
10866TIP3    H254090   2.268   1.885  13.561  0.7903 -0.9372 -0.6140
10867TIP3   OH254091   3.337   6.451  15.268  0.3392 -0.1427 -0.6768
10867TIP3    H154092   3.252   6.480  15.236  0.1309  0.1761  0.1557
10867TIP3    H254093   3.375   6.528  15.310  0.0799 -0.8647  0.9444
10868TIP3   OH254094   1.635   5.613   6.165 -0.1992 -0.5654 -0.5253
10868TIP3    H154095   1.586   5.616   6.083  0.8499 -1.7127 -1.2449
10868TIP3    H254096   1.573   5.641   6.232 -0.7127  1.6989 -1.8450
10869TIP3   OH254097   4.495   3.491  15.393  0.0663 -0.0535  0.1212
10869TIP3    H154098   4.527   3.491  15.483 -1.1716  0.0604  0.5794
10869TIP3    H254099   4.456   3.405  15.382  1.4594 -0.6118 -0.8011
10870TIP3   OH254100   4.389   6.105   3.767 -0.1500  0.1831 -0.5297
10870TIP3    H154101   4.341   6.188   3.758  0.2485  0.2461 -2.4442
10870TIP3    H254102   4.326   6.046   3.808 -0.6555  1.2435  0.2785
10871TIP3   OH254103   2.130   2.915  14.947 -0.1871 -0.2418  0.0921
10871TIP3    H154104   2.098   3.001  14.919 -0.4546 -0.0766  0.8950
10871TIP3    H254105   2.057   2.856  14.929 -0.1819 -0.2198 -0.0040
10872TIP3   OH254106   1.713   0.367   2.307  0.7691  0.2183  0.2081
10872TIP3    H154107   1.748   0.353   2.219  0.4773 -0.8808  0.2618
10872TIP3    H254108   1.772   0.319   2.364  1.0394  1.0493  0.6388
10873TIP3   OH254109   5.316   2.073  16.501  0.0765  0.4467 -0.3360
10873TIP3    H154110   5.277   2.059  16.414  0.1677 -3.0279  0.0456
10873TIP3    H254111   5.241   2.074  16.561  0.2166 -0.8831 -0.1230
10874TIP3   OH254112   1.757   6.528   2.060 -0.0712 -0.2109 -0.1260
10874TIP3    H154113   1.852   6.521   2.048  0.1440 -1.7526  1.9223
10874TIP3    H254114   1.747   6.595   2.128 -0.3076 -1.2439  0.8826
10875TIP3   OH254115   4.248   2.028  13.162  0.0510  0.0327 -0.0817
10875TIP3    H154116   4.310   1.984  13.104  0.6111  0.4596  0.1816
10875TIP3    H254117   4.176   2.055  13.104  0.1895 -0.3101 -0.4200
10876TIP3   OH254118   2.701   0.643   1.336 -0.0576 -0.3394  0.8692
10876TIP3    H154119   2.618   0.610   1.370 -1.5209  0.2635 -1.7877
10876TIP3    H254120   2.690   0.738   1.335 -0.3249 -0.3334 -1.5791
10877TIP3   OH254121   4.737   0.053   5.097 -0.5271  0.2034 -0.1298
10877TIP3    H154122   4.709  -0.038   5.089 -3.0023  0.8615  0.4047
10877TIP3    H254123   4.711   0.080   5.184  0.2524  1.4276 -0.2416
10878TIP3   OH254124   1.917   0.883  13.585 -0.5768  0.5800 -0.3322
10878TIP3    H154125   1.900   0.853  13.674  0.1036 -2.0074 -1.0051
10878TIP3    H254126   2.012   0.875  13.574 -0.8673 -1.2621 -1.9408
10879TIP3   OH254127   0.172   2.540   1.523 -0.2943  0.2437 -0.2749
10879TIP3    H154128   0.266   2.559   1.522 -0.2995  0.2862 -1.0335
10879TIP3    H254129   0.162   2.467   1.584  0.3163 -0.1507 -0.6344
10880TIP3   OH254130   3.547   0.230   6.019 -0.5495  0.0118  0.2332
10880TIP3    H154131   3.485   0.170   5.977 -0.4841  0.1202 -0.0200
10880TIP3    H254132   3.516   0.317   5.994 -2.0126  0.2279  2.4360
10881TIP3   OH254133   4.947   6.671   2.249 -0.6353 -0.1345 -0.1060
10881TIP3    H154134   5.040   6.694   2.249 -0.3660 -1.1835 -0.0673
10881TIP3    H254135   4.913   6.707   2.167  0.6083 -2.7664 -1.9319
10882TIP3   OH254136   4.981   1.078  10.759 -0.2789  0.4239 -0.4994
10882TIP3    H154137   4.986   1.167  10.725 -1.4272  0.6154 -0.1958
10882TIP3    H254138   4.959   1.023  10.684 -1.7323  0.6999 -0.2949
10883TIP3   OH254139   2.744   5.654   1.705 -0.1208 -0.4624 -0.7888
10883TIP3    H154140   2.786   5.688   1.784  0.3735 -0.0118 -1.2347
10883TIP3    H254141   2.736   5.560   1.720 -1.2545 -0.2046  0.3499
10884TIP3   OH254142   6.017   1.707   0.204 -0.2716  0.3168  0.2387
10884TIP3    H154143   5.998   1.658   0.123  0.3793  0.4950 -0.0256
10884TIP3    H254144   5.984   1.795   0.186 -0.5350  0.2384  0.3368
10885TIP3   OH254145   5.687   2.637   1.455  0.1086 -0.5539  0.5803
10885TIP3    H154146   5.755   2.676   1.400 -0.4934 -0.5332 -0.1773
10885TIP3    H254147   5.714   2.546   1.466  0.2027 -0.5756  0.1887
10886TIP3   OH254148   1.614   0.694   1.282  0.2265  0.0944  0.4600
10886TIP3    H154149   1.579   0.780   1.257 -0.3006 -0.0987  0.5360
10886TIP3    H254150   1.593   0.638   1.207 -2.5413 -0.8232  1.8072
10887TIP3   OH254151   4.785   3.095   4.375  0.2207 -0.2307 -0.2224
10887TIP3    H154152   4.714   3.159   4.383  0.2456 -0.1048 -0.9420
10887TIP3    H254153   4.862   3.148   4.355 -0.3759 -0.6323 -4.4519
10888TIP3   OH254154   0.734   5.407   3.985  0.3170  0.2150  0.6255
10888TIP3    H154155   0.694   5.378   4.067 -0.4040 -0.7962 -0.0689
10888TIP3    H254156   0.660   5.435   3.931  0.5940 -0.8448 -0.3456
10889TIP3   OH254157   6.197   2.857  14.370  0.0565 -0.0577  0.1626
10889TIP3    H154158   6.109   2.829  14.344  0.0411 -0.3704  0.5455
10889TIP3    H254159   6.246   2.863  14.288 -0.0927 -0.6724  0.0271
10890TIP3   OH254160   2.770   6.602   5.298 -0.0630  0.2539  0.1031
10890TIP3    H154161   2.752   6.650   5.217 -0.4704  0.4191  0.2895
10890TIP3    H254162   2.809   6.520   5.268  2.1564  1.3468 -0.1473
10891TIP3   OH254163   5.495   3.246   3.054 -0.0775 -0.0929  0.2600
10891TIP3    H154164   5.466   3.162   3.016  1.1256 -0.6809  0.5921
10891TIP3    H254165   5.545   3.221   3.131  1.9212  0.8267 -0.6903
10892TIP3   OH254166   5.162   3.769   2.954 -0.4851  0.2186  0.2266
10892TIP3    H154167   5.254   3.795   2.953 -0.9817  2.5253  2.9303
10892TIP3    H254168   5.161   3.688   3.005  0.0656  0.0318 -0.0498
10893TIP3   OH254169   1.027   5.488   4.583 -0.3893  0.0018 -0.1069
10893TIP3    H154170   0.998   5.554   4.520  0.1849  0.9334  0.5575
10893TIP3    H254171   1.027   5.535   4.667  2.5974  0.0065  0.0090
10894TIP3   OH254172   2.194   4.970  11.299 -0.0920 -0.7792 -0.3277
10894TIP3    H154173   2.260   5.015  11.245 -1.2115  1.3667 -0.0269
10894TIP3    H254174   2.114   4.974  11.247 -1.0405  0.7793  1.1548
10895TIP3   OH254175   1.721   0.618   0.340 -0.0320 -0.4167  0.1493
10895TIP3    H154176   1.673   0.661   0.410 -0.0019  2.6779 -1.5768
10895TIP3    H254177   1.789   0.568   0.385 -1.2120 -0.1463  2.3637
10896TIP3   OH254178   1.103   6.052  14.524 -1.1793 -0.2783 -0.3876
10896TIP3    H154179   1.025   6.044  14.578 -0.4862  2.5286  1.2390
10896TIP3    H254180   1.089   6.133  14.474  0.6328  0.2919 -0.0482
10897TIP3   OH254181   4.340   0.803  12.288  0.5857  0.1457  0.0066
10897TIP3    H154182   4.249   0.778  12.304 -0.2615  1.6394 -1.9861
10897TIP3    H254183   4.355   0.782  12.196  1.3849  2.2504 -0.4098
10898TIP3   OH254184   0.668   3.616   2.541 -0.2737 -0.4070 -0.0584
10898TIP3    H154185   0.705   3.533   2.511 -1.3208 -0.5130 -1.1162
10898TIP3    H254186   0.711   3.632   2.625 -0.3264 -2.2216  0.3697
10899TIP3   OH254187   5.247   6.375   0.394 -0.1993 -0.0568  0.3167
10899TIP3    H154188   5.332   6.342   0.422  0.5735  1.0234 -0.6492
10899TIP3    H254189   5.223   6.440   0.460 -0.3346 -0.4507  0.6556
10900TIP3   OH254190   4.713   4.480   0.537 -0.0541 -0.9692  0.8366
10900TIP3    H154191   4.796   4.445   0.505  0.2753 -0.7790  1.4601
10900TIP3    H254192   4.647   4.445   0.478  0.3931 -1.7184  0.7796
10901TIP3   OH254193   3.866   4.434   0.381  0.1080  0.1898  0.5513
10901TIP3    H154194   3.844   4.369   0.448  0.0583 -1.7516 -1.2308
10901TIP3    H254195   3.835   4.517   0.416  0.9166 -0.5783  3.3110
10902TIP3   OH254196   2.498   1.593  10.981 -0.3365 -0.8000  0.3082
10902TIP3    H154197   2.519   1.682  10.951  0.7316 -1.4849 -1.1165
10902TIP3    H254198   2.581   1.558  11.013 -0.7893 -1.2328  1.0416
10903TIP3   OH254199   0.997   4.870  14.868  0.4431  0.2473 -0.5459
10903TIP3    H154200   0.979   4.946  14.924  2.0754  1.6058 -1.7427
10903TIP3    H254201   0.984   4.794  14.926 -3.6695  1.1778  0.0488
10904TIP3   OH254202   3.510   2.663  12.631 -0.1768  0.1976 -0.9086
10904TIP3    H154203   3.478   2.675  12.542  0.1003  0.4128 -0.9781
10904TIP3    H254204   3.454   2.594  12.667 -0.5847  0.4250 -1.0973
10905TIP3   OH254205   0.475   5.334   2.200  0.4018 -0.1451 -0.1224
10905TIP3    H154206   0.480   5.258   2.258  0.0874  0.6700  0.9919
10905TIP3    H254207   0.388   5.370   2.216 -0.0797 -0.4689 -1.8420
10906TIP3   OH254208   0.077   6.730  15.567 -0.1292  0.5029 -0.0631
10906TIP3    H154209   0.134   6.803  15.542 -0.0033  0.2584 -0.4869
10906TIP3    H254210   0.048   6.692  15.484  0.4866 -0.4671  0.1479
10907TIP3   OH254211   6.324   6.509  13.856  0.1992  0.2371 -0.1666
10907TIP3    H154212   6.314   6.463  13.939 -1.0547 -2.5227 -1.7013
10907TIP3    H254213   6.408   6.479  13.822  0.1594  0.4134 -0.4217
10908TIP3   OH254214   3.729   6.713   1.228  0.4469  0.3399 -0.0126
10908TIP3    H154215   3.684   6.795   1.209  1.0309  0.4967 -0.7375
10908TIP3    H254216   3.787   6.698   1.153  1.1453 -0.1757  0.6069
10909TIP3   OH254217   3.435   4.224  12.278 -0.0043  0.9890 -0.0635
10909TIP3    H154218   3.390   4.146  12.246  2.8549 -0.2014 -1.6101
10909TIP3    H254219   3.428   4.286  12.206  0.0755  1.1077  0.0319
10910TIP3   OH254220   5.954   4.143   2.397  0.5538 -0.4864 -0.5014
10910TIP3    H154221   5.875   4.193   2.373  0.2492 -1.4375 -1.6034
10910TIP3    H254222   5.927   4.092   2.473  0.1694 -0.6310 -0.7292
10911TIP3   OH254223   4.349   2.327  14.185 -0.2661  0.0171 -0.0582
10911TIP3    H154224   4.337   2.290  14.273  1.9706 -1.8639 -0.4606
10911TIP3    H254225   4.416   2.394  14.196  3.4919 -3.2220 -0.8095
10912TIP3   OH254226   2.080   1.995  10.802 -0.3510 -0.1436 -0.0757
10912TIP3    H154227   2.082   1.902  10.779  0.6631 -0.5691  1.5681
10912TIP3    H254228   2.049   1.996  10.893 -0.2085  1.1270 -0.0307
10913TIP3   OH254229   3.768   6.687  16.414  0.5654 -0.3579  0.1125
10913TIP3    H154230   3.801   6.759  16.362  1.5443 -0.4836  0.5304
10913TIP3    H254231   3.673   6.699  16.416  0.7002  0.7867 -0.0063
10914TIP3   OH254232   1.467   5.721  10.443 -0.0583 -0.3618 -0.7651
10914TIP3    H154233   1.431   5.633  10.436 -2.3764  0.4474 -0.0802
10914TIP3    H254234   1.403   5.777  10.399  0.4632  1.1617  0.3194
10915TIP3   OH254235   5.590   2.316  12.848 -0.0446  0.4155  0.4849
10915TIP3    H154236   5.566   2.232  12.810  0.0467  1.4711 -2.1324
10915TIP3    H254237   5.684   2.324  12.832 -0.3613  1.7331 -0.9326
10916TIP3   OH254238   1.678   1.140   4.510 -0.0246 -0.0714  0.4623
10916TIP3    H154239   1.637   1.169   4.428 -0.0759 -0.0518  0.4947
10916TIP3    H254240   1.747   1.204   4.527 -1.0081  0.8229  1.2451
10917TIP3   OH254241   3.635   1.775  16.799  0.2369  0.0033  0.1834
10917TIP3    H154242   3.678   1.729  16.871 -0.2939 -1.3235 -0.3307
10917TIP3    H254243   3.585   1.708  16.754 -1.5700  1.2940  0.1538
10918TIP3   OH254244   1.886   5.988   5.126 -0.3330 -0.3076 -0.4863
10918TIP3    H154245   1.976   5.981   5.156 -0.1531 -0.9058 -1.1455
10918TIP3    H254246   1.834   5.958   5.201  0.1201 -1.9308 -0.7934
10919TIP3   OH254247   0.009   2.549  13.411 -0.7036 -0.5237  0.0244
10919TIP3    H154248   0.058   2.517  13.486  0.7270  1.3869 -0.0226
10919TIP3    H254249  -0.062   2.486  13.400 -0.8549 -0.9638  2.8470
10920TIP3   OH254250   2.348   2.381   1.458  0.3452 -0.7971  0.2248
10920TIP3    H154251   2.380   2.382   1.548  1.0167 -1.6984  0.0166
10920TIP3    H254252   2.408   2.439   1.411 -1.8727  2.2862  0.8860
10921TIP3   OH254253   6.781   2.336   5.471  0.2075 -0.3190 -0.0213
10921TIP3    H154254   6.806   2.414   5.520  0.1472 -0.5345  0.3569
10921TIP3    H254255   6.686   2.329   5.483 -0.1543  0.7511 -1.8213
10922TIP3   OH254256   2.333   2.375  12.270  0.5928  0.3406 -0.0803
10922TIP3    H154257   2.345   2.426  12.190  0.4190  0.5018 -0.0063
10922TIP3    H254258   2.322   2.285  12.239 -0.1641  0.4965 -0.2932
10923TIP3   OH254259   3.492   5.472   1.010 -0.6802  0.0996  0.1578
10923TIP3    H154260   3.576   5.426   1.012  0.1319  1.5460  0.1098
10923TIP3    H254261   3.515   5.564   1.002 -2.2254  0.7362  2.3377
10924TIP3   OH254262   4.548   5.728   3.962  0.2183 -0.3010  0.7125
10924TIP3    H154263   4.580   5.754   3.876 -1.9306  1.6982  0.4296
10924TIP3    H254264   4.618   5.754   4.022  0.2323  1.6463 -0.1002
10925TIP3   OH254265   0.791   2.329   4.068  0.1366 -0.2311  0.1113
10925TIP3    H154266   0.791   2.366   3.980  0.2762 -0.7962 -0.1326
10925TIP3    H254267   0.884   2.328   4.093  0.0608  0.3188  0.4390
10926TIP3   OH254268   2.371   2.318   6.354  0.4753  0.6750  0.3135
10926TIP3    H154269   2.316   2.352   6.425 -0.1530 -0.0453  0.1868
10926TIP3    H254270   2.451   2.287   6.397 -0.1678 -0.3514  0.8158
10927TIP3   OH254271   2.790   6.087   0.599  0.4798 -0.5352  0.0836
10927TIP3    H154272   2.742   6.053   0.523 -1.1139  0.6201  0.5179
10927TIP3    H254273   2.830   6.168   0.567  2.4284 -1.5808 -0.3329
10928TIP3   OH254274   5.972   2.951  16.520  0.0592  0.5092  0.2495
10928TIP3    H154275   5.906   2.884  16.505  0.6749 -0.1471  0.4231
10928TIP3    H254276   6.013   2.964  16.435 -0.3162  0.9499  0.1306
10929TIP3   OH254277   0.454   6.608  15.593 -0.3712  0.4929 -0.9622
10929TIP3    H154278   0.507   6.537  15.629 -0.1989  0.6170 -0.9707
10929TIP3    H254279   0.385   6.622  15.658 -1.3086 -0.7129 -1.6614
10930TIP3   OH254280   3.184   5.935   2.012  0.5873  0.4203  0.0781
10930TIP3    H154281   3.214   5.876   2.080  1.4934 -0.3154 -0.9284
10930TIP3    H254282   3.110   5.890   1.972  2.0301 -0.6673 -1.4968
10931TIP3   OH254283   0.903   2.612  11.445 -0.2748 -0.0065 -0.2519
10931TIP3    H154284   0.967   2.547  11.418  1.2646  0.2470  2.4566
10931TIP3    H254285   0.951   2.695  11.441 -1.4729  0.6668 -1.3177
10932TIP3   OH254286   3.636   3.010   2.965  0.2369  0.3531 -0.0689
10932TIP3    H154287   3.583   3.064   2.905 -0.7284  0.4206  0.8163
10932TIP3    H254288   3.599   3.028   3.051  1.4988  0.1176  0.5299
10933TIP3   OH254289   1.515   0.838   3.916 -0.0961  0.1763 -0.2617
10933TIP3    H154290   1.584   0.855   3.851  1.4555  1.8058  1.6930
10933TIP3    H254291   1.555   0.776   3.977 -1.3468 -0.9112 -0.5044
10934TIP3   OH254292   4.273   3.478  14.073 -0.1682 -0.6803  0.7145
10934TIP3    H154293   4.365   3.505  14.066  0.4845 -2.5148  1.4801
10934TIP3    H254294   4.234   3.503  13.989  0.6003  1.5400  0.9595
10935TIP3   OH254295   5.286   2.757   5.425  0.0461  0.4017  0.1865
10935TIP3    H154296   5.211   2.699   5.419  0.7960 -0.5227 -0.7182
10935TIP3    H254297   5.310   2.755   5.518 -0.3898 -0.1523  0.2946
10936TIP3   OH254298   6.647   2.509   2.067  0.2577 -0.1255 -0.0430
10936TIP3    H154299   6.671   2.599   2.043  0.5602 -0.1819  0.0493
10936TIP3    H254300   6.646   2.509   2.163 -3.1285  0.6985  0.0669
10937TIP3   OH254301   5.406   5.123  11.182  0.3389  0.0490  0.2507
10937TIP3    H154302   5.474   5.186  11.204  1.3470 -1.3727  1.4383
10937TIP3    H254303   5.335   5.176  11.147  1.7339  1.6602 -0.2709
10938TIP3   OH254304   0.269   1.415   3.791 -0.1097  0.3986  0.0537
10938TIP3    H154305   0.333   1.346   3.777  0.2977  0.3430  1.9985
10938TIP3    H254306   0.282   1.474   3.716 -1.0997 -2.0025 -2.1886
10939TIP3   OH254307   1.376   5.832  13.368  0.0206 -0.1747 -0.5411
10939TIP3    H154308   1.464   5.797  13.352  1.2540  2.9252 -1.1414
10939TIP3    H254309   1.355   5.804  13.457  1.8506 -0.5067 -0.1693
10940TIP3   OH254310   3.060   6.686   6.460 -0.1736  0.0798 -0.4395
10940TIP3    H154311   3.022   6.599   6.471  0.0578  0.0996  0.5489
10940TIP3    H254312   3.009   6.743   6.518 -0.6533  0.7154 -1.4523
10941TIP3   OH254313   1.469   2.811  16.107  0.0383  0.3212  0.0238
10941TIP3    H154314   1.501   2.883  16.052  0.8845 -0.7520 -0.9570
10941TIP3    H254315   1.382   2.838  16.133  0.4125  1.7903 -0.1560
10942TIP3   OH254316   5.723   4.579  13.826 -0.4230  0.5179  0.2674
10942TIP3    H154317   5.676   4.521  13.886 -0.4268  0.5954  0.3394
10942TIP3    H254318   5.778   4.633  13.883 -0.6705  0.8163  0.2239
10943TIP3   OH254319   6.447   1.855   1.698 -0.3158  0.4983  0.2394
10943TIP3    H154320   6.460   1.947   1.719  1.7332 -0.1406  2.2023
10943TIP3    H254321   6.410   1.817   1.778  1.5980 -0.8769  0.5434
10944TIP3   OH254322   0.677   6.212  16.172 -0.2396 -0.7124 -0.2034
10944TIP3    H154323   0.708   6.162  16.096  0.3862  0.5945 -0.8333
10944TIP3    H254324   0.757   6.243  16.215 -0.6144 -0.3129  0.2181
10945TIP3   OH254325   0.993   1.591  15.991 -0.6360 -0.1512 -0.1695
10945TIP3    H154326   1.073   1.547  15.962 -0.5242  0.2629 -0.5132
10945TIP3    H254327   0.922   1.540  15.952 -0.5051  0.0194 -0.6385
10946TIP3   OH254328   4.211   4.753   5.248  0.1718  0.2473  0.4341
10946TIP3    H154329   4.258   4.764   5.165 -0.0711  0.0748  0.2751
10946TIP3    H254330   4.127   4.717   5.224  0.2328 -0.1374  0.7909
10947TIP3   OH254331   4.249   5.984  12.424 -0.1010 -0.1566  0.4755
10947TIP3    H154332   4.264   6.046  12.495  1.1861 -1.2268  1.1933
10947TIP3    H254333   4.202   5.911  12.466 -1.1933  0.1022 -0.2508
10948TIP3   OH254334   2.299   5.805  11.350 -0.6023 -0.1305 -0.0901
10948TIP3    H154335   2.212   5.845  11.336 -0.0716  1.0421 -0.1765
10948TIP3    H254336   2.318   5.761  11.267 -1.3143 -0.8045  0.0928
10949TIP3   OH254337   4.764   5.754  12.609 -0.2753 -0.3470 -0.2797
10949TIP3    H154338   4.696   5.731  12.672  0.3562 -0.7164  0.2840
10949TIP3    H254339   4.721   5.812  12.546 -1.5729 -1.8904 -0.9085
10950TIP3   OH254340   4.807   5.661  13.827  0.1731 -0.2546 -0.0711
10950TIP3    H154341   4.855   5.583  13.854 -1.1340 -1.0474  0.0111
10950TIP3    H254342   4.873   5.715  13.782  1.2748 -1.0267  0.5658
10951TIP3   OH254343   3.216   6.044   3.310  0.0790  0.8668 -0.1533
10951TIP3    H154344   3.184   6.017   3.224 -0.1850  0.3515  0.1040
10951TIP3    H254345   3.294   5.990   3.325  0.9443  1.9319 -0.6631
10952TIP3   OH254346   3.300   3.533   5.715 -0.1472  0.3768 -0.2504
10952TIP3    H154347   3.323   3.580   5.795 -1.4027 -0.2523  0.5181
10952TIP3    H254348   3.216   3.491   5.736 -0.1115 -0.4260 -1.6395
10953TIP3   OH254349   0.629   6.783  16.458  0.1551  0.4287 -0.2026
10953TIP3    H154350   0.607   6.758  16.548 -0.3563  0.2773 -0.3623
10953TIP3    H254351   0.553   6.833  16.428 -0.2267 -0.5586 -0.9562
10954TIP3   OH254352   3.084   3.418  16.967 -0.1350 -0.0060  0.3662
10954TIP3    H154353   3.117   3.455  17.049 -1.1299  0.5016  0.5490
10954TIP3    H254354   3.072   3.325  16.985 -0.0239  0.0395  0.6835
10955TIP3   OH254355   0.213   5.741  16.460 -0.1529  0.3642 -0.1336
10955TIP3    H154356   0.181   5.829  16.442 -1.6365  0.4675  2.5107
10955TIP3    H254357   0.307   5.751  16.469 -0.3983  1.9039  1.0818
10956TIP3   OH254358   3.850   1.174  15.546 -0.2770  0.3647  0.0552
10956TIP3    H154359   3.926   1.231  15.553  1.7711 -2.1264 -0.2857
10956TIP3    H254360   3.853   1.121  15.626 -1.2219 -0.2742 -0.3151
10957TIP3   OH254361   1.859   4.863   1.022  0.1442  0.0614  0.2485
10957TIP3    H154362   1.790   4.805   0.991 -0.4437  0.8933 -0.0114
10957TIP3    H254363   1.940   4.823   0.991 -0.3257 -0.0396 -0.8787
10958TIP3   OH254364   5.148   6.001   2.318  0.0794 -0.0633  0.1251
10958TIP3    H154365   5.173   5.910   2.306  0.3955  0.0428 -0.0487
10958TIP3    H254366   5.138   6.035   2.229 -2.1449 -0.4839  0.1638
10959TIP3   OH254367   5.405   3.522   6.825  0.1561  0.3188  0.3922
10959TIP3    H154368   5.421   3.583   6.753 -0.5192 -0.5571 -0.5247
10959TIP3    H254369   5.311   3.527   6.841  0.4984  1.6218  2.2686
10960TIP3   OH254370   6.390   2.284   4.159 -0.3720  0.4881  0.1982
10960TIP3    H154371   6.327   2.250   4.095  0.7048 -0.2651 -0.4817
10960TIP3    H254372   6.476   2.260   4.124  0.4749  3.7288 -0.2458
10961TIP3   OH254373   5.228   2.701   2.180  0.2764 -0.7888 -0.0958
10961TIP3    H154374   5.208   2.704   2.274 -1.2917 -1.7438 -0.3739
10961TIP3    H254375   5.286   2.776   2.166  0.9470 -0.9202  1.7188
10962TIP3   OH254376   1.940   3.634  11.245  0.2478 -0.5545  0.2429
10962TIP3    H154377   1.965   3.542  11.229  1.5169 -0.2561  0.3864
10962TIP3    H254378   2.010   3.667  11.302  0.7584  0.9982 -1.2313
10963TIP3   OH254379   5.060   0.910   0.968  0.4635  0.2534  0.4211
10963TIP3    H154380   5.104   0.955   1.040  0.3598  0.4252  0.3757
10963TIP3    H254381   5.117   0.835   0.948 -0.5208 -1.0128  2.0556
10964TIP3   OH254382   6.019   0.168   3.324  0.0295 -0.2030  0.1981
10964TIP3    H154383   6.013   0.236   3.392 -0.6790  0.4427 -0.4847
10964TIP3    H254384   6.100   0.122   3.344 -0.3656 -0.3059  1.7331
10965TIP3   OH254385   2.060   0.824  16.363  1.0320  0.1876 -0.3436
10965TIP3    H154386   2.148   0.863  16.358  1.5324 -0.9068 -0.4560
10965TIP3    H254387   2.072   0.735  16.330 -0.6126  0.7717 -2.8157
10966TIP3   OH254388   2.854   3.463   6.651 -0.4247  0.4115 -0.0491
10966TIP3    H154389   2.850   3.551   6.614  0.6842  0.2133 -0.6665
10966TIP3    H254390   2.810   3.471   6.736  1.0523  1.9493  0.6214
10967TIP3   OH254391   0.956   4.236   0.284 -0.1062 -0.0890 -0.0505
10967TIP3    H154392   0.879   4.214   0.336 -1.1027 -2.1061 -2.1980
10967TIP3    H254393   0.951   4.331   0.274 -0.9143  0.1204  1.8838
10968TIP3   OH254394   3.498   3.099  15.572 -0.7631 -0.9780  0.2102
10968TIP3    H154395   3.550   3.179  15.568  1.4770 -2.2858  1.1172
10968TIP3    H254396   3.414   3.126  15.608 -0.7781  1.2336 -1.2978
10969TIP3   OH254397   4.242   5.287  17.262 -0.0144 -0.1542 -0.1203
10969TIP3    H154398   4.233   5.382  17.258 -2.3147 -0.2300  1.0488
10969TIP3    H254399   4.181   5.255  17.195 -0.0098 -0.7964  0.1814
10970TIP3   OH254400   1.136   2.511   1.453  0.3730  0.1028  0.7540
10970TIP3    H154401   1.150   2.434   1.508  0.2414  0.1029  0.7895
10970TIP3    H254402   1.072   2.483   1.388  2.1075 -0.5576 -0.7587
10971TIP3   OH254403   3.362   4.859   2.957  0.3632 -0.3234 -0.0586
10971TIP3    H154404   3.397   4.893   3.040 -0.3567 -1.4522  0.7378
10971TIP3    H254405   3.397   4.918   2.890 -1.0729  2.2147  1.2570
10972TIP3   OH254406   0.772   5.041  10.908 -0.0405  0.2423  0.1448
10972TIP3    H154407   0.720   5.041  10.828 -0.9429  0.4720  0.7213
10972TIP3    H254408   0.729   5.104  10.965  0.5226 -0.0033  0.8601
10973TIP3   OH254409   0.125   1.184   0.482 -0.1540 -0.4664 -0.3938
10973TIP3    H154410   0.034   1.209   0.466 -0.1064 -0.4625 -0.6608
10973TIP3    H254411   0.143   1.216   0.570 -0.5668 -0.9155 -0.1372
10974TIP3   OH254412   3.828   1.840  12.840 -0.3147 -0.3887  0.1345
10974TIP3    H154413   3.819   1.935  12.838 -0.5828 -0.4085  0.3016
10974TIP3    H254414   3.885   1.819  12.767  1.8864  0.1375  1.6048
10975TIP3   OH254415   3.374   2.961   2.778 -0.1418  0.1018 -0.0027
10975TIP3    H154416   3.280   2.944   2.787 -0.0438 -0.3168  0.2587
10975TIP3    H254417   3.407   2.886   2.729  0.2494 -0.3269  0.9029
10976TIP3   OH254418   5.372   0.101   1.949  0.3001 -0.8998  0.1124
10976TIP3    H154419   5.451   0.049   1.963  0.3701 -0.9210 -0.3302
10976TIP3    H254420   5.359   0.148   2.031 -0.4614 -2.5254  0.9784
10977TIP3   OH254421   3.699   1.853   0.376  0.2315 -0.4135  0.1441
10977TIP3    H154422   3.669   1.765   0.400  2.5270 -1.4114 -0.3423
10977TIP3    H254423   3.696   1.854   0.280  1.3769 -0.4520  0.0906
10978TIP3   OH254424   0.361   0.442  16.317 -0.3720 -0.4713 -0.7514
10978TIP3    H154425   0.448   0.413  16.341 -0.8463 -1.3932 -0.0885
10978TIP3    H254426   0.314   0.450  16.400 -0.7019  0.7874 -1.0273
10979TIP3   OH254427   0.524   3.877   0.355 -0.0143 -0.8638  0.0909
10979TIP3    H154428   0.570   3.934   0.416  0.3442 -1.2663  0.1922
10979TIP3    H254429   0.572   3.886   0.273 -1.9436  1.6853 -0.9316
10980TIP3   OH254430   4.679   3.800   5.264 -0.6671 -0.0450  0.0931
10980TIP3    H154431   4.715   3.806   5.176  2.1319  1.8918  1.2228
10980TIP3    H254432   4.682   3.706   5.285 -4.0707 -1.0016 -2.7167
10981TIP3   OH254433   1.317   4.224   3.154  0.3284  0.3065 -0.6848
10981TIP3    H154434   1.286   4.304   3.197  0.2066  0.7607 -1.5907
10981TIP3    H254435   1.403   4.207   3.193  0.5642  1.1575 -0.8114
10982TIP3   OH254436   0.397   5.984  13.332 -0.2007 -0.1142 -0.9022
10982TIP3    H154437   0.461   5.972  13.262  0.7000  0.7516 -0.2528
10982TIP3    H254438   0.368   6.074  13.323  1.5334  0.7366  1.0961
10983TIP3   OH254439   0.600   6.185   0.630 -0.2118  0.2931  0.1459
10983TIP3    H154440   0.669   6.119   0.630 -0.5314 -0.0988  1.7992
10983TIP3    H254441   0.526   6.143   0.675 -1.5624  0.6898 -1.6013
10984TIP3   OH254442   4.655   0.436  15.576 -0.2371 -0.1236 -0.2768
10984TIP3    H154443   4.576   0.383  15.568  0.4527 -0.8940 -3.3779
10984TIP3    H254444   4.643   0.507  15.513  0.4560  1.2970  1.1171
10985TIP3   OH254445   1.286   0.072   3.539  0.6556 -0.1637  0.3218
10985TIP3    H154446   1.362   0.130   3.541  0.8472 -0.3202 -1.3635
10985TIP3    H254447   1.248   0.079   3.627  1.7156  1.1105  0.7035
10986TIP3   OH254448   2.087   2.727   4.692  0.1781  0.1699 -0.3213
10986TIP3    H154449   2.125   2.785   4.627 -0.6952  2.7251  1.3064
10986TIP3    H254450   2.038   2.785   4.750 -3.0369 -2.4714 -0.0944
10987TIP3   OH254451   2.786   1.842  15.559 -0.3077  0.1215 -0.7803
10987TIP3    H154452   2.770   1.937  15.554  0.0995  0.1360 -2.0749
10987TIP3    H254453   2.719   1.810  15.620  0.3989  1.4147  0.7573
10988TIP3   OH254454   6.647   1.525   1.697  0.0239  0.1048 -0.1676
10988TIP3    H154455   6.618   1.562   1.781  2.5438  0.5524  0.5884
10988TIP3    H254456   6.622   1.590   1.632 -0.3009  0.6550  0.4941
10989TIP3   OH254457   4.939   3.287  16.054  0.2058  0.2466 -0.0578
10989TIP3    H154458   4.848   3.304  16.029  0.1234 -0.3437 -0.1824
10989TIP3    H254459   4.939   3.295  16.150 -0.5118 -1.9851  0.1948
10990TIP3   OH254460   1.031   3.000   4.044  0.4524 -0.1874  0.1813
10990TIP3    H154461   1.013   2.937   3.975  0.4109  0.2341 -0.1938
10990TIP3    H254462   0.945   3.038   4.065  0.3968 -0.6129  0.7615
10991TIP3   OH254463   3.278   0.314  13.500  0.2574 -0.0248  0.4622
10991TIP3    H154464   3.346   0.366  13.457  0.4085  0.6919  1.5366
10991TIP3    H254465   3.282   0.340  13.592 -1.5218  0.0870  0.5435
10992TIP3   OH254466   3.565   0.187   0.146 -0.2999  0.4589 -0.0066
10992TIP3    H154467   3.631   0.125   0.178 -2.5248 -1.3917  1.3476
10992TIP3    H254468   3.615   0.264   0.120  2.7218 -1.8652 -1.9484
10993TIP3   OH254469   0.449   4.966   5.809 -0.3394  0.1143  0.0674
10993TIP3    H154470   0.527   4.951   5.756 -1.0309  2.8125 -1.9541
10993TIP3    H254471   0.415   4.879   5.828  1.9037 -1.0498 -0.9023
10994TIP3   OH254472   5.684   3.688  13.209  0.4307 -0.0741 -0.2142
10994TIP3    H154473   5.701   3.595  13.197  0.8170  0.1670 -1.7682
10994TIP3    H254474   5.692   3.726  13.121  0.8473  1.5130  0.4654
10995TIP3   OH254475   6.188   6.497   5.101  0.1209  0.2919 -0.7861
10995TIP3    H154476   6.246   6.434   5.143  0.4011 -0.3634 -2.1234
10995TIP3    H254477   6.108   6.448   5.082  0.5691  0.1437 -2.3886
10996TIP3   OH254478   6.513   5.737   2.224 -0.5795  0.0323  0.0194
10996TIP3    H154479   6.477   5.681   2.156  0.4577 -1.3586  0.5721
10996TIP3    H254480   6.608   5.724   2.218 -0.2470  2.1727 -0.1874
10997TIP3   OH254481   1.778   3.429  15.032 -0.3056  0.2501 -0.4826
10997TIP3    H154482   1.818   3.510  15.001 -0.9743 -0.1205 -2.4532
10997TIP3    H254483   1.731   3.455  15.111  0.8599  1.4147 -0.1388
10998TIP3   OH254484   4.629   3.825   0.149  0.4616 -0.4253  0.3450
10998TIP3    H154485   4.674   3.831   0.233  1.0443 -0.9081  0.0662
10998TIP3    H254486   4.682   3.766   0.096 -0.0301 -0.3192 -0.2857
10999TIP3   OH254487   0.666   5.873  12.488 -0.1005 -0.2066  0.1423
10999TIP3    H154488   0.730   5.838  12.551  2.4577 -0.3678 -2.3450
10999TIP3    H254489   0.715   5.940  12.440 -1.4562 -1.0876 -2.6374
11000TIP3   OH254490   4.888   1.559   1.160  0.2774 -0.2572  0.0608
11000TIP3    H154491   4.842   1.511   1.091  1.9261  1.1336 -2.1451
11000TIP3    H254492   4.974   1.517   1.165  0.7561  0.7028  0.0677
11001TIP3   OH254493   2.479   5.545  14.707 -0.1389  0.3628 -0.6333
11001TIP3    H154494   2.515   5.633  14.716 -2.7377  1.5087 -0.6803
11001TIP3    H254495   2.489   5.506  14.794 -0.5667  1.3895 -0.1019
11002TIP3   OH254496   1.706   6.141   6.051  0.5039 -0.6699  0.1060
11002TIP3    H154497   1.801   6.136   6.057  0.4896 -1.8070 -0.2887
11002TIP3    H254498   1.677   6.049   6.049 -0.5291 -0.3523 -0.7791
11003TIP3   OH254499   0.894   0.348  11.857  0.0416  0.5071  0.0995
11003TIP3    H154500   0.920   0.330  11.767  0.2286 -1.2462  0.4780
11003TIP3    H254501   0.962   0.406  11.891  1.2849 -0.7768 -0.1511
11004TIP3   OH254502   2.930   5.383  12.542  0.3052  0.3866  0.1550
11004TIP3    H154503   2.893   5.469  12.564  1.8267  1.1573 -0.1287
11004TIP3    H254504   2.907   5.370  12.450 -1.7966 -0.5547  0.7578
11005TIP3   OH254505   1.746   1.740  11.078 -0.3753  0.3760 -0.1530
11005TIP3    H154506   1.799   1.812  11.044 -0.0053  0.3267  0.3181
11005TIP3    H254507   1.789   1.661  11.044 -0.1121  0.3341  0.2693
11006TIP3   OH254508   2.196   0.041  15.943 -0.2125  0.2196  0.1775
11006TIP3    H154509   2.169   0.080  16.027  1.2692  1.4774  0.1107
11006TIP3    H254510   2.198   0.114  15.882  0.2607 -0.4157 -0.5833
11007TIP3   OH254511   5.169   6.795  14.435 -0.2744  0.4379  0.3873
11007TIP3    H154512   5.091   6.817  14.485 -0.4488  0.7715 -0.0340
11007TIP3    H254513   5.156   6.835  14.349 -0.3112 -0.7485 -0.1835
11008TIP3   OH254514   2.899   5.471   3.468  0.5171  0.5903 -0.0778
11008TIP3    H154515   2.984   5.441   3.437 -0.4247 -1.4268 -0.8664
11008TIP3    H254516   2.841   5.396   3.457 -0.8181  1.0553  2.8644
11009TIP3   OH254517   0.655   6.415  11.470 -0.0216  0.1786 -0.3154
11009TIP3    H154518   0.627   6.337  11.422  2.5421 -0.7563 -0.4566
11009TIP3    H254519   0.673   6.480  11.402 -1.7761  0.8177 -0.2190
11010TIP3   OH254520   5.827   2.093  14.461  0.4585 -0.7006 -0.9143
11010TIP3    H154521   5.782   2.120  14.541  2.8948 -1.2834  0.7413
11010TIP3    H254522   5.822   1.997  14.463 -0.8169 -0.7155 -2.3605
11011TIP3   OH254523   3.417   1.582   0.820  0.1341  0.6064 -0.7539
11011TIP3    H154524   3.402   1.558   0.912  2.9660 -0.9383 -0.6033
11011TIP3    H254525   3.330   1.574   0.780 -1.0314  0.4863  1.5754
11012TIP3   OH254526   6.063   6.131  11.804  0.1802 -0.5070 -0.1808
11012TIP3    H154527   6.052   6.049  11.853 -0.7092 -1.5137 -1.9864
11012TIP3    H254528   6.042   6.108  11.713 -3.2279  2.3864 -0.3293
11013TIP3   OH254529   2.695   2.681   5.538  0.4667  0.1628  0.3022
11013TIP3    H154530   2.676   2.691   5.632 -0.9338 -0.5018  0.1244
11013TIP3    H254531   2.790   2.688   5.531  0.4598  2.5995  1.4762
11014TIP3   OH254532   2.666   2.719  11.882 -0.0109  0.1139  0.4380
11014TIP3    H154533   2.740   2.726  11.942 -0.5302  0.2356  1.0680
11014TIP3    H254534   2.686   2.781  11.812 -0.4190  1.5966  1.5773
11015TIP3   OH254535   5.917   3.629  14.483  0.2780 -0.0417  0.4750
11015TIP3    H154536   5.961   3.667  14.407  0.9926  1.1333  1.4515
11015TIP3    H254537   5.979   3.640  14.555  0.4358 -2.8673  0.8934
11016TIP3   OH254538   1.515   6.291  14.657 -0.4156  0.3740  0.1226
11016TIP3    H154539   1.464   6.212  14.678 -2.0377  1.6348  1.1594
11016TIP3    H254540   1.605   6.268  14.678 -0.9127 -1.0609  0.8308
11017TIP3   OH254541   4.653   0.023   0.197  0.3013 -0.0142 -0.3115
11017TIP3    H154542   4.708   0.005   0.273  0.6145  0.8119 -0.3317
11017TIP3    H254543   4.711   0.067   0.135 -0.0723 -0.2453 -0.8344
11018TIP3   OH254544   4.592   1.098   1.017  0.8016  0.3250 -0.4891
11018TIP3    H154545   4.613   1.026   1.076  0.6524 -1.0263 -2.0137
11018TIP3    H254546   4.559   1.055   0.938  0.4559  2.0869 -1.3436
11019TIP3   OH254547   4.425   0.334  15.052  0.4030  0.0206 -0.4550
11019TIP3    H154548   4.470   0.296  15.128  0.7674  2.4666  0.6311
11019TIP3    H254549   4.476   0.303  14.977  0.8036 -1.4022  0.3658
11020TIP3   OH254550   6.020   2.454  15.670 -0.3993  0.2316 -0.0624
11020TIP3    H154551   6.096   2.501  15.635  0.8831  0.1499  2.4102
11020TIP3    H254552   5.945   2.505  15.640  0.8127  2.2313  0.1353
11021TIP3   OH254553   4.485   1.045   0.465  0.6119  0.0339 -0.2455
11021TIP3    H154554   4.476   1.075   0.374  0.9217  1.1445  0.0665
11021TIP3    H254555   4.546   0.971   0.460  0.9579  0.3483 -0.9020
11022TIP3   OH254556   2.396   4.724   1.516  0.3038  0.1485 -0.6703
11022TIP3    H154557   2.461   4.654   1.529  1.6259  1.1200 -1.7667
11022TIP3    H254558   2.439   4.786   1.458 -0.9115  1.7885  0.1050
11023TIP3   OH254559   0.378   1.545  14.589 -0.4248  0.3719  0.0189
11023TIP3    H154560   0.304   1.593  14.627  0.6348  1.5358  0.6922
11023TIP3    H254561   0.381   1.463  14.639  1.6534  2.3196  3.5412
11024TIP3   OH254562   6.771   4.088   3.603  0.4452 -0.4567 -0.5508
11024TIP3    H154563   6.759   4.005   3.557 -0.4351 -0.9394  0.5005
11024TIP3    H254564   6.685   4.110   3.637  0.7428  0.7178 -0.4875
11025TIP3   OH254565   5.253   3.965  11.995 -0.3746 -0.5203  0.0402
11025TIP3    H154566   5.259   3.959  12.090  2.0582 -1.2008 -0.0818
11025TIP3    H254567   5.160   3.954  11.975 -0.8214 -1.1226  2.2762
11026TIP3   OH254568   5.592   4.039   4.659 -0.2151 -0.1429 -0.0076
11026TIP3    H154569   5.636   4.032   4.744  1.1787  1.6389 -0.5138
11026TIP3    H254570   5.592   4.133   4.640  0.6453 -0.5674 -2.5252
11027TIP3   OH254571   6.100   0.001  13.905 -0.5155  0.0809 -0.1622
11027TIP3    H154572   6.100  -0.082  13.953  0.9022  1.1221  1.7677
11027TIP3    H254573   6.192   0.017  13.885 -0.8626  0.7996 -1.3053
11028TIP3   OH254574   4.439   2.799   2.644 -0.0013  0.5663 -0.0383
11028TIP3    H154575   4.445   2.726   2.704 -0.0215 -0.2821 -1.0398
11028TIP3    H254576   4.403   2.871   2.696 -1.1325 -0.4798  0.6554
11029TIP3   OH254577   3.746   0.199   3.264 -0.4174  0.1329 -0.7373
11029TIP3    H154578   3.833   0.239   3.262  0.6070 -1.9422 -0.4425
11029TIP3    H254579   3.745   0.141   3.188 -1.2722 -0.4107 -0.3219
11030TIP3   OH254580   5.736   2.278   3.887  0.0645  0.0141  0.3609
11030TIP3    H154581   5.734   2.367   3.922  1.2645  0.4539 -0.5925
11030TIP3    H254582   5.803   2.233   3.939  2.4710  0.9130 -1.7531
11031TIP3   OH254583   5.142   2.129  13.984  0.6007 -0.2430 -0.0904
11031TIP3    H154584   5.071   2.182  14.020  0.9920  0.1607  0.1036
11031TIP3    H254585   5.100   2.047  13.958 -0.1474  0.4093 -1.0143
11032TIP3   OH254586   4.695   6.239  12.206 -0.1158  0.1828 -0.6844
11032TIP3    H154587   4.764   6.297  12.238 -1.4748  1.1087  0.6452
11032TIP3    H254588   4.734   6.151  12.212  0.7152  0.6160  0.7133
11033TIP3   OH254589   0.829   3.402   5.308 -0.0596  0.1205 -0.4017
11033TIP3    H154590   0.812   3.495   5.295  0.2988  0.2121 -0.2207
11033TIP3    H254591   0.922   3.392   5.288 -0.3170 -0.3789 -1.4320
11034TIP3   OH254592   0.558   4.910  13.646  0.0129 -0.0026  0.0084
11034TIP3    H154593   0.589   5.000  13.651  3.0763 -0.9057 -1.0431
11034TIP3    H254594   0.550   4.883  13.738 -0.2273  1.0838  0.3283
11035TIP3   OH254595   5.750   5.887   2.884 -0.1593 -0.3059 -0.3421
11035TIP3    H154596   5.785   5.886   2.973  1.5753 -2.2142 -0.9616
11035TIP3    H254597   5.818   5.931   2.832 -0.7524 -0.0116 -0.8880
11036TIP3   OH254598   6.081   6.283   1.107 -0.0137  0.0446  0.1464
11036TIP3    H154599   6.103   6.265   1.016 -0.6249  0.9189 -0.1853
11036TIP3    H254600   6.022   6.359   1.103 -2.9601 -2.0203  0.9743
11037TIP3   OH254601   3.141   6.607   3.711 -0.6544 -0.2898  0.5871
11037TIP3    H154602   3.178   6.640   3.629  0.2673 -1.1508  0.6300
11037TIP3    H254603   3.051   6.639   3.712 -1.6651 -2.6084 -2.1960
11038TIP3   OH254604   0.366   3.322   5.256  0.6118  0.4621 -0.4621
11038TIP3    H154605   0.348   3.355   5.169  2.8440 -0.5784 -1.3916
11038TIP3    H254606   0.439   3.260   5.244  0.5367 -0.2200  2.0279
11039TIP3   OH254607   3.528   1.497  16.144 -0.0472 -0.1289 -0.1903
11039TIP3    H154608   3.556   1.454  16.225 -1.3518  0.8454  0.8247
11039TIP3    H254609   3.508   1.424  16.084  1.0734 -0.8566  0.2816
11040TIP3   OH254610   5.528   4.052  11.139 -0.3930 -0.0887 -0.1631
11040TIP3    H154611   5.521   4.145  11.160  0.1377 -0.1054  0.1165
11040TIP3    H254612   5.564   4.012  11.219  1.2049 -0.2312 -0.9001
11041TIP3   OH254613   4.895   5.221   0.052 -0.1905 -0.0955 -0.1670
11041TIP3    H154614   4.912   5.315   0.041 -0.3187  0.0777  1.0446
11041TIP3    H254615   4.965   5.179   0.001  0.3265  0.6490 -0.0991
11042TIP3   OH254616   5.733   6.621   5.126  0.1186 -0.0898  0.1696
11042TIP3    H154617   5.641   6.616   5.152  0.8502 -0.1336  3.0450
11042TIP3    H254618   5.761   6.530   5.118  0.2146 -0.0850  0.4601
11043TIP3   OH254619   3.067   0.046  12.455 -0.6742  0.1086 -0.0124
11043TIP3    H154620   3.089   0.121  12.510 -0.4392 -0.7639  1.1206
11043TIP3    H254621   2.975   0.057  12.433 -0.4992  1.0048 -0.3278
11044TIP3   OH254622   0.639   1.981   2.059 -0.4165 -0.1339  0.0919
11044TIP3    H154623   0.699   1.907   2.063  0.7629  0.7696 -0.4657
11044TIP3    H254624   0.571   1.953   1.998 -0.9958 -1.4368  1.2575
11045TIP3   OH254625   2.600   5.519  11.466 -0.0755  0.1530 -0.7986
11045TIP3    H154626   2.575   5.587  11.403 -0.4276  0.0264 -0.7984
11045TIP3    H254627   2.690   5.496  11.443  0.5127  1.5178 -0.0154
11046TIP3   OH254628   1.884   3.214   1.588 -0.6866  0.5167 -0.2153
11046TIP3    H154629   1.910   3.188   1.676 -0.3174  0.4266 -0.3462
11046TIP3    H254630   1.931   3.153   1.530 -0.1187  1.2103 -0.5116
11047TIP3   OH254631   5.741   6.539  16.010  0.3925 -0.1261  0.5407
11047TIP3    H154632   5.823   6.492  16.026  0.8052  0.5267  0.3907
11047TIP3    H254633   5.764   6.606  15.946 -0.6025 -0.8876 -0.6580
11048TIP3   OH254634   5.527   3.984   4.250 -0.2203  0.4969 -0.7246
11048TIP3    H154635   5.516   4.058   4.190  1.2452  0.5051 -1.0137
11048TIP3    H254636   5.610   4.001   4.294 -0.4867 -0.3412  0.1311
11049TIP3   OH254637   2.250   4.738   1.196 -0.4414 -0.2421 -0.4350
11049TIP3    H154638   2.329   4.789   1.214 -0.3163 -0.5643 -0.0506
11049TIP3    H254639   2.277   4.647   1.208 -0.9165 -0.3414 -0.1067
11050TIP3   OH254640   4.974   1.571   0.729 -0.7003 -0.1711 -0.1901
11050TIP3    H154641   5.042   1.528   0.780 -0.5488 -2.3769 -2.0765
11050TIP3    H254642   5.011   1.656   0.707  1.2162 -1.0695 -0.6329
11051TIP3   OH254643   1.655   0.550  15.547 -0.0541  0.7843  0.3231
11051TIP3    H154644   1.713   0.526  15.618  0.4442  0.9544 -0.0198
11051TIP3    H254645   1.607   0.626  15.579 -2.6954 -1.3924  1.9808
11052TIP3   OH254646   4.956   3.108  12.345  0.1850 -0.0944 -0.1548
11052TIP3    H154647   4.904   3.155  12.410 -1.1750 -0.8078 -0.6801
11052TIP3    H254648   4.898   3.101  12.269  0.7327 -1.6704 -0.4597
11053TIP3   OH254649   1.424   0.052   3.061 -0.3447 -0.2123  0.0547
11053TIP3    H154650   1.501   0.006   3.027  2.0328  3.1115  0.5184
11053TIP3    H254651   1.363   0.054   2.986  1.3829 -0.1105 -1.4132
11054TIP3   OH254652   2.905   1.685   4.706  0.2301  0.0911  0.2121
11054TIP3    H154653   2.822   1.733   4.701  0.2051 -0.0336 -0.7200
11054TIP3    H254654   2.892   1.609   4.649  0.8121 -0.1943  0.4552
11055TIP3   OH254655   1.560   3.991  13.096 -0.4677  0.1134 -0.6832
11055TIP3    H154656   1.622   3.918  13.084 -0.1732  0.5790 -2.1854
11055TIP3    H254657   1.514   3.969  13.177  2.0844  0.0667  0.8804
11056TIP3   OH254658   6.334   5.073   3.239  0.4572 -0.3135  0.5380
11056TIP3    H154659   6.359   5.165   3.225  2.1472 -0.4179  2.3417
11056TIP3    H254660   6.343   5.032   3.153 -1.2009  1.3345 -0.5097
11057TIP3   OH254661   1.552   5.809   5.090  0.1267  0.4231  0.7418
11057TIP3    H154662   1.496   5.862   5.033  1.9884  0.5078 -1.1407
11057TIP3    H254663   1.545   5.850   5.176 -1.9178  0.9845  0.3510
11058TIP3   OH254664   4.198   3.866   1.541  0.7725  0.3548  0.0100
11058TIP3    H154665   4.134   3.807   1.579  0.6871  0.5711  0.2013
11058TIP3    H254666   4.278   3.813   1.533  1.4747  0.8807  2.5449
11059TIP3   OH254667   2.392   1.685  14.625  0.0799  0.0184  0.2111
11059TIP3    H154668   2.353   1.753  14.571  0.7391  0.5802  0.4238
11059TIP3    H254669   2.437   1.627  14.563 -2.6976 -1.8073 -0.2554
11060TIP3   OH254670   6.265   1.766  13.273  0.6325 -0.7344  0.4088
11060TIP3    H154671   6.297   1.842  13.322  0.9679 -1.8603  1.9655
11060TIP3    H254672   6.343   1.713  13.256  0.2190 -1.3495  0.4108
11061TIP3   OH254673   4.479   6.083  15.485  0.4838 -0.4556  0.4412
11061TIP3    H154674   4.486   6.102  15.579  1.9414  1.9194 -0.0859
11061TIP3    H254675   4.561   6.039  15.464 -0.2823 -1.9499  0.4248
11062TIP3   OH254676   1.807   5.158   5.468 -0.2720  0.2323 -0.3764
11062TIP3    H154677   1.816   5.253   5.472  0.2982  0.1912 -0.6987
11062TIP3    H254678   1.740   5.138   5.534 -1.2847  0.9684 -1.1567
11063TIP3   OH254679   4.024   4.346  15.260 -0.4403 -0.7648  0.4186
11063TIP3    H154680   4.056   4.326  15.347 -1.3837 -0.2447  0.9055
11063TIP3    H254681   3.979   4.266  15.232 -1.5784 -0.4016  1.1158
11064TIP3   OH254682   3.466   1.714  15.963  0.3297 -0.7953 -0.1964
11064TIP3    H154683   3.431   1.680  15.881  0.4889 -0.9303 -0.2105
11064TIP3    H254684   3.506   1.638  16.005 -0.3927 -0.8780  0.3488
11065TIP3   OH254685   3.226   5.195  12.862  0.2999 -0.3093  0.4594
11065TIP3    H154686   3.213   5.111  12.906 -0.7228  0.1041  0.9547
11065TIP3    H254687   3.211   5.261  12.930 -0.9321  0.3273 -0.4076
11066TIP3   OH254688   2.758   4.132  15.229 -0.1621  0.0292 -0.1737
11066TIP3    H154689   2.686   4.119  15.168 -0.6528  0.2212  0.3525
11066TIP3    H254690   2.782   4.224  15.219 -0.3594  0.1057  0.0429
11067TIP3   OH254691   6.429   3.104  15.974  0.5366 -0.2161  0.0578
11067TIP3    H154692   6.428   3.134  16.065  1.5994  1.0259 -0.3104
11067TIP3    H254693   6.369   3.030  15.973 -2.5839  2.0753  0.9640
11068TIP3   OH254694   1.453   0.831   6.319 -0.1220 -0.6575  0.8020
11068TIP3    H154695   1.528   0.809   6.264  0.5394 -1.2625  1.9027
11068TIP3    H254696   1.418   0.746   6.347 -0.8236 -0.3695  0.8177
11069TIP3   OH254697   3.685   1.575   1.246  0.5744 -0.0917 -0.3115
11069TIP3    H154698   3.608   1.616   1.284 -0.5916 -1.3293 -1.2617
11069TIP3    H254699   3.756   1.595   1.308 -0.2383  2.0005  0.0161
11070TIP3   OH254700   2.015   1.931   5.792  0.1537  0.7101 -0.1489
11070TIP3    H154701   2.062   2.014   5.783 -1.5734  1.8514  0.7568
11070TIP3    H254702   2.062   1.885   5.861  1.7350  0.4276 -1.3322
11071TIP3   OH254703   1.933   2.690   1.900  0.0190 -0.2194  0.2848
11071TIP3    H154704   1.918   2.756   1.968 -2.1798 -0.7105  0.3722
11071TIP3    H254705   1.863   2.626   1.914 -1.0917  0.1104 -2.9122
11072TIP3   OH254706   3.048   6.353  16.678  0.6591  0.4460 -0.1652
11072TIP3    H154707   3.054   6.444  16.708 -0.0498  0.6673 -0.6717
11072TIP3    H254708   3.098   6.303  16.742  1.4254  1.2482 -0.1153
11073TIP3   OH254709   4.634   1.410   2.840 -0.0165  0.1849 -0.2858
11073TIP3    H154710   4.599   1.498   2.855 -2.6934 -0.8720  0.1910
11073TIP3    H254711   4.699   1.398   2.910 -1.0072  1.0829  0.8282
11074TIP3   OH254712   0.639   3.467  17.334  0.0249 -0.3523 -0.1221
11074TIP3    H154713   0.695   3.501  17.264  0.5881 -0.7981  0.1004
11074TIP3    H254714   0.558   3.518  17.327  0.7261  0.8235  0.0165
11075TIP3   OH254715   0.519   6.683   2.875 -0.0754  0.0458  0.2888
11075TIP3    H154716   0.428   6.705   2.895  0.1704  0.6246  0.8180
11075TIP3    H254717   0.567   6.763   2.894  0.7609 -0.7243  1.5231
11076TIP3   OH254718   6.360   2.026   1.205 -0.0440 -0.7116 -0.3306
11076TIP3    H154719   6.425   1.990   1.145  0.9235 -0.6455  0.6501
11076TIP3    H254720   6.307   2.085   1.151  1.2197 -0.1380 -0.9691
11077TIP3   OH254721   0.113   0.069  12.353 -0.6181 -0.1906 -0.4330
11077TIP3    H154722   0.049   0.019  12.404  1.2340 -1.9302  0.3413
11077TIP3    H254723   0.163   0.117  12.419 -0.8842  0.9046 -1.0054
11078TIP3   OH254724   3.965   2.084   6.043 -0.1832  0.1729  0.0787
11078TIP3    H154725   3.957   2.090   6.139  0.1877  1.2264  0.0512
11078TIP3    H254726   3.906   2.151   6.010 -1.8287 -1.4878 -0.5169
11079TIP3   OH254727   1.251   5.569   5.390 -0.1379  0.6258  0.3373
11079TIP3    H154728   1.233   5.519   5.470  0.2811  0.4454  0.3217
11079TIP3    H254729   1.164   5.596   5.359 -0.2515  1.8352  1.5649
11080TIP3   OH254730   4.346   3.667   1.006  0.0300 -0.8602  0.8239
11080TIP3    H154731   4.323   3.728   0.936  2.0918 -1.1574 -0.1777
11080TIP3    H254732   4.371   3.723   1.079 -0.4067 -0.5302  0.7228
11081TIP3   OH254733   4.742   0.521   6.059  0.2938  0.1243  0.2278
11081TIP3    H154734   4.772   0.564   6.139 -0.3631 -0.0129  0.5589
11081TIP3    H254735   4.669   0.465   6.088 -2.8477  3.2131 -0.9742
11082TIP3   OH254736   2.222   2.899  15.487 -0.1658  0.3413 -0.4666
11082TIP3    H154737   2.284   2.871  15.555 -0.6790  0.1498 -0.0724
11082TIP3    H254738   2.136   2.874  15.521 -0.3764 -0.4035 -1.5005
11083TIP3   OH254739   5.774   5.557   0.611 -0.2510 -0.2589 -0.4500
11083TIP3    H154740   5.724   5.630   0.648 -1.2545 -0.6519 -0.9636
11083TIP3    H254741   5.862   5.591   0.599 -0.3319  0.3913  0.7054
11084TIP3   OH254742   3.689   1.133   6.066  0.1127  0.1375  0.1658
11084TIP3    H154743   3.600   1.128   6.100  0.1139 -0.9749  0.0476
11084TIP3    H254744   3.745   1.130   6.143  0.0619 -0.1766  0.1933
11085TIP3   OH254745   6.108   6.380   0.458 -0.0627 -0.1993  0.4023
11085TIP3    H154746   6.043   6.321   0.496  1.0184  0.2478  3.2320
11085TIP3    H254747   6.184   6.325   0.440 -0.4114 -0.3257 -0.7248
11086TIP3   OH254748   5.446   1.186   5.909  0.0216 -0.0450  0.0725
11086TIP3    H154749   5.414   1.269   5.875 -0.5198 -1.2267 -2.5040
11086TIP3    H254750   5.476   1.207   5.998 -1.8667  2.4707  0.2417
11087TIP3   OH254751   6.041   0.040  12.603 -0.0278 -0.3137  0.4736
11087TIP3    H154752   5.957   0.020  12.562  0.1109  0.0934 -0.0169
11087TIP3    H254753   6.062  -0.038  12.655 -0.1381 -0.8980 -0.3460
11088TIP3   OH254754   1.171   4.754  13.808  0.2591 -0.6217 -0.3232
11088TIP3    H154755   1.088   4.742  13.761 -0.2782 -1.5153  0.7976
11088TIP3    H254756   1.209   4.667  13.812  1.7421 -0.0749 -1.6242
11089TIP3   OH254757   3.814   5.654  17.063 -0.0080 -0.3729  0.2577
11089TIP3    H154758   3.722   5.678  17.074  0.0068 -0.4980  0.6541
11089TIP3    H254759   3.833   5.675  16.971 -0.6226 -1.0189 -0.0260
11090TIP3   OH254760   2.832   4.376  15.057  0.2569  0.4250 -0.2489
11090TIP3    H154761   2.742   4.372  15.022 -0.5678  0.0068  1.7697
11090TIP3    H254762   2.845   4.468  15.080  0.0965  0.3827  0.0209
11091TIP3   OH254763   1.923   1.729  11.871  0.6607  0.5884 -0.0129
11091TIP3    H154764   1.942   1.819  11.845  0.4342  0.6286 -0.0373
11091TIP3    H254765   1.843   1.706  11.823 -1.1347  1.4558  2.3757
11092TIP3   OH254766   5.738   3.404   2.061 -0.2000 -0.0465 -0.0185
11092TIP3    H154767   5.736   3.466   1.987 -2.1783 -1.2608 -1.0731
11092TIP3    H254768   5.652   3.414   2.102  0.5808  0.0305  1.6824
11093TIP3   OH254769   6.457   0.222   5.624  0.0197  0.7063  0.3975
11093TIP3    H154770   6.509   0.297   5.597 -1.4258  1.6018 -0.0039
11093TIP3    H254771   6.410   0.195   5.545 -0.4833  0.2194  0.8504
11094TIP3   OH254772   6.652   0.440   5.047 -0.5098 -0.0569 -0.2296
11094TIP3    H154773   6.645   0.533   5.069  2.1292  0.5939 -1.7488
11094TIP3    H254774   6.701   0.401   5.119  0.6135  0.2803 -0.8003
11095TIP3   OH254775   4.605   1.864  15.547  0.0697  0.5513  0.3527
11095TIP3    H154776   4.672   1.931  15.537  1.6816 -1.0729 -0.4284
11095TIP3    H254777   4.575   1.873  15.637  1.0526  1.5880  0.5995
11096TIP3   OH254778   0.080   3.191  12.221  0.3994  0.3278 -0.3225
11096TIP3    H154779   0.052   3.120  12.279 -1.1096 -0.5988 -2.0670
11096TIP3    H254780   0.165   3.161  12.187  0.7628  0.3623  0.5268
11097TIP3   OH254781   6.344   4.849  16.043  0.2360  0.3648  0.3600
11097TIP3    H154782   6.291   4.919  16.004 -1.0715 -0.0372  1.3761
11097TIP3    H254783   6.361   4.878  16.132 -0.7372 -0.8092  0.9533
11098TIP3   OH254784   3.521   5.985   0.018  0.5728 -0.0586 -0.1757
11098TIP3    H154785   3.616   5.972   0.021  0.5955  0.1776  0.2097
11098TIP3    H254786   3.486   5.900  -0.008  0.8922 -0.1409 -0.3409
11099TIP3   OH254787   0.698   3.921   5.204 -0.6557  0.4735  0.3258
11099TIP3    H154788   0.666   3.919   5.114  2.8365 -1.4915 -1.0910
11099TIP3    H254789   0.774   3.979   5.201 -0.4210  0.2973  1.9657
11100TIP3   OH254790   4.417   6.438   2.962  0.3387  0.5468 -0.3061
11100TIP3    H154791   4.492   6.379   2.972 -1.5071 -1.8034  1.0197
11100TIP3    H254792   4.428   6.503   3.031  1.4627  0.6171 -0.5372
11101TIP3   OH254793   6.315   0.356   3.691  0.3771 -0.2533 -0.2129
11101TIP3    H154794   6.328   0.368   3.785 -1.5557 -1.3683  0.2684
11101TIP3    H254795   6.403   0.346   3.655  1.1856  0.6662  1.3798
11102TIP3   OH254796   5.854   5.056  12.527  0.3197  0.3506  0.0801
11102TIP3    H154797   5.847   4.961  12.541 -0.7526  0.5221  0.8516
11102TIP3    H254798   5.936   5.067  12.479 -0.0975 -1.0750 -1.0443
11103TIP3   OH254799   2.800   1.484  11.263  0.0110  0.0163 -0.2856
11103TIP3    H154800   2.863   1.438  11.207 -0.4596  0.5116 -1.2451
11103TIP3    H254801   2.726   1.424  11.271 -0.0508  0.0723 -0.4437
11104TIP3   OH254802   6.408   6.110  12.834  0.5482  0.3911  0.3040
11104TIP3    H154803   6.426   6.201  12.811  0.3474  0.0774 -1.1380
11104TIP3    H254804   6.322   6.092  12.796  1.3782 -0.9319 -1.0334
11105TIP3   OH254805   6.731   1.656   3.237  0.2234 -0.4150  0.5511
11105TIP3    H154806   6.674   1.588   3.273 -0.1571 -1.4713 -1.8037
11105TIP3    H254807   6.818   1.635   3.270 -0.3941 -0.0635  2.4792
11106TIP3   OH254808   3.610   1.510  14.413  0.3987  0.3071  0.0637
11106TIP3    H154809   3.677   1.441  14.411 -0.2195 -0.2900 -0.2095
11106TIP3    H254810   3.571   1.503  14.500 -0.4179 -0.4340 -0.3420
11107TIP3   OH254811   3.849   6.544  12.787  0.1767  0.1909  0.1365
11107TIP3    H154812   3.798   6.625  12.796 -0.0260 -0.0010  0.7713
11107TIP3    H254813   3.871   6.540  12.694 -0.1131  0.7941  0.0341
11108TIP3   OH254814   1.281   1.408   1.182 -0.2337 -0.1039 -0.0502
11108TIP3    H154815   1.375   1.390   1.194 -0.1549  0.5775  0.3772
11108TIP3    H254816   1.238   1.339   1.233  0.0874  1.9736  3.3229
11109TIP3   OH254817   5.258   5.008   3.723 -0.2507 -0.4041  0.4720
11109TIP3    H154818   5.184   4.948   3.712 -0.3300 -0.4050  1.0005
11109TIP3    H254819   5.234   5.063   3.798 -1.3905  2.1097 -1.6008
11110TIP3   OH254820   5.791   0.563   4.421 -0.0735  0.0278 -0.4662
11110TIP3    H154821   5.855   0.629   4.396  1.8874 -1.9683 -1.0571
11110TIP3    H254822   5.772   0.516   4.339 -2.8833  0.9455 -0.4652
11111TIP3   OH254823   3.542   0.679   2.532  0.4909 -0.1617 -0.7397
11111TIP3    H154824   3.554   0.751   2.594  1.8466 -0.6232 -0.4229
11111TIP3    H254825   3.450   0.655   2.540  0.9243 -1.2387  2.2793
11112TIP3   OH254826   6.655   6.273  16.908  0.5682  0.3171  0.3143
11112TIP3    H154827   6.723   6.206  16.895 -1.2235 -1.4785 -0.4243
11112TIP3    H254828   6.574   6.223  16.918 -0.3073  2.1583  4.8180
11113TIP3   OH254829   4.219   6.637   0.986 -0.1577  0.3812  0.7143
11113TIP3    H154830   4.256   6.584   0.915 -2.0936 -2.0268  1.3458
11113TIP3    H254831   4.290   6.694   1.014  1.1817  0.1721 -1.9745
11114TIP3   OH254832   4.464   1.527  12.950 -0.1812  0.3617 -0.0247
11114TIP3    H154833   4.369   1.541  12.958 -0.1893 -0.1869  0.9946
11114TIP3    H254834   4.497   1.532  13.040  0.4781 -1.3087 -0.1280
11115TIP3   OH254835   1.336   3.316  13.932  0.1213 -0.0211 -0.1561
11115TIP3    H154836   1.281   3.277  13.864 -0.1494  0.0982 -0.0073
11115TIP3    H254837   1.275   3.335  14.004  0.2360  0.7208 -0.2468
11116TIP3   OH254838   2.107   5.080  16.036 -0.0196  0.3670 -0.4460
11116TIP3    H154839   2.114   5.130  15.956 -0.1206 -0.6830 -1.1359
11116TIP3    H254840   2.145   4.994  16.015  4.2788  1.3844  1.9003
11117TIP3   OH254841   0.218   5.436   2.209  0.4324 -0.1934 -0.0183
11117TIP3    H154842   0.172   5.377   2.269 -1.7814  2.7591  1.5090
11117TIP3    H254843   0.170   5.519   2.217  2.9215  1.6573 -2.4535
11118TIP3   OH254844   0.779   0.398   0.204 -0.1140 -0.4868 -0.8635
11118TIP3    H154845   0.818   0.386   0.118  2.9932  1.0645  0.1684
11118TIP3    H254846   0.825   0.474   0.240 -0.9404 -1.3610  2.3343
11119TIP3   OH254847   0.154   0.033   2.498 -0.3075 -0.0912  0.2543
11119TIP3    H154848   0.132  -0.020   2.421 -2.5587 -1.2578  1.6040
11119TIP3    H254849   0.102   0.112   2.489  0.2246  0.2512  0.1000
11120TIP3   OH254850   0.815   4.218   6.087 -0.1548  0.4441 -0.1626
11120TIP3    H154851   0.882   4.152   6.103  0.7221  1.1442 -0.8579
11120TIP3    H254852   0.741   4.191   6.142  1.5468  1.0029  2.5899
11121TIP3   OH254853   5.945   3.876   3.976  0.7469 -0.0329  0.9924
11121TIP3    H154854   5.915   3.899   3.889 -0.6457  0.1598  1.4975
11121TIP3    H254855   6.040   3.866   3.967  0.8869  1.8638 -0.1216
11122TIP3   OH254856   4.771   0.351   0.690  0.5113  0.4670  0.1350
11122TIP3    H154857   4.843   0.358   0.627 -0.5015 -0.4222 -1.1844
11122TIP3    H254858   4.695   0.327   0.636 -1.0771  2.6003  1.2754
11123TIP3   OH254859   5.904   0.667  11.411 -0.1533  0.4943  0.3653
11123TIP3    H154860   5.872   0.578  11.393  0.9111  0.3086 -0.7125
11123TIP3    H254861   5.946   0.661  11.497  1.4513 -0.4859 -0.4559
11124TIP3   OH254862   4.532   2.741   5.312 -0.0913 -0.2335 -0.1051
11124TIP3    H154863   4.582   2.664   5.285 -1.4938 -1.1834 -0.1429
11124TIP3    H254864   4.456   2.705   5.358 -1.0644  1.1064 -0.5859
11125TIP3   OH254865   0.288   6.622   5.433 -0.3553  0.5272 -0.4494
11125TIP3    H154866   0.253   6.563   5.500 -0.7156  0.0329 -1.0641
11125TIP3    H254867   0.358   6.571   5.392 -1.2793  0.1486 -1.6122
11126TIP3   OH254868   1.214   2.407  13.009 -0.0530 -0.3733 -0.0541
11126TIP3    H154869   1.236   2.483  12.955 -0.0757 -1.2136 -1.2868
11126TIP3    H254870   1.298   2.372  13.038 -0.0011 -0.4150 -0.2558
11127TIP3   OH254871   4.020   4.850   4.913 -0.3046 -0.6561 -0.0261
11127TIP3    H154872   4.109   4.825   4.938 -0.6608 -1.5820  0.3627
11127TIP3    H254873   4.023   4.859   4.818  0.0579 -1.2884 -0.0751
11128TIP3   OH254874   0.302   5.145   5.458  0.1122 -0.2109 -0.1598
11128TIP3    H154875   0.242   5.137   5.384  1.0590  0.1599 -0.9944
11128TIP3    H254876   0.387   5.165   5.418  0.3181  1.6882  1.1128
11129TIP3   OH254877   4.836   6.120  14.488 -0.3632  0.3433 -0.0230
11129TIP3    H154878   4.822   6.026  14.493 -0.7539  0.3172 -1.3798
11129TIP3    H254879   4.931   6.130  14.478 -0.4542  0.0233 -1.2557
11130TIP3   OH254880   1.086   6.439  15.013 -0.0345 -0.4444  0.2217
11130TIP3    H154881   1.025   6.458  14.942 -0.1717 -3.2117 -0.5461
11130TIP3    H254882   1.157   6.391  14.970  0.7164 -0.7070  1.7028
11131TIP3   OH254883   4.655   6.300  13.712 -0.1814 -0.4510 -0.3731
11131TIP3    H154884   4.610   6.264  13.636 -0.4177 -1.3524  0.1816
11131TIP3    H254885   4.688   6.224  13.760 -0.4439  0.0692  0.6776
11132TIP3   OH254886   6.154   5.774   2.484 -0.6852  0.1143 -0.0753
11132TIP3    H154887   6.241   5.784   2.522 -0.3649  2.2857 -1.2018
11132TIP3    H254888   6.109   5.713   2.542  1.9724 -2.1542 -0.1712
11133TIP3   OH254889   0.667   5.815   3.594  0.3703 -0.5796  0.7463
11133TIP3    H154890   0.748   5.802   3.545  0.7751  0.3114  1.1444
11133TIP3    H254891   0.659   5.736   3.648  1.1491 -0.5444  0.9335
11134TIP3   OH254892   3.967   5.609   2.011 -0.2709  0.2994  0.4920
11134TIP3    H154893   4.053   5.566   2.006 -1.1015 -1.6882  1.9133
11134TIP3    H254894   3.914   5.563   1.946 -0.7922  0.1618  1.0125
11135TIP3   OH254895   1.232   4.262   2.403  0.2022 -0.2031  0.5113
11135TIP3    H154896   1.169   4.292   2.468  0.7860  1.1618  0.4751
11135TIP3    H254897   1.315   4.259   2.450  0.8315  1.7991 -0.3773
11136TIP3   OH254898   6.738   5.197  17.337 -0.2536 -0.2284 -0.5264
11136TIP3    H154899   6.785   5.280  17.337 -1.8924  0.7404  0.5914
11136TIP3    H254900   6.743   5.166  17.246  0.3946  1.0662 -0.9478
11137TIP3   OH254901   4.003   4.314   4.476  0.2480  0.0943  0.0032
11137TIP3    H154902   4.055   4.240   4.444  0.7122  0.7870 -0.9077
11137TIP3    H254903   3.923   4.312   4.424 -0.1339 -0.2613  0.5820
11138TIP3   OH254904   5.757   5.538  15.840  0.0947 -0.1101  0.4140
11138TIP3    H154905   5.727   5.467  15.784  1.7759 -2.1696  1.9678
11138TIP3    H254906   5.701   5.533  15.918  0.6176 -0.1319  0.7926
11139TIP3   OH254907   4.674   1.033   1.675 -0.1244 -0.3014 -0.2447
11139TIP3    H154908   4.632   1.018   1.759 -1.3714 -0.5869 -0.8948
11139TIP3    H254909   4.762   0.998   1.685 -0.4541 -0.8707  0.7479
11140TIP3   OH254910   6.729   6.804   0.105  0.4065 -0.0923 -0.0886
11140TIP3    H154911   6.651   6.824   0.054  0.5589 -0.3376 -0.4279
11140TIP3    H254912   6.782   6.883   0.101  0.7201 -0.3321 -0.8844
11141TIP3   OH254913   2.147   0.905   6.531 -0.2110  0.6504  0.0082
11141TIP3    H154914   2.163   0.965   6.604 -0.0245  1.1522 -0.4320
11141TIP3    H254915   2.053   0.910   6.515 -0.4436 -0.3859  0.9883
11142TIP3   OH254916   1.400   0.532   6.748 -0.3023  0.7814 -0.5405
11142TIP3    H154917   1.321   0.529   6.694 -0.5546 -2.6929 -0.2028
11142TIP3    H254918   1.368   0.527   6.838  0.2765  0.9794 -0.3172
11143TIP3   OH254919   6.575   0.536   5.474 -0.5277 -0.2757  0.2711
11143TIP3    H154920   6.530   0.561   5.555 -0.5263  0.5854  0.0170
11143TIP3    H254921   6.644   0.602   5.464  0.2289 -1.0565  0.1840
11144TIP3   OH254922   0.037   0.150   1.821 -0.4432 -0.3054  0.7749
11144TIP3    H154923  -0.057   0.167   1.815 -0.2589  1.8478  2.5549
11144TIP3    H254924   0.072   0.226   1.868  2.2424 -0.9121 -0.0544
11145TIP3   OH254925   2.097   6.455   2.735 -0.2365 -0.1408  0.0780
11145TIP3    H154926   2.184   6.460   2.774 -0.2430 -3.1407  0.6810
11145TIP3    H254927   2.112   6.459   2.641  0.3214  1.3760  0.2093
11146TIP3   OH254928   5.082   0.771  10.440 -0.2446  0.2842 -0.0228
11146TIP3    H154929   5.121   0.684  10.426 -0.7521  0.2065 -1.0627
11146TIP3    H254930   5.145   0.832  10.403 -1.3342  0.1134 -2.4045
11147TIP3   OH254931   5.204   1.479   1.199 -0.2603  0.3352 -0.4586
11147TIP3    H154932   5.294   1.503   1.179  0.4781 -0.8233  1.2771
11147TIP3    H254933   5.211   1.412   1.267 -2.4235 -0.0344 -0.5213
11148TIP3   OH254934   2.042   3.519  16.803 -0.6668 -0.0425 -0.2599
11148TIP3    H154935   1.974   3.453  16.790  1.7491 -2.9027  0.3851
11148TIP3    H254936   2.124   3.469  16.806  1.4986  3.1277 -0.6936
11149TIP3   OH254937   0.913   0.864  14.381  0.3611  0.5271 -0.2494
11149TIP3    H154938   0.962   0.796  14.335 -0.1184  0.7160 -1.0699
11149TIP3    H254939   0.978   0.932  14.400  0.3788  0.9230 -1.6202
11150TIP3   OH254940   0.854   2.054   5.510  0.5115  0.1549  0.2113
11150TIP3    H154941   0.789   2.067   5.441  0.1062 -1.7035  0.1990
11150TIP3    H254942   0.914   2.129   5.501 -0.7344  1.0818 -0.7619
11151TIP3   OH254943   2.574   6.764   2.752 -0.3885 -0.3560  0.2999
11151TIP3    H154944   2.486   6.777   2.786  0.0135 -1.3903  1.8166
11151TIP3    H254945   2.615   6.850   2.757 -0.9590 -0.1036  0.6363
11152TIP3   OH254946   5.217   0.564  13.954  0.0321  0.4202 -0.1169
11152TIP3    H154947   5.177   0.489  13.909  0.9399  0.6949 -1.4434
11152TIP3    H254948   5.171   0.569  14.037 -3.0439  0.9903 -1.7069
11153TIP3   OH254949   6.279   5.181  12.451  0.1044 -0.0952 -0.4283
11153TIP3    H154950   6.202   5.125  12.439  0.1495 -0.6824  1.6378
11153TIP3    H254951   6.243   5.269  12.458 -0.2508 -0.2110 -0.7566
11154TIP3   OH254952   6.354   0.325   1.359 -0.3615  0.1515  0.3275
11154TIP3    H154953   6.297   0.384   1.409  0.4144  2.5939 -1.4620
11154TIP3    H254954   6.436   0.373   1.350  0.6285 -1.6019 -0.5261
11155TIP3   OH254955   4.704   1.104   2.615  0.2055  0.2652 -0.1738
11155TIP3    H154956   4.627   1.100   2.671  0.0891 -1.5875 -0.4099
11155TIP3    H254957   4.698   1.026   2.559  2.5819 -0.3099  0.2484
11156TIP3   OH254958   2.987   5.635   0.572 -0.2044  0.1210  0.5382
11156TIP3    H154959   3.000   5.712   0.517 -1.1371  0.6135  0.9870
11156TIP3    H254960   3.063   5.579   0.553 -0.4435  0.3213 -1.1425
11157TIP3   OH254961   4.766   3.051  14.909  0.1123 -0.0998 -0.7583
11157TIP3    H154962   4.694   3.070  14.968  0.7382 -0.8878  0.2997
11157TIP3    H254963   4.844   3.086  14.953  0.7724 -1.8216 -0.4394
11158TIP3   OH254964   0.637   0.300   4.446 -0.3882 -0.5247  0.4740
11158TIP3    H154965   0.594   0.238   4.505  0.0725 -0.0534  1.3305
11158TIP3    H254966   0.624   0.386   4.488 -0.7670 -0.0642 -0.5414
11159TIP3   OH254967   4.783   2.210  17.306 -0.1359  0.3317 -0.1132
11159TIP3    H154968   4.742   2.297  17.302 -0.3149  0.2191 -0.7404
11159TIP3    H254969   4.797   2.195  17.400 -1.6673  0.3173  0.1393
11160TIP3   OH254970   0.820   1.434   5.536 -0.5752 -0.1259  0.5964
11160TIP3    H154971   0.816   1.406   5.445 -1.5777 -0.0528  0.5979
11160TIP3    H254972   0.901   1.397   5.570 -1.0209 -1.5931  0.1360
11161TIP3   OH254973   0.603   4.760   1.764  0.9366  0.1481  0.0677
11161TIP3    H154974   0.545   4.787   1.692  1.5203 -0.8016 -0.7774
11161TIP3    H254975   0.629   4.843   1.806  1.2275  0.7850 -1.3117
11162TIP3   OH254976   4.476   3.539  11.595 -0.0551  0.1857 -0.2821
11162TIP3    H154977   4.396   3.509  11.551 -2.6104  0.4779  3.6393
11162TIP3    H254978   4.543   3.476  11.569 -2.2572 -1.7807 -1.6083
11163TIP3   OH254979   3.349   0.432  15.829  0.3062 -0.4403 -0.4465
11163TIP3    H154980   3.347   0.484  15.910  0.8443 -0.4923 -0.3931
11163TIP3    H254981   3.407   0.359  15.849 -1.7395 -2.0021  0.0093
11164TIP3   OH254982   5.455   5.432   5.751 -0.2738 -0.5788  0.0029
11164TIP3    H154983   5.441   5.503   5.815 -0.2121 -0.2151 -0.3818
11164TIP3    H254984   5.385   5.443   5.687  0.7771  0.2857 -1.0673
11165TIP3   OH254985   4.343   6.331   1.202 -0.6384  0.6414  0.0684
11165TIP3    H154986   4.429   6.291   1.192 -1.9436 -2.5737  0.2859
11165TIP3    H254987   4.307   6.332   1.113 -0.7351  1.0946  0.1103
11166TIP3   OH254988   0.993   2.340  16.664 -0.1395  0.2619 -0.2693
11166TIP3    H154989   1.029   2.253  16.679  0.3957  0.7453  1.6629
11166TIP3    H254990   0.900   2.331  16.684  0.3302  0.5862  2.5295
11167TIP3   OH254991   2.354   2.880  14.497 -0.4216  0.2028  0.1461
11167TIP3    H154992   2.277   2.823  14.490  0.1568 -0.7171  0.9826
11167TIP3    H254993   2.421   2.835  14.446  0.6252 -0.9611  2.3864
11168TIP3   OH254994   5.362   4.350   6.009  0.7842  0.4372 -0.0259
11168TIP3    H154995   5.371   4.312   5.922  1.6406  0.2702  0.1228
11168TIP3    H254996   5.418   4.296   6.065  1.4705  1.4780  0.3240
11169TIP3   OH254997   5.541   4.486  12.048  0.7370 -0.2438 -0.0602
11169TIP3    H154998   5.600   4.557  12.021 -0.9058  0.6563 -1.5072
11169TIP3    H254999   5.513   4.511  12.136  0.1754  0.9362 -0.5551
11170TIP3   OH255000   6.068   2.994   0.604 -0.2542 -0.2031 -0.0801
11170TIP3    H155001   6.129   2.957   0.540 -0.2635 -0.4701  0.0620
11170TIP3    H255002   6.103   2.967   0.689 -0.5362 -0.3116  0.0046
11171TIP3   OH255003   6.452   4.466   0.956 -0.1825 -0.4652 -0.0313
11171TIP3    H155004   6.419   4.427   0.875 -0.6469  2.5107 -1.3979
11171TIP3    H255005   6.464   4.391   1.015 -0.5908 -2.6647 -2.5395
11172TIP3   OH255006   5.008   6.391   4.151  0.1536  0.1100 -0.1583
11172TIP3    H155007   4.926   6.347   4.174  0.1487 -0.6166 -1.4814
11172TIP3    H255008   5.054   6.401   4.234 -0.3085 -1.4835  0.3306
11173TIP3   OH255009   3.883   4.204   3.302 -0.5373 -0.1828  0.1121
11173TIP3    H155010   3.796   4.242   3.309 -0.5952 -0.0867 -0.9128
11173TIP3    H255011   3.941   4.280   3.289 -0.1616 -0.1638  1.6950
11174TIP3   OH255012   0.829   3.680   5.313 -0.2116 -0.0779 -0.2680
11174TIP3    H155013   0.765   3.747   5.289  0.1739  0.5230  0.3551
11174TIP3    H255014   0.914   3.720   5.293  0.0335 -0.2904  0.3261
11175TIP3   OH255015   0.006   4.946  16.446 -0.3275 -0.4333 -0.0024
11175TIP3    H155016  -0.050   5.014  16.483  0.8337  2.5441 -3.1918
11175TIP3    H255017   0.077   4.937  16.509 -0.8188  0.8610  0.7844
11176TIP3   OH255018   6.080   5.391  17.348  0.1527 -0.1075  0.0304
11176TIP3    H155019   6.026   5.418  17.274 -0.9531 -1.2801  0.3681
11176TIP3    H255020   6.120   5.473  17.379 -0.1289  0.5419 -1.2414
11177TIP3   OH255021   4.124   5.059  17.121  0.1736 -0.3193  0.2327
11177TIP3    H155022   4.159   4.970  17.133  0.6297 -0.0741  0.7518
11177TIP3    H255023   4.151   5.083  17.032 -0.7881 -1.0630 -0.2876
11178TIP3   OH255024   3.848   3.036   0.914  0.3383 -0.0439 -0.1874
11178TIP3    H155025   3.920   2.988   0.872  1.8456  1.5135  0.4775
11178TIP3    H255026   3.825   2.983   0.989  0.1382 -1.0210 -0.9148
11179TIP3   OH255027   0.373   3.579   5.704 -0.2520  0.0892 -0.0853
11179TIP3    H155028   0.295   3.524   5.707 -0.0606 -0.2363 -0.8333
11179TIP3    H255029   0.441   3.527   5.747 -0.4839  0.4585  0.7566
11180TIP3   OH255030   4.334   5.070   5.025  0.0520 -0.0201  0.1596
11180TIP3    H155031   4.246   5.107   5.026 -1.5292 -3.3788  0.2195
11180TIP3    H255032   4.368   5.087   5.113 -1.3092 -0.2821  0.7620
11181TIP3   OH255033   0.685   0.419  14.772 -0.1798  0.1309 -0.0172
11181TIP3    H155034   0.748   0.408  14.701 -1.0162  1.3572 -0.9834
11181TIP3    H255035   0.665   0.513  14.772 -1.3227 -0.0941  0.8635
11182TIP3   OH255036   6.574   3.297  12.715 -0.1335  0.1569  0.4503
11182TIP3    H155037   6.591   3.386  12.747 -1.5899  0.5728  0.1500
11182TIP3    H255038   6.603   3.299  12.624  2.6173 -0.5942  1.2038
11183TIP3   OH255039   4.024   4.447  14.318 -0.3186  0.4016  0.1292
11183TIP3    H155040   4.079   4.504  14.371 -1.5458  1.1407  0.6404
11183TIP3    H255041   3.999   4.500  14.243 -1.6269  0.6382  0.7044
11184TIP3   OH255042   4.901   0.409   3.366  0.1500 -0.5241  0.2396
11184TIP3    H155043   4.893   0.378   3.276  3.0320  0.3040 -0.4106
11184TIP3    H255044   4.889   0.503   3.360  0.5433 -0.4419  0.6938
11185TIP3   OH255045   0.811   2.442  14.326  0.2643  0.5218  0.7240
11185TIP3    H155046   0.837   2.359  14.287 -1.7744  0.2899 -0.2648
11185TIP3    H255047   0.765   2.419  14.407 -1.2807  0.5610 -0.1031
11186TIP3   OH255048   2.138   5.705  12.270 -0.0084 -0.5743  0.3630
11186TIP3    H155049   2.205   5.772  12.256 -0.5396 -0.4249 -1.9516
11186TIP3    H255050   2.187   5.623  12.279  0.5625 -0.1610  1.0514
11187TIP3   OH255051   2.677   1.670  12.136  0.2117  0.1781 -0.4167
11187TIP3    H155052   2.601   1.719  12.168  0.8522  0.3685  0.8791
11187TIP3    H255053   2.646   1.627  12.057 -1.2076  0.3546  0.0126
11188TIP3   OH255054   2.011   6.065   0.322 -0.5769  0.2288  0.2332
11188TIP3    H155055   1.969   6.150   0.308 -0.9644  0.1340  0.7788
11188TIP3    H255056   1.992   6.015   0.243  0.4644  0.9640 -0.5153
11189TIP3   OH255057   1.134   5.595  12.633  0.2493  0.2241  0.3178
11189TIP3    H155058   1.103   5.584  12.723  0.9230 -1.7747  0.3680
11189TIP3    H255059   1.069   5.549  12.580  1.9558 -2.3193  0.2498
11190TIP3   OH255060   2.279   4.497  15.181  0.2382  0.0520 -0.4968
11190TIP3    H155061   2.243   4.424  15.231  0.7842 -0.4947 -0.8911
11190TIP3    H255062   2.303   4.459  15.097  0.8560  0.6129 -0.5772
11191TIP3   OH255063   3.523   6.693  11.828 -0.2244 -0.5870 -0.7818
11191TIP3    H155064   3.492   6.736  11.907  0.7246 -0.8001 -0.2823
11191TIP3    H255065   3.609   6.732  11.812  0.8803 -2.5965 -0.0490
11192TIP3   OH255066   2.750   1.489   3.758  0.3243  0.1152 -0.1352
11192TIP3    H155067   2.678   1.552   3.759  1.3056  1.3138  2.1080
11192TIP3    H255068   2.714   1.412   3.802 -0.6971 -0.8007 -2.3860
11193TIP3   OH255069   0.776   4.636  13.020 -0.0389  0.3894  0.0145
11193TIP3    H155070   0.728   4.595  13.092 -0.7492 -0.6349 -1.0111
11193TIP3    H255071   0.842   4.571  12.996 -1.8575 -0.7257 -2.3313
11194TIP3   OH255072   3.850   4.296   1.102 -0.4647 -0.9145 -0.4084
11194TIP3    H155073   3.832   4.285   1.008 -0.5582  0.1128 -0.5201
11194TIP3    H255074   3.773   4.344   1.135  1.4255  2.6405 -0.6812
11195TIP3   OH255075   0.990   5.334   1.451 -0.2842  0.3839 -0.3844
11195TIP3    H155076   0.992   5.245   1.485 -2.9532  0.5012  0.3026
11195TIP3    H255077   1.030   5.387   1.519 -1.2580  0.0244  0.4912
11196TIP3   OH255078   5.467   5.829  16.107  0.1316  0.1349  0.4939
11196TIP3    H155079   5.537   5.827  16.172  0.6404  0.1839 -0.0475
11196TIP3    H255080   5.410   5.755  16.131  0.5615 -0.1292  0.7124
11197TIP3   OH255081   0.829   0.174   6.191 -0.1569  0.3170  0.5526
11197TIP3    H155082   0.871   0.157   6.276 -1.0222 -0.1897  0.8893
11197TIP3    H255083   0.894   0.144   6.127 -0.4510 -1.5979  1.0906
11198TIP3   OH255084   1.883   2.085  14.257  0.1667  0.1166 -0.0649
11198TIP3    H155085   1.932   2.048  14.184 -2.4495 -3.3561 -0.3329
11198TIP3    H255086   1.928   2.053  14.335  0.5795  0.3226 -0.2162
11199TIP3   OH255087   5.974   4.546  11.981 -0.1286  0.1342 -0.4610
11199TIP3    H155088   5.925   4.616  11.937 -0.0547  0.1923 -0.4511
11199TIP3    H255089   6.063   4.554  11.946 -0.1274  0.0251 -0.4830
11200TIP3   OH255090   2.616   3.141  16.695 -0.0514 -0.2143 -0.3998
11200TIP3    H155091   2.694   3.195  16.702 -0.4495  0.4656 -1.0696
11200TIP3    H255092   2.649   3.053  16.681  0.6379 -0.4288  2.0759
11201TIP3   OH255093   3.888   0.278   2.843 -0.5709  0.1476  0.7333
11201TIP3    H155094   3.806   0.325   2.824 -0.9761 -0.4564  0.9461
11201TIP3    H255095   3.955   0.346   2.846 -0.6420  0.4103 -1.8192
11202TIP3   OH255096   4.914   2.729  17.316  0.5056 -0.4861 -0.0289
11202TIP3    H155097   4.989   2.770  17.273  0.3742 -0.9253 -0.6843
11202TIP3    H255098   4.859   2.698  17.244 -0.0860 -0.5626  0.4511
11203TIP3   OH255099   2.764   3.055  11.146  0.4847  0.3101  0.2014
11203TIP3    H155100   2.796   3.034  11.233  0.7350  2.2956  0.6422
11203TIP3    H255101   2.707   2.981  11.123  1.0996 -0.6661  1.6622
11204TIP3   OH255102   4.176   3.398  15.884 -0.0611  0.0035  0.1134
11204TIP3    H155103   4.258   3.387  15.836 -0.3474  0.4464 -0.4775
11204TIP3    H255104   4.136   3.311  15.882  0.1480 -0.0930 -0.0365
11205TIP3   OH255105   0.303   6.140   3.796  0.0853  0.1738  0.6055
11205TIP3    H155106   0.293   6.060   3.848  0.6640 -0.2879  0.0192
11205TIP3    H255107   0.367   6.193   3.844 -0.0321  0.1322  0.8092
11206TIP3   OH255108   3.306   4.938  13.360  0.0857  0.1844  0.3922
11206TIP3    H155109   3.276   5.022  13.395  1.0842  0.5567  0.3735
11206TIP3    H255110   3.398   4.953  13.338  0.0301 -0.6567 -0.4379
11207TIP3   OH255111   3.143   2.308  16.511 -0.0200 -0.1149  0.0354
11207TIP3    H155112   3.060   2.337  16.473 -0.9532 -0.2584  1.8528
11207TIP3    H255113   3.174   2.383  16.561 -0.6927 -1.0327  1.9272
11208TIP3   OH255114   5.049   5.208   0.535  0.0788 -0.2933  0.3081
11208TIP3    H155115   5.123   5.147   0.542  0.0033 -0.3710  0.4368
11208TIP3    H255116   4.973   5.151   0.523  0.3184 -0.1751 -2.4565
11209TIP3   OH255117   4.160   1.786  12.878 -0.2649  0.1714  0.3352
11209TIP3    H155118   4.232   1.818  12.932 -0.3251 -0.4728  0.8114
11209TIP3    H255119   4.157   1.846  12.803  1.6383 -0.6050 -0.4172
11210TIP3   OH255120   5.820   3.216   5.173  0.3872  0.2886 -0.3772
11210TIP3    H155121   5.838   3.175   5.089  0.0747  0.5057 -0.5517
11210TIP3    H255122   5.891   3.279   5.185 -0.1589  1.0377 -0.9946
11211TIP3   OH255123   2.141   1.578   2.329 -0.0467 -0.6347 -0.2134
11211TIP3    H155124   2.224   1.626   2.323 -0.5166  0.1403 -0.7109
11211TIP3    H255125   2.140   1.542   2.417  0.8293 -0.6684 -0.2078
11212TIP3   OH255126   3.711   4.744   3.615  0.4559  0.2965 -0.0179
11212TIP3    H155127   3.640   4.686   3.645  2.6840 -2.1206  0.9182
11212TIP3    H255128   3.738   4.790   3.695  0.3324  0.7799 -0.2539
11213TIP3   OH255129   4.687   4.547   0.132  0.4380 -0.3367  0.0898
11213TIP3    H155130   4.624   4.489   0.087 -0.5569  0.6490  0.1590
11213TIP3    H255131   4.706   4.615   0.068  2.0758 -1.0211 -0.2083
11214TIP3   OH255132   6.401   3.331   4.526  0.4427 -0.3951  0.2280
11214TIP3    H155133   6.370   3.417   4.495  0.9691 -0.5499 -0.7511
11214TIP3    H255134   6.337   3.269   4.491  0.5895 -0.4989  0.1492
11215TIP3   OH255135   4.019   2.462  11.212  0.0235  0.1279 -0.5881
11215TIP3    H155136   3.961   2.488  11.141  1.0389 -0.1025 -1.5151
11215TIP3    H255137   4.081   2.401  11.173 -0.3685 -1.2716  0.8538
11216TIP3   OH255138   5.471   4.188  13.842 -0.2806 -0.6336 -0.1603
11216TIP3    H155139   5.419   4.222  13.770 -0.5842 -1.9710 -0.6014
11216TIP3    H255140   5.540   4.137  13.800 -0.1422 -0.9823  0.4733
11217TIP3   OH255141   2.915   0.402   2.874  0.1212  0.0190 -0.3642
11217TIP3    H155142   2.890   0.430   2.786 -1.2399 -1.3980 -0.4706
11217TIP3    H255143   3.005   0.370   2.864  0.1248  0.2335 -1.1443
11218TIP3   OH255144   1.018   5.236  14.316 -0.1175 -0.2700  0.1859
11218TIP3    H155145   1.113   5.234  14.319  0.0201 -0.0581 -2.2470
11218TIP3    H255146   0.991   5.149  14.345  0.9331 -0.9630 -0.8209
11219TIP3   OH255147   1.292   5.862  10.921  0.1212 -0.2237 -0.3826
11219TIP3    H155148   1.350   5.934  10.894  0.7496 -1.1233 -1.5256
11219TIP3    H255149   1.319   5.788  10.866 -0.9005 -1.1751  0.3616
11220TIP3   OH255150   5.426   5.306  15.582  0.1062 -0.3241 -0.0696
11220TIP3    H155151   5.356   5.324  15.645  1.7588  0.3781  1.6774
11220TIP3    H255152   5.409   5.366  15.509 -1.0382 -0.1205  0.3409
11221TIP3   OH255153   4.859   5.011  13.565 -0.0467 -0.5087  0.1214
11221TIP3    H155154   4.884   5.095  13.527  0.8848 -0.6538  0.3825
11221TIP3    H255155   4.837   4.956  13.490  1.2449 -0.6274 -0.1974
11222TIP3   OH255156   4.864   6.138  16.720  0.0977 -0.3603 -0.1503
11222TIP3    H155157   4.921   6.196  16.670  0.6620  0.4278  1.3452
11222TIP3    H255158   4.775   6.164  16.695  0.3241  1.5561  0.8585
11223TIP3   OH255159   1.177   1.660   0.016  0.3309  0.4499  0.5517
11223TIP3    H155160   1.212   1.679  -0.072  2.1144  0.0620  1.1320
11223TIP3    H255161   1.212   1.730   0.071  0.7347 -0.3163  1.2868
11224TIP3   OH255162   3.438   3.250   2.259 -0.3146  0.5832 -0.0815
11224TIP3    H155163   3.380   3.229   2.186  0.6798 -0.4928 -0.5869
11224TIP3    H255164   3.510   3.300   2.220  0.4649 -0.4041  0.0531
11225TIP3   OH255165   3.760   5.746   2.457  0.4871 -0.6411  0.3123
11225TIP3    H155166   3.739   5.838   2.473 -2.3921 -0.5020 -3.0405
11225TIP3    H255167   3.855   5.743   2.451  0.8549  1.5294  2.9947
11226TIP3   OH255168   1.285   0.481  15.379  0.2218  0.2914  0.0573
11226TIP3    H155169   1.268   0.560  15.431 -1.5566 -0.3446  0.5157
11226TIP3    H255170   1.271   0.509  15.288 -0.4045  0.5314  0.2184
11227TIP3   OH255171   2.258   0.582  16.428  0.2058  0.0246 -0.1142
11227TIP3    H155172   2.257   0.518  16.499  0.5114  0.9593  0.7525
11227TIP3    H255173   2.206   0.541  16.358  1.3144 -1.6439 -0.0211
11228TIP3   OH255174   2.006   1.924  17.183  0.6898 -0.3770 -0.1679
11228TIP3    H155175   2.005   1.949  17.090 -1.1823 -0.3018 -0.1736
11228TIP3    H255176   2.023   1.830  17.183 -2.5423 -1.1059 -0.8985
11229TIP3   OH255177   0.837   5.296   2.108  0.3698 -0.6854 -0.5232
11229TIP3    H155178   0.895   5.369   2.085  3.1823 -2.4129  0.5521
11229TIP3    H255179   0.828   5.301   2.203  1.5075 -2.2617 -0.2856
11230TIP3   OH255180   5.497   4.799  16.502 -0.4727 -0.4876 -0.4416
11230TIP3    H155181   5.492   4.892  16.526 -0.9713 -1.1293  2.2471
11230TIP3    H255182   5.436   4.790  16.429 -2.3329  0.8505  0.8743
11231TIP3   OH255183   3.468   0.920  17.059 -0.3650  0.0750 -0.8067
11231TIP3    H155184   3.559   0.922  17.087 -0.7474  0.0638  0.4942
11231TIP3    H255185   3.449   0.827  17.044  0.2712  0.1990 -2.6758
11232TIP3   OH255186   0.433   3.859  13.657 -0.0404  0.6541 -0.3055
11232TIP3    H155187   0.423   3.954  13.653 -0.2371  0.6685  0.3453
11232TIP3    H255188   0.367   3.831  13.721  1.5828  0.3473  1.3192
11233TIP3   OH255189   5.693   6.048   0.725 -0.1640 -0.5887 -0.0410
11233TIP3    H155190   5.612   6.069   0.679  0.5060 -0.1513 -1.0697
11233TIP3    H255191   5.698   6.113   0.796 -0.2335  0.0338 -0.5908
11234TIP3   OH255192   0.907   5.672  10.926 -0.4212 -0.2466 -0.6440
11234TIP3    H155193   0.980   5.613  10.947 -0.2766 -0.3041 -1.2943
11234TIP3    H255194   0.841   5.615  10.886 -1.0666 -0.2956  0.4556
11235TIP3   OH255195   2.826   1.235  13.931 -0.2787  0.5414  0.0195
11235TIP3    H155196   2.859   1.294  13.999  0.6015  1.1467 -0.9004
11235TIP3    H255197   2.746   1.276  13.900 -1.8574 -0.7990  2.0879
11236TIP3   OH255198   5.025   2.146   4.599  0.4659 -0.1070  0.3938
11236TIP3    H155199   5.073   2.083   4.546  1.2326 -0.4097  1.4172
11236TIP3    H255200   5.077   2.156   4.678 -0.5258  0.5184  0.9971
11237TIP3   OH255201   1.213   0.559   2.104  0.2490 -0.4698 -0.1299
11237TIP3    H155202   1.223   0.602   2.188 -1.8927 -1.8142  0.9033
11237TIP3    H255203   1.118   0.557   2.089  0.4485 -2.0858 -1.5600
11238TIP3   OH255204   0.812   0.728  11.715  0.3768 -0.2810  0.4818
11238TIP3    H155205   0.753   0.798  11.687  0.2177 -0.5887  0.0281
11238TIP3    H255206   0.900   0.760  11.693  0.4938  0.6830  2.2480
11239TIP3   OH255207   6.375   0.145   3.396 -0.2700  0.2360 -0.5749
11239TIP3    H155208   6.301   0.193   3.431 -0.3255 -0.0904 -0.2492
11239TIP3    H255209   6.452   0.192   3.430 -0.3210 -0.2129  0.1745
11240TIP3   OH255210   5.631   5.377   5.110  0.0819 -0.5330  0.1116
11240TIP3    H155211   5.558   5.330   5.150 -0.3273 -0.8362 -0.9475
11240TIP3    H255212   5.596   5.407   5.026  0.6899  0.6908  0.2761
11241TIP3   OH255213   4.663   1.002  11.774  0.5384 -0.0402 -0.3681
11241TIP3    H155214   4.718   0.936  11.731  1.7950  0.2442  0.7349
11241TIP3    H255215   4.720   1.042  11.840 -1.1173 -0.0493  1.1616
11242TIP3   OH255216   5.297   4.758  16.317 -0.1888 -0.0862  0.1246
11242TIP3    H155217   5.236   4.745  16.389 -0.4371 -1.6633 -0.3295
11242TIP3    H255218   5.249   4.731  16.239  1.2116 -1.8894 -0.1750
11243TIP3   OH255219   2.414   2.903  15.183 -0.0503 -0.2079  0.2549
11243TIP3    H155220   2.323   2.930  15.185 -1.8672 -4.6436 -3.2681
11243TIP3    H255221   2.447   2.933  15.098  0.7519 -1.2157  0.1847
11244TIP3   OH255222   4.188   1.558   5.034 -0.0638 -0.7024  0.7221
11244TIP3    H155223   4.273   1.525   5.064  1.3599  0.9019 -1.2471
11244TIP3    H255224   4.151   1.486   4.983  1.4958 -0.4811 -0.8232
11245TIP3   OH255225   1.340   1.298  13.348  0.3918 -0.0222  0.6532
11245TIP3    H155226   1.307   1.209  13.359  0.1872 -0.2634 -1.5197
11245TIP3    H255227   1.289   1.350  13.410 -1.1170 -1.0606  0.3401
11246TIP3   OH255228   5.691   6.281   6.482 -0.3321  0.0738 -0.2084
11246TIP3    H155229   5.677   6.373   6.501 -0.5959 -0.3059  1.6034
11246TIP3    H255230   5.786   6.270   6.480 -0.2428 -0.0677  2.2211
11247TIP3   OH255231   1.480   1.251  11.718 -0.0716 -0.0827 -0.0407
11247TIP3    H155232   1.536   1.292  11.652  1.0626 -0.4003  0.6892
11247TIP3    H255233   1.503   1.158  11.715 -1.2954 -0.3867 -0.4161
11248TIP3   OH255234   1.086   1.271  15.781 -0.1691 -0.3006 -0.6292
11248TIP3    H155235   1.055   1.278  15.871  1.1212 -0.1423 -0.1732
11248TIP3    H255236   1.024   1.212  15.738 -1.3387  0.3603  0.0977
11249TIP3   OH255237   1.312   6.294  15.574  0.6039  0.3715 -0.3269
11249TIP3    H155238   1.287   6.246  15.654 -0.5142 -0.2166 -0.9984
11249TIP3    H255239   1.289   6.234  15.503  0.0535  1.5253 -1.1601
11250TIP3   OH255240   6.140   0.099  15.987  0.1316 -0.2875  0.6150
11250TIP3    H155241   6.089   0.173  16.020  0.4124 -1.0529  2.9436
11250TIP3    H255242   6.136   0.034  16.057 -0.6763 -2.8122 -1.5972
11251TIP3   OH255243   2.348   2.713   5.469 -0.1087  0.1185 -0.0502
11251TIP3    H155244   2.383   2.736   5.383 -0.5530 -1.5952 -0.7462
11251TIP3    H255245   2.276   2.653   5.450 -0.6448  0.2229  1.5053
11252TIP3   OH255246   1.512   3.583   1.930  0.0218  1.2620  0.1371
11252TIP3    H155247   1.587   3.550   1.981  0.9068 -1.1129 -2.4348
11252TIP3    H255248   1.538   3.671   1.903  0.6688  1.5203  1.5179
11253TIP3   OH255249   3.660   1.449   2.902 -0.1690  0.0798  0.3834
11253TIP3    H155250   3.587   1.390   2.923 -1.0055  0.9746  0.0584
11253TIP3    H255251   3.715   1.398   2.842 -0.9470 -0.3298  0.0017
11254TIP3   OH255252   1.132   6.568  16.396 -0.3046  0.4803  0.0045
11254TIP3    H155253   1.056   6.550  16.450  0.8399 -0.9232  1.2274
11254TIP3    H255254   1.200   6.510  16.429  1.0175  0.9492 -1.7137
11255TIP3   OH255255   5.982   0.762  12.849 -0.1515  0.1172  0.9454
11255TIP3    H155256   5.931   0.770  12.929 -3.9028 -0.1206 -1.2153
11255TIP3    H255257   5.966   0.844  12.802  0.7486 -0.3451 -0.2337
11256TIP3   OH255258   4.049   5.714  11.772  0.0302 -0.0501  0.1616
11256TIP3    H155259   4.085   5.630  11.744 -0.8834  0.1682 -1.8869
11256TIP3    H255260   4.102   5.779  11.726 -1.2094  0.3427 -0.7919
11257TIP3   OH255261   3.415   1.273  16.002  0.0117 -0.4165 -0.3314
11257TIP3    H155262   3.325   1.298  16.024  0.7968  0.9397  1.5697
11257TIP3    H255263   3.409   1.179  15.982 -1.8474 -0.3003 -0.5083
11258TIP3   OH255264   0.377   0.774  13.536  0.2874 -0.1900  0.2527
11258TIP3    H155265   0.329   0.848  13.572  2.3569  1.3456  0.0218
11258TIP3    H255266   0.421   0.809  13.459 -0.0901 -2.1437 -0.9043
11259TIP3   OH255267   4.646   1.011  13.782  0.1378  0.1351  0.2342
11259TIP3    H155268   4.599   0.978  13.705  1.2345 -0.0938 -0.3602
11259TIP3    H255269   4.632   0.945  13.849  0.3398 -0.3753 -0.2154
11260TIP3   OH255270   4.843   5.761  12.316 -0.2398 -0.3304 -0.0874
11260TIP3    H155271   4.815   5.753  12.408 -1.6499  0.8567 -0.3767
11260TIP3    H255272   4.915   5.699  12.308  1.7279  1.3724  2.5161
11261TIP3   OH255273   0.024   3.100   0.813 -0.3415  0.2906  0.1515
11261TIP3    H155274  -0.039   3.150   0.865 -1.5170 -0.6663 -0.3067
11261TIP3    H255275   0.092   3.076   0.875 -0.2424  1.6288  0.5898
11262TIP3   OH255276   4.224   5.301   5.960  0.2316 -0.0334  0.2561
11262TIP3    H155277   4.299   5.274   6.012 -1.2753  2.0016  3.8753
11262TIP3    H255278   4.150   5.253   5.997 -1.0520  2.1859  0.7420
11263TIP3   OH255279   1.911   0.844   3.439  0.2023  0.0464  0.7942
11263TIP3    H155280   1.824   0.806   3.427 -0.4180  1.8533 -0.8371
11263TIP3    H255281   1.967   0.793   3.380  0.0760 -0.4976  1.1347
11264TIP3   OH255282   3.163   1.904  17.184  1.4429  0.3271  0.4574
11264TIP3    H155283   3.241   1.954  17.210  2.3668 -0.4334 -0.7611
11264TIP3    H255284   3.191   1.854  17.107  0.6134 -2.2143  1.7024
11265TIP3   OH255285   1.306   1.530  14.702  0.6582  0.2612  0.1734
11265TIP3    H155286   1.243   1.574  14.760  0.4488  0.5563 -0.2668
11265TIP3    H255287   1.384   1.520  14.755  0.2303 -0.1301  0.7382
11266TIP3   OH255288   1.630   0.249  16.908  0.1091 -0.3609  0.0451
11266TIP3    H155289   1.678   0.317  16.862 -0.7085  1.1863  1.3700
11266TIP3    H255290   1.540   0.258  16.876 -0.2455  0.0150  1.1058
11267TIP3   OH255291   1.808   4.790  15.019  0.2516  0.3374  0.1018
11267TIP3    H155292   1.824   4.734  14.943  1.3548  1.7623 -0.7766
11267TIP3    H255293   1.839   4.739  15.094 -0.7942 -1.0718 -0.3911
11268TIP3   OH255294   0.667   4.312  14.848 -0.4874 -0.0489 -0.1278
11268TIP3    H155295   0.671   4.238  14.788 -1.6137 -0.1976 -0.0248
11268TIP3    H255296   0.574   4.333  14.856 -0.3295  0.2788  1.1746
11269TIP3   OH255297   2.907   2.740  11.233 -0.4551  0.8443  0.3449
11269TIP3    H155298   2.865   2.750  11.318 -0.4725 -1.0741  0.5921
11269TIP3    H255299   2.995   2.706  11.253 -0.3000  0.8049 -0.3774
11270TIP3   OH255300   2.491   4.153   3.298 -0.3289  0.1990  0.1238
11270TIP3    H155301   2.485   4.125   3.206 -0.5420  2.7703 -0.7311
11270TIP3    H255302   2.400   4.159   3.327 -0.3012  0.3485  0.1801
11271TIP3   OH255303   2.258   4.311  12.477  0.2669 -0.1576 -0.2768
11271TIP3    H155304   2.292   4.398  12.495  0.1859  0.1421 -1.5310
11271TIP3    H255305   2.335   4.259  12.453  0.4027 -0.6097  1.0431
11272TIP3   OH255306   5.901   0.353   0.979 -0.7873 -0.1929  0.0369
11272TIP3    H155307   5.872   0.388   0.895  0.7509  0.6286 -0.1700
11272TIP3    H255308   5.821   0.350   1.032 -2.1276 -2.1728 -1.8790
11273TIP3   OH255309   5.693   5.116   6.090  0.2931 -0.4612 -0.2724
11273TIP3    H155310   5.760   5.057   6.056  1.7650  0.2049  1.3308
11273TIP3    H255311   5.721   5.203   6.063 -0.4911 -0.2561 -0.4559
11274TIP3   OH255312   2.306   3.497  16.590 -0.3017  0.5276  0.5170
11274TIP3    H155313   2.303   3.592  16.582  0.0311  0.5482  0.6048
11274TIP3    H255314   2.293   3.464  16.502 -1.7286  0.6229  0.6771
11275TIP3   OH255315   3.540   5.557  11.572  0.0603 -0.0320 -0.0664
11275TIP3    H155316   3.594   5.518  11.504 -1.1342 -1.4198 -0.2598
11275TIP3    H255317   3.602   5.581  11.641  1.0140 -0.8200 -0.6217
11276TIP3   OH255318   2.667   4.822   5.896  0.0645 -0.5886  0.4504
11276TIP3    H155319   2.751   4.788   5.926  0.3895 -0.8841 -0.7393
11276TIP3    H255320   2.623   4.747   5.855 -0.7930 -0.4452  1.0833
11277TIP3   OH255321   3.509   2.352  11.417 -0.0447  0.3324 -0.4500
11277TIP3    H155322   3.580   2.319  11.362  0.1072 -0.8100  0.3999
11277TIP3    H255323   3.444   2.386  11.355  1.0420  1.0224 -1.2544
11278TIP3   OH255324   0.497   5.980   2.673  0.2400 -0.9237 -0.0111
11278TIP3    H155325   0.525   5.993   2.763  0.1281  0.4449 -0.1510
11278TIP3    H255326   0.576   5.995   2.621  0.0249 -0.4661 -0.2086
11279TIP3   OH255327   1.358   1.992  12.552 -0.3760  0.2984 -0.5063
11279TIP3    H155328   1.290   1.982  12.618  0.2014  1.7490  0.3452
11279TIP3    H255329   1.357   2.085  12.529 -1.2263 -0.3166 -3.3115
11280TIP3   OH255330   6.151   4.008   2.244 -0.6205 -0.1812  0.2687
11280TIP3    H155331   6.209   3.939   2.276 -1.1196 -0.4404  0.6259
11280TIP3    H255332   6.070   3.996   2.293 -0.8103  0.4845  0.1249
11281TIP3   OH255333   5.580   1.522   3.117 -0.5078  0.1048  0.0220
11281TIP3    H155334   5.575   1.427   3.127  1.6282 -0.3088 -1.8256
11281TIP3    H255335   5.663   1.536   3.072 -1.1297  2.8053 -0.4382
11282TIP3   OH255336   6.019   2.522   3.350  0.2570  0.0725 -0.3861
11282TIP3    H155337   5.942   2.495   3.399  0.2961 -0.4275 -0.5972
11282TIP3    H255338   5.987   2.538   3.262  0.3625  0.0382 -0.4311
11283TIP3   OH255339   4.712   0.697   0.801  0.2893  1.2462 -0.1688
11283TIP3    H155340   4.768   0.710   0.878  1.3342 -2.1732 -0.1485
11283TIP3    H255341   4.627   0.731   0.827  0.6834  0.4989  2.4358
11284TIP3   OH255342   6.044   2.850   5.817  0.7635  0.1740 -0.0818
11284TIP3    H155343   6.135   2.833   5.794  0.6992  1.3599 -1.3436
11284TIP3    H255344   5.995   2.780   5.775  0.8811  0.9748 -1.6399
11285TIP3   OH255345   6.470   5.083   5.023 -0.0165 -0.2490  0.2862
11285TIP3    H155346   6.419   5.035   5.088 -1.5092 -0.4845 -1.0328
11285TIP3    H255347   6.548   5.029   5.009  0.6073  0.0597  2.2300
11286TIP3   OH255348   0.127   0.489  11.465  0.0761 -0.2595 -0.1479
11286TIP3    H155349   0.123   0.510  11.371 -1.1686 -0.4177 -0.1538
11286TIP3    H255350   0.209   0.528  11.495  0.8636 -0.8495 -1.4496
11287TIP3   OH255351   6.691   1.597  12.588 -0.3316  0.5787 -0.2435
11287TIP3    H155352   6.657   1.510  12.609  0.5440  0.2041 -0.3376
11287TIP3    H255353   6.615   1.645  12.553 -0.4635 -0.6909 -1.8145
11288TIP3   OH255354   6.694   5.625   2.440  0.3802 -0.8366 -0.2376
11288TIP3    H155355   6.756   5.697   2.430 -1.1242  0.5784  0.2533
11288TIP3    H255356   6.684   5.590   2.351 -1.0112  1.4461 -1.0561
11289TIP3   OH255357   3.066   5.835   0.413 -0.3965 -0.0108 -0.2718
11289TIP3    H155358   3.146   5.791   0.383  0.0536  0.8906 -0.4211
11289TIP3    H255359   3.083   5.928   0.399 -1.3722  0.2104 -0.0480
11290TIP3   OH255360   0.166   4.443  15.569  0.8741 -0.2134  0.5631
11290TIP3    H155361   0.185   4.439  15.476 -0.3462 -3.3295  0.3199
11290TIP3    H255362   0.225   4.379  15.609 -1.9784 -2.7480  1.0892
11291TIP3   OH255363   2.539   3.248  16.380 -0.6252 -0.3449 -0.1607
11291TIP3    H155364   2.468   3.187  16.397 -1.5119 -0.1452 -2.7681
11291TIP3    H255365   2.535   3.310  16.453 -0.7941 -2.3457  1.6233
11292TIP3   OH255366   4.641   6.501   2.632  0.3544 -0.4081 -0.2980
11292TIP3    H155367   4.641   6.543   2.546 -1.4743 -0.9226 -0.5863
11292TIP3    H255368   4.554   6.519   2.667  1.6845  1.5511  2.3889
11293TIP3   OH255369   3.157   2.216   1.943 -0.6345  0.0172  0.4948
11293TIP3    H155370   3.110   2.152   1.998 -0.1324 -1.0762 -0.2957
11293TIP3    H255371   3.234   2.168   1.911  0.5757  1.5080  1.0657
11294TIP3   OH255372   5.412   4.171   0.387  0.7698  0.2142 -0.3450
11294TIP3    H155373   5.450   4.084   0.402 -1.6438 -0.7425  0.8242
11294TIP3    H255374   5.470   4.231   0.435  1.9274 -0.8479 -0.3490
11295TIP3   OH255375   0.837   6.361  14.166 -0.0042 -0.2286 -0.2406
11295TIP3    H155376   0.845   6.456  14.171 -1.4135 -0.1286  1.0427
11295TIP3    H255377   0.850   6.340  14.074 -0.3863  1.3026 -0.6675
11296TIP3   OH255378   5.440   2.974  16.032  0.2802 -0.1302 -0.6978
11296TIP3    H155379   5.410   3.018  15.952 -1.3659 -1.0275 -0.6024
11296TIP3    H255380   5.439   2.881  16.010 -2.8815 -0.6565  1.1303
11297TIP3   OH255381   1.749   6.351  16.061  0.3778  0.3355  0.1862
11297TIP3    H155382   1.825   6.390  16.104  1.7134 -2.0579  0.1315
11297TIP3    H255383   1.716   6.420  16.004  2.2091  1.5989  0.5736
11298TIP3   OH255384   2.701   4.709  16.269  0.4067 -0.4239  0.0334
11298TIP3    H155385   2.762   4.682  16.201  0.5832 -0.9595  0.3954
11298TIP3    H255386   2.615   4.708  16.227  0.3268 -2.1255  0.1590
11299TIP3   OH255387   3.123   5.813  11.647  0.6774 -0.2257 -0.3601
11299TIP3    H155388   3.117   5.718  11.657  0.5360 -0.1379  0.4210
11299TIP3    H255389   3.035   5.845  11.665  0.4493 -0.0262 -1.7147
11300TIP3   OH255390   5.223   4.036  16.638  0.4692 -0.1316 -0.3150
11300TIP3    H155391   5.295   4.097  16.654  1.5161 -1.3842 -0.0987
11300TIP3    H255392   5.249   3.988  16.559  0.4398 -1.3905  0.4107
11301TIP3   OH255393   3.741   3.244  15.437  0.8888 -0.2652  0.1582
11301TIP3    H155394   3.746   3.308  15.508 -0.6636  0.4568 -0.3375
11301TIP3    H255395   3.789   3.284  15.364  0.4712  0.0528  0.0556
11302TIP3   OH255396   0.740   6.233  17.157 -0.2055 -0.5632 -0.3403
11302TIP3    H155397   0.709   6.324  17.156 -0.0983 -0.5318 -0.8463
11302TIP3    H255398   0.796   6.228  17.234 -1.3401 -0.5842  0.5174
11303TIP3   OH255399   5.438   5.442   2.695 -0.0105  0.3574 -0.1991
11303TIP3    H155400   5.496   5.517   2.687  0.1804  0.1848 -0.4738
11303TIP3    H255401   5.419   5.435   2.789 -0.8510  1.3575 -0.2753
11304TIP3   OH255402   4.147   6.309   4.488 -0.2621 -0.1742  0.1376
11304TIP3    H155403   4.228   6.296   4.536 -0.0874  0.1057 -0.0782
11304TIP3    H255404   4.127   6.402   4.497 -1.1531 -0.4461  1.1187
11305TIP3   OH255405   4.220   4.850  13.868  0.3602  0.1929 -0.1005
11305TIP3    H155406   4.199   4.767  13.825  1.1094 -0.7373  1.2690
11305TIP3    H255407   4.311   4.867  13.847 -0.6051  2.5302 -3.2521
11306TIP3   OH255408   5.650   5.709  10.597  0.5891  0.0001  0.0491
11306TIP3    H155409   5.743   5.685  10.598  0.2792 -1.3196 -0.4832
11306TIP3    H255410   5.642   5.771  10.525  1.1685  0.6499  0.5282
11307TIP3   OH255411   5.682   0.321   2.170  0.4608  0.4440  0.0330
11307TIP3    H155412   5.743   0.360   2.106 -0.3107  0.9384 -0.4225
11307TIP3    H255413   5.611   0.287   2.116 -0.7694  1.8980  0.6835
11308TIP3   OH255414   6.343   3.226  16.735  0.0512 -0.1982  0.1262
11308TIP3    H155415   6.264   3.173  16.751 -0.4160  0.6744  0.7629
11308TIP3    H255416   6.328   3.307  16.784  1.8766 -0.4839  1.2304
11309TIP3   OH255417   4.310   1.173  16.411 -0.0092 -0.2526 -0.1785
11309TIP3    H155418   4.362   1.160  16.490  1.0274  1.8538 -0.4337
11309TIP3    H255419   4.363   1.139  16.340 -0.1713 -0.5489 -0.1583
11310TIP3   OH255420   0.567   6.471   5.047  0.5802 -0.2339  0.1996
11310TIP3    H155421   0.640   6.452   5.106  0.1949 -1.1431  0.4035
11310TIP3    H255422   0.494   6.422   5.084 -0.6337  2.0087  1.0103
11311TIP3   OH255423   4.717   1.772  13.527 -0.0980 -0.5704  0.7804
11311TIP3    H155424   4.807   1.742  13.536 -0.0637 -0.9577 -0.6101
11311TIP3    H255425   4.664   1.698  13.556  0.0248 -0.6284  0.8590
11312TIP3   OH255426   6.534   6.797   2.867  0.2422  0.2124  0.1576
11312TIP3    H155427   6.586   6.830   2.940 -0.0164 -0.7080  0.7727
11312TIP3    H255428   6.486   6.873   2.835  1.7255  1.0218 -0.2323
11313TIP3   OH255429   6.260   0.828  12.289 -0.3440 -0.3082 -0.0848
11313TIP3    H155430   6.261   0.919  12.319 -0.3446 -1.0626  2.4150
11313TIP3    H255431   6.169   0.813  12.261 -0.0368  0.7990 -1.8044
11314TIP3   OH255432   3.966   4.277  12.533 -0.0112  0.1281 -0.5018
11314TIP3    H155433   3.872   4.257  12.523  0.1419 -0.7208 -0.3559
11314TIP3    H255434   3.968   4.362  12.576 -0.7092  0.5891 -1.3344
11315TIP3   OH255435   1.485   1.684   1.201  0.6171  0.1320 -0.2463
11315TIP3    H155436   1.460   1.655   1.114 -0.4406  0.1474  0.0437
11315TIP3    H255437   1.531   1.609   1.239  0.9783  0.0874 -0.7631
11316TIP3   OH255438   4.733   0.221   6.185 -0.7242  0.5014 -0.0243
11316TIP3    H155439   4.777   0.282   6.245 -0.2042  0.1941 -0.0889
11316TIP3    H255440   4.773   0.238   6.100  2.7905 -2.9458  0.6467
11317TIP3   OH255441   0.605   5.914  15.635 -0.0740 -0.3277 -0.1975
11317TIP3    H155442   0.539   5.964  15.587 -0.1029 -0.5346 -0.3749
11317TIP3    H255443   0.675   5.898  15.571  1.2565  1.9041  0.5946
11318TIP3   OH255444   6.450   3.371  15.911  0.3547 -0.6161  0.0131
11318TIP3    H155445   6.505   3.374  15.832  0.7685  1.1456  0.3228
11318TIP3    H255446   6.433   3.278  15.925  1.6577 -1.0756 -1.2072
11319TIP3   OH255447   5.071   3.007   2.565 -0.0287 -0.5356 -0.3120
11319TIP3    H155448   5.053   2.936   2.503 -1.7129  0.1275 -0.6481
11319TIP3    H255449   4.985   3.046   2.582  0.6523  0.4362  1.0686
11320TIP3   OH255450   5.429   0.324   2.485 -0.3728 -0.8272 -0.6155
11320TIP3    H155451   5.348   0.374   2.498 -0.0791 -0.3653 -0.5337
11320TIP3    H255452   5.427   0.258   2.555  0.1881  0.3278  0.5440
11321TIP3   OH255453   0.716   3.709  15.512 -0.3945 -0.1072 -0.7296
11321TIP3    H155454   0.689   3.635  15.459 -1.3006  0.3843 -0.9766
11321TIP3    H255455   0.811   3.715  15.499 -0.4572 -0.6205 -1.4682
11322TIP3   OH255456   6.483   3.267   3.627 -0.4956  0.6539 -0.2702
11322TIP3    H155457   6.546   3.333   3.656 -0.1574 -0.6347  2.3381
11322TIP3    H255458   6.528   3.219   3.558  1.5327 -0.2371  1.5347
11323TIP3   OH255459   5.447   4.769  15.022 -0.0480  0.1344  0.3581
11323TIP3    H155460   5.429   4.679  15.051  0.1154 -0.2103 -0.5716
11323TIP3    H255461   5.503   4.806  15.091 -1.1689 -0.0417  1.3866
11324TIP3   OH255462   5.531   2.308   0.931 -0.3476 -0.2507  0.0188
11324TIP3    H155463   5.575   2.330   0.849  1.8269 -1.8357  0.6530
11324TIP3    H255464   5.490   2.223   0.915 -0.1178 -0.4557  0.4998
11325TIP3   OH255465   3.447   3.130  15.902  0.1882 -0.5927  0.4326
11325TIP3    H155466   3.428   3.061  15.966  0.4065 -0.5953  0.4946
11325TIP3    H255467   3.502   3.192  15.950  0.5296 -0.7019  0.1836
11326TIP3   OH255468   0.922   5.320  13.565 -0.4458  0.1071  0.4135
11326TIP3    H155469   0.938   5.360  13.650 -2.0910 -0.2321  0.9117
11326TIP3    H255470   0.977   5.241  13.564  1.4295  1.3443  0.1426
11327TIP3   OH255471   6.765   1.546   4.386 -0.5785 -0.5230  0.0805
11327TIP3    H155472   6.812   1.629   4.393 -2.7610  0.6767  2.3919
11327TIP3    H255473   6.678   1.571   4.355 -0.9145 -2.1035 -0.2987
11328TIP3   OH255474   2.392   1.990   5.418 -0.3256  0.4961 -0.0122
11328TIP3    H155475   2.321   1.929   5.399 -0.2456  1.0000 -2.1747
11328TIP3    H255476   2.363   2.037   5.496 -1.1888 -1.0623  0.6373
11329TIP3   OH255477   6.539   1.209   3.528 -0.4556  0.1911  0.9507
11329TIP3    H155478   6.592   1.266   3.473 -0.2528 -1.1539 -0.2908
11329TIP3    H255479   6.557   1.239   3.617  2.1451  0.0216  0.5581
11330TIP3   OH255480   1.049   1.652   4.465 -0.4487  0.4638 -0.3549
11330TIP3    H155481   0.995   1.651   4.386 -2.4798  1.1351  0.9393
11330TIP3    H255482   1.108   1.726   4.453  2.3298 -1.8948 -3.0289
11331TIP3   OH255483   1.101   3.046  15.574  0.3657  0.5981 -0.1977
11331TIP3    H155484   1.028   2.985  15.581 -0.5776  1.6720 -0.3132
11331TIP3    H255485   1.172   3.005  15.623 -0.6730  0.0394  0.8963
11332TIP3   OH255486   1.579   1.093   3.506  0.0963  0.2975  0.3172
11332TIP3    H155487   1.629   1.023   3.548  0.0890  0.9345  1.4444
11332TIP3    H255488   1.584   1.074   3.412  0.5167 -0.9153  0.5669
11333TIP3   OH255489   1.187   5.889   0.945 -0.1459 -0.2218  0.3528
11333TIP3    H155490   1.277   5.865   0.969  0.5102  2.0588  0.3896
11333TIP3    H255491   1.155   5.938   1.020  0.1135  2.5835 -1.2380
11334TIP3   OH255492   4.703   3.329   6.119 -0.0220 -0.4801 -0.0205
11334TIP3    H155493   4.702   3.397   6.052  0.4170  0.8111  1.2290
11334TIP3    H255494   4.790   3.337   6.159 -0.8820  0.0059  1.8624
11335TIP3   OH255495   4.920   6.442  13.777  0.8817 -0.1958 -0.0424
11335TIP3    H155496   4.857   6.375  13.753 -0.1304 -0.0565  2.0119
11335TIP3    H255497   4.983   6.397  13.833 -0.0468  0.5793  1.7131
11336TIP3   OH255498   1.156   6.295  14.738 -0.6547  0.4989 -0.4380
11336TIP3    H155499   1.178   6.255  14.654  0.0851  2.2950 -1.1699
11336TIP3    H255500   1.239   6.333  14.769 -1.1534  0.8267  0.5466
11337TIP3   OH255501   5.307   2.527   1.014  0.2731 -0.5356 -0.1731
11337TIP3    H155502   5.347   2.457   0.961  1.7221  0.1951 -0.1119
11337TIP3    H255503   5.349   2.519   1.100 -2.3102 -1.9258  1.0631
11338TIP3   OH255504   1.972   5.898   0.129 -0.0010  0.3026 -0.1835
11338TIP3    H155505   1.996   5.806   0.135  0.4812  0.5001  1.4702
11338TIP3    H255506   2.014   5.929   0.048 -0.3804 -0.9623 -0.8876
11339TIP3   OH255507   6.712   5.225  14.691 -0.8301  0.2667 -0.1501
11339TIP3    H155508   6.634   5.233  14.637 -2.5091 -1.2215  1.8973
11339TIP3    H255509   6.686   5.261  14.776  0.6805 -0.3359  0.6095
11340TIP3   OH255510   5.496   3.948  12.393  0.1260  0.1556 -0.8098
11340TIP3    H155511   5.566   3.931  12.330 -1.8297  0.3465 -3.1805
11340TIP3    H255512   5.529   4.021  12.445  2.0273 -0.3329 -1.2160
11341TIP3   OH255513   1.450   1.705   1.980 -0.3658 -0.0525 -0.2756
11341TIP3    H155514   1.531   1.742   2.015  0.1159 -2.0194  0.8203
11341TIP3    H255515   1.385   1.774   1.992  0.3045  0.2335  2.4241
11342TIP3   OH255516   3.101   0.107   2.288 -0.1411 -0.5079  0.6265
11342TIP3    H155517   3.089   0.186   2.236 -1.2435 -1.0187  0.0739
11342TIP3    H255518   3.126   0.138   2.375 -1.1151  0.4639  0.5701
11343TIP3   OH255519   6.216   0.913   1.171  0.6782  0.2950  0.2150
11343TIP3    H155520   6.255   0.826   1.178 -1.9437 -1.0485 -0.8171
11343TIP3    H255521   6.275   0.961   1.112  2.4781 -0.5237  1.2791
11344TIP3   OH255522   2.483   0.851   3.954  0.3919 -0.5957  0.6075
11344TIP3    H155523   2.427   0.840   3.878 -1.4200  0.4959  1.7160
11344TIP3    H255524   2.423   0.872   4.026  1.9981 -1.8679  2.4201
11345TIP3   OH255525   0.490   3.915   2.419 -0.6028  0.1868 -0.1900
11345TIP3    H155526   0.532   3.841   2.374  0.0795  0.8967 -0.7492
11345TIP3    H255527   0.398   3.907   2.397 -0.8752 -1.5915  1.3177
11346TIP3   OH255528   3.846   5.815   5.230 -0.3497 -0.7940  0.1155
11346TIP3    H155529   3.811   5.893   5.273  1.2709  0.1489 -0.1788
11346TIP3    H255530   3.799   5.742   5.271 -2.6553  0.3435 -0.3119
11347TIP3   OH255531   6.394   3.267   0.642 -0.7151 -0.3920 -0.1014
11347TIP3    H155532   6.305   3.247   0.671 -0.1827 -2.4295  0.3377
11347TIP3    H255533   6.449   3.244   0.718  0.2140  0.5913 -0.4534
11348TIP3   OH255534   1.560   0.388   5.714  0.3064  0.3030  0.0822
11348TIP3    H155535   1.507   0.399   5.794 -2.4103  0.1226 -1.5704
11348TIP3    H255536   1.595   0.475   5.697 -2.3753  1.3430 -0.6036
11349TIP3   OH255537   1.170   2.985  13.279  0.3354  0.1582 -0.1786
11349TIP3    H155538   1.079   2.954  13.274  0.5342 -0.4902  0.0302
11349TIP3    H255539   1.164   3.071  13.320 -0.1788  0.0686 -0.0571
11350TIP3   OH255540   3.947   6.115  16.575 -0.3927 -0.6908 -0.4769
11350TIP3    H155541   3.885   6.161  16.631 -0.6353 -0.6219 -0.7998
11350TIP3    H255542   4.007   6.183  16.544 -0.3194 -0.7114 -0.3803
11351TIP3   OH255543   6.110   4.976   2.621  0.5882 -0.2831  0.6873
11351TIP3    H155544   6.160   4.953   2.543  0.0479 -0.2430  0.3226
11351TIP3    H255545   6.167   4.954   2.694  0.4771 -1.8297  0.3274
11352TIP3   OH255546   5.244   6.284  15.187  0.8514  0.0586  0.2321
11352TIP3    H155547   5.198   6.366  15.167 -1.5568 -0.8340  1.7606
11352TIP3    H255548   5.330   6.312  15.218 -0.0572  2.0582  1.1074
11353TIP3   OH255549   5.989   0.709  10.954 -0.9361 -0.0739 -0.0237
11353TIP3    H155550   5.992   0.797  10.917 -0.4366  0.3779  1.0533
11353TIP3    H255551   6.077   0.675  10.942 -0.7188  0.1408  0.8545
11354TIP3   OH255552   0.254   3.396   2.558 -0.4241  0.3541 -0.4972
11354TIP3    H155553   0.252   3.383   2.463 -0.9138  2.0813 -0.7488
11354TIP3    H255554   0.327   3.457   2.572  1.1674 -1.6610  0.5111
11355TIP3   OH255555   5.546   1.642  13.313 -0.0358  0.0314  0.1803
11355TIP3    H155556   5.521   1.716  13.258  1.3378  0.5555  0.2057
11355TIP3    H255557   5.601   1.588  13.256  0.0545 -0.2669  0.5480
11356TIP3   OH255558   1.221   0.224  16.328 -0.0686  0.5226  0.0901
11356TIP3    H155559   1.142   0.258  16.288  0.3691 -0.2385 -1.4804
11356TIP3    H255560   1.291   0.245  16.266  0.5964 -0.9243  0.3137
11357TIP3   OH255561   6.796   4.588  13.464 -0.3240  1.0301  0.4663
11357TIP3    H155562   6.703   4.580  13.484 -0.3120 -1.5967 -0.1081
11357TIP3    H255563   6.833   4.633  13.540 -2.0942  2.4841  0.5177
11358TIP3   OH255564   3.107   5.580   2.703 -0.0205  0.1304 -0.7336
11358TIP3    H155565   3.082   5.644   2.770 -1.7236  0.3294 -1.5077
11358TIP3    H255566   3.140   5.505   2.753  1.5555  1.3848  0.2034
11359TIP3   OH255567   6.474   1.514  11.628  0.6065 -0.3069  0.3356
11359TIP3    H155568   6.497   1.475  11.712 -1.1002 -0.5570  0.7275
11359TIP3    H255569   6.503   1.605  11.635  3.5287 -1.0996 -0.1381
11360TIP3   OH255570   0.194   6.762   5.783 -0.6193  0.2999 -0.0211
11360TIP3    H155571   0.281   6.793   5.807 -0.1941  1.3399 -2.5212
11360TIP3    H255572   0.209   6.677   5.742 -0.8565  0.1848  0.1304
11361TIP3   OH255573   5.807   0.505  16.818 -0.1033 -0.6288  0.2159
11361TIP3    H155574   5.899   0.500  16.794 -0.1871  0.1399 -0.3080
11361TIP3    H255575   5.806   0.553  16.901  0.0193 -1.3196  0.6242
11362TIP3   OH255576   0.770   1.942  14.297  0.3401 -0.2472 -0.3542
11362TIP3    H155577   0.782   1.871  14.233  0.7436  2.4594 -3.5230
11362TIP3    H255578   0.828   2.011  14.267 -1.4118  2.1629  1.4703
11363TIP3   OH255579   3.482   5.934   2.113 -0.1010  0.2469 -0.2702
11363TIP3    H155580   3.499   5.864   2.050  3.0311  0.5190  0.0939
11363TIP3    H255581   3.546   5.918   2.183  0.7599  3.4129 -0.1906
11364TIP3   OH255582   4.006   4.760  10.495 -0.1282  0.1609 -0.2002
11364TIP3    H155583   4.043   4.756  10.407 -2.4296 -1.1321 -1.2065
11364TIP3    H255584   4.030   4.677  10.535  0.9113  0.7454  0.4381
11365TIP3   OH255585   4.334   0.889  17.201 -0.0259 -0.1856 -0.2202
11365TIP3    H155586   4.396   0.945  17.248  1.2461 -2.1233  0.5436
11365TIP3    H255587   4.248   0.920  17.229  0.6524  0.7623  0.9249
11366TIP3   OH255588   5.555   6.473   1.591  0.2677 -0.5428  0.1637
11366TIP3    H155589   5.590   6.401   1.644  0.6600 -0.9065 -0.5760
11366TIP3    H255590   5.461   6.469   1.605  0.2565 -1.3741 -0.0625
11367TIP3   OH255591   5.163   1.480  16.203 -0.5615  0.1049 -0.5821
11367TIP3    H155592   5.163   1.514  16.114 -0.8960  0.1244 -0.5784
11367TIP3    H255593   5.143   1.387  16.194  2.4222 -0.5891 -0.7449
11368TIP3   OH255594   2.834   0.018  12.278 -0.1366 -0.3411 -0.2794
11368TIP3    H155595   2.858   0.054  12.192  0.2225 -1.0896 -0.5037
11368TIP3    H255596   2.837  -0.077  12.266 -0.1475 -0.4544  0.5476
11369TIP3   OH255597   1.178   1.117  13.595 -0.0322  0.1788  0.2087
11369TIP3    H155598   1.111   1.185  13.583  1.0411  0.8902 -2.5153
11369TIP3    H255599   1.135   1.036  13.567 -0.6811  0.0589  1.4934
11370TIP3   OH255600   4.959   4.634   6.006  0.2888  0.3881  0.5913
11370TIP3    H155601   4.963   4.683   5.924  2.7138 -1.0999 -0.2687
11370TIP3    H255602   4.865   4.620   6.021 -0.2815  2.0061 -1.0806
11371TIP3   OH255603   5.730   2.190  15.523 -0.7650 -0.3500 -0.4602
11371TIP3    H155604   5.806   2.185  15.582 -1.7024  0.8068  0.9089
11371TIP3    H255605   5.656   2.208  15.581 -1.8602  0.0524 -1.9361
11372TIP3   OH255606   4.718   2.949   4.718  0.2863  0.4083  0.0367
11372TIP3    H155607   4.787   3.016   4.721  1.7584 -1.0210 -0.5323
11372TIP3    H255608   4.735   2.901   4.637 -0.1601 -1.2510  0.8885
11373TIP3   OH255609   0.112   1.953  16.106  0.3542  0.6115  0.4977
11373TIP3    H155610   0.183   1.997  16.152  0.4917 -1.1806  2.1415
11373TIP3    H255611   0.032   1.996  16.137  0.5155  0.0776  1.7122
11374TIP3   OH255612   5.587   3.412  16.893 -0.0214 -0.2572  0.6297
11374TIP3    H155613   5.540   3.329  16.890  1.0173 -0.8552  0.2465
11374TIP3    H255614   5.664   3.393  16.947  0.1127  0.5219  0.7216
11375TIP3   OH255615   5.596   3.270  14.878  0.1099  0.0520  0.2591
11375TIP3    H155616   5.577   3.176  14.877 -0.8532  0.2333 -0.1100
11375TIP3    H255617   5.542   3.305  14.807 -0.1291  0.9846  0.8930
11376TIP3   OH255618   1.047   5.802  17.136 -0.8161  0.0124 -0.1098
11376TIP3    H155619   1.052   5.770  17.226  2.3577  1.0257  0.1976
11376TIP3    H255620   1.057   5.723  17.082 -1.8943 -0.4955  0.4020
11377TIP3   OH255621   4.539   4.904  16.098 -0.1064 -0.8710  0.2767
11377TIP3    H155622   4.553   4.983  16.046  0.1174 -0.3881  1.0583
11377TIP3    H255623   4.471   4.927  16.160 -0.2808 -1.4034  0.2903
11378TIP3   OH255624   1.713   6.564  13.851  0.0499  0.2816 -0.1507
11378TIP3    H155625   1.678   6.574  13.939  1.5188  0.3107  0.4523
11378TIP3    H255626   1.709   6.652  13.814  0.2411  0.4417  0.2060
11379TIP3   OH255627   6.325   2.024  15.861 -0.5911 -0.3849 -0.3162
11379TIP3    H155628   6.304   1.979  15.780 -0.3405  1.7325 -1.6257
11379TIP3    H255629   6.409   2.066  15.845 -1.5612  1.9347  0.1574
11380TIP3   OH255630   1.067   4.515  11.330 -0.3927 -0.1165 -0.0140
11380TIP3    H155631   1.111   4.534  11.247 -1.6098 -1.0640 -0.9017
11380TIP3    H255632   1.052   4.601  11.369  1.4956  0.2791 -0.0492
11381TIP3   OH255633   5.119   2.746  13.056 -0.1995 -0.0374  0.2022
11381TIP3    H155634   5.065   2.669  13.079  0.3089 -0.5039 -0.1438
11381TIP3    H255635   5.124   2.796  13.137 -0.2803 -0.5330  0.5228
11382TIP3   OH255636   0.484   5.601  10.987 -0.4477 -0.0505 -0.2895
11382TIP3    H155637   0.544   5.540  11.029  0.7622  1.0437 -0.3584
11382TIP3    H255638   0.437   5.548  10.922  0.6348 -0.8849 -0.4149
11383TIP3   OH255639   0.373   2.091   3.815 -0.0428 -0.4247 -0.2226
11383TIP3    H155640   0.464   2.061   3.819  0.3883  0.5672 -1.6273
11383TIP3    H255641   0.369   2.143   3.734 -0.8612  2.8069  1.7106
11384TIP3   OH255642   0.876   1.467   3.907 -0.1319 -0.1137  0.3886
11384TIP3    H155643   0.812   1.471   3.836  1.1296  0.8434 -0.7442
11384TIP3    H255644   0.933   1.393   3.883  0.6250  0.5503  0.0669
11385TIP3   OH255645   1.004   1.118  14.007  0.8561  0.4675  0.6944
11385TIP3    H155646   1.056   1.190  13.973  1.9850  0.5900  2.5477
11385TIP3    H255647   1.065   1.045  14.016  0.0153 -0.3505  0.0674
11386TIP3   OH255648   4.890   2.728  15.088 -0.8915  0.3209  0.4372
11386TIP3    H155649   4.956   2.751  15.022  1.0134  0.7221  2.4056
11386TIP3    H255650   4.847   2.651  15.052  0.7911 -0.1039 -0.8091
11387TIP3   OH255651   1.767   1.449   4.449 -0.1421 -0.2457  0.6021
11387TIP3    H155652   1.823   1.518   4.484 -1.3760  0.8419  0.4968
11387TIP3    H255653   1.697   1.440   4.513 -1.4488  0.5102 -0.6621
11388TIP3   OH255654   3.801   4.428  15.702  0.0538  0.3594 -0.5273
11388TIP3    H155655   3.718   4.381  15.694  0.1405 -0.1896  1.3729
11388TIP3    H255656   3.788   4.488  15.776  1.0922  0.8590 -0.7277
11389TIP3   OH255657   6.129   3.351  15.583 -0.7381  0.0798  0.0546
11389TIP3    H155658   6.153   3.438  15.614  0.0623 -0.0916 -0.0471
11389TIP3    H255659   6.190   3.292  15.627 -1.3467 -0.4406  0.2095
11390TIP3   OH255660   2.142   2.341   0.101  0.4146 -0.1562  0.3515
11390TIP3    H155661   2.123   2.387   0.183 -0.6720  1.5015 -0.7702
11390TIP3    H255662   2.201   2.270   0.127  0.7204  0.7730  2.4449
11391TIP3   OH255663   6.472   4.520  17.279 -0.6453 -0.5578 -0.1001
11391TIP3    H155664   6.453   4.575  17.356  0.0173 -0.5316  0.0567
11391TIP3    H255665   6.439   4.571  17.205  1.7583  1.0709 -0.1824
11392TIP3   OH255666   5.233   3.660   4.623  0.1194  0.4352  0.2316
11392TIP3    H155667   5.295   3.732   4.629  0.0952  0.4066  0.8386
11392TIP3    H255668   5.272   3.589   4.675 -0.8992  0.7750  1.5008
11393TIP3   OH255669   0.429   6.093   4.700  0.5817  0.8902 -0.1578
11393TIP3    H155670   0.385   6.150   4.764  0.5184  0.6394  0.0224
11393TIP3    H255671   0.405   6.129   4.615 -0.3579  0.4752 -0.0768
11394TIP3   OH255672   2.676   4.560  15.834  0.1482  0.1461 -0.3576
11394TIP3    H155673   2.680   4.497  15.906  0.7902  1.4800  0.8180
11394TIP3    H255674   2.767   4.571  15.806  0.2070  1.3866  0.2406
11395TIP3   OH255675   3.140   3.252   3.194  0.3972 -0.4705  0.0402
11395TIP3    H155676   3.176   3.328   3.150 -0.3268  2.2384  3.6594
11395TIP3    H255677   3.051   3.278   3.217 -0.0500 -2.6227  0.9667
11396TIP3   OH255678   6.311   3.765   4.677  0.8618  0.3451 -0.1252
11396TIP3    H155679   6.396   3.730   4.649  1.3092  0.3095  1.2148
11396TIP3    H255680   6.273   3.694   4.730 -0.7580 -0.2973 -2.0237
11397TIP3   OH255681   2.815   6.655  14.190  0.7266 -0.3244 -0.4115
11397TIP3    H155682   2.887   6.719  14.191 -0.4529  1.0806  1.6789
11397TIP3    H255683   2.760   6.683  14.116  0.3534  0.9927  0.3277
11398TIP3   OH255684   1.818   0.164   5.294 -0.5126 -0.3237  0.2817
11398TIP3    H155685   1.738   0.169   5.241 -2.0464  0.0876  2.4620
11398TIP3    H255686   1.842   0.256   5.309 -1.6566 -0.2717  2.3259
11399TIP3   OH255687   2.809   2.603   0.377 -0.5773  0.6590  0.0450
11399TIP3    H155688   2.900   2.629   0.360 -0.9171  1.9293  0.0522
11399TIP3    H255689   2.771   2.591   0.290 -0.4108  0.1289  0.0419
11400TIP3   OH255690   2.205   2.268   0.505 -0.2096  0.1717  0.0365
11400TIP3    H155691   2.253   2.277   0.587  0.2187 -0.6634 -0.1109
11400TIP3    H255692   2.241   2.336   0.448  0.3229 -0.0022  0.1619
11401TIP3   OH255693   3.576   4.641   5.779 -0.3996 -0.3111  0.7296
11401TIP3    H155694   3.591   4.607   5.691 -0.2710  0.5637  0.3993
11401TIP3    H255695   3.637   4.592   5.835  2.6093  1.9304 -0.2955
11402TIP3   OH255696   2.634   5.985   0.391 -0.5234 -0.1373  0.3315
11402TIP3    H155697   2.606   6.049   0.325 -1.2349 -1.2886 -0.5203
11402TIP3    H255698   2.556   5.932   0.408  0.0505 -0.7923  1.0003
11403TIP3   OH255699   1.781   1.181  12.757  0.3531 -0.0627 -0.2858
11403TIP3    H155700   1.707   1.214  12.807  0.5845 -1.0350  0.7247
11403TIP3    H255701   1.854   1.239  12.782 -0.2683  1.6510 -2.1762
11404TIP3   OH255702   4.607   2.770  11.289 -0.5362 -0.3404  0.2102
11404TIP3    H155703   4.575   2.690  11.248  0.1088 -0.2729 -0.4347
11404TIP3    H255704   4.674   2.740  11.351 -2.9273 -0.6534  2.8208
11405TIP3   OH255705   0.678   6.422  14.705 -0.6785  0.1227  1.0150
11405TIP3    H155706   0.652   6.339  14.744  0.1422 -0.9143 -0.5330
11405TIP3    H255707   0.689   6.403  14.612  2.2362  1.2679  1.0240
11406TIP3   OH255708   4.599   0.266   3.976  0.3708  0.0429 -0.1335
11406TIP3    H155709   4.637   0.220   4.051 -1.4773 -3.6114 -1.1554
11406TIP3    H255710   4.504   0.263   3.991  0.0598  0.9315 -1.6860
11407TIP3   OH255711   2.157   0.161  14.610 -0.4421  0.0897  0.4810
11407TIP3    H155712   2.139   0.247  14.649 -1.5107 -0.6877  1.7885
11407TIP3    H255713   2.071   0.120  14.603  0.0582 -0.9005 -0.0822
11408TIP3   OH255714   5.912   2.194   4.244  0.8035 -0.2356 -0.5630
11408TIP3    H155715   5.904   2.161   4.155 -0.6789 -0.6089 -0.3206
11408TIP3    H255716   5.978   2.138   4.285  0.5802 -0.8718 -1.0660
11409TIP3   OH255717   3.710   1.673  11.227  0.2857  0.5026  0.3466
11409TIP3    H155718   3.705   1.762  11.261 -1.9598  0.6954 -0.3009
11409TIP3    H255719   3.747   1.622  11.299  0.3612  1.7371  1.2084
11410TIP3   OH255720   1.383   2.621   1.535  0.1665  0.1402 -0.4178
11410TIP3    H155721   1.456   2.577   1.492 -1.2538 -2.3158 -0.4823
11410TIP3    H255722   1.306   2.597   1.483 -0.7332  2.9143 -0.5618
11411TIP3   OH255723   5.803   2.095   5.598  0.0695 -1.0429 -0.6619
11411TIP3    H155724   5.893   2.087   5.627  0.3561  1.5737 -0.5816
11411TIP3    H255725   5.751   2.074   5.675  0.5770 -2.0787 -0.5765
11412TIP3   OH255726   1.484   2.280  15.959 -0.7060  0.1089  0.7835
11412TIP3    H155727   1.404   2.328  15.940 -0.0525  0.4450 -1.3408
11412TIP3    H255728   1.462   2.188  15.945 -1.4946 -0.1609  3.2233
11413TIP3   OH255729   1.038   1.744   1.394 -0.1870  0.0746 -0.0251
11413TIP3    H155730   1.058   1.790   1.476  0.1309 -1.4255  0.7692
11413TIP3    H255731   1.072   1.656   1.408  0.4309 -0.0470 -2.0142
11414TIP3   OH255732   1.523   5.450   1.492  0.2875  0.6359 -0.2611
11414TIP3    H155733   1.448   5.390   1.491 -0.1924  1.1840 -2.3522
11414TIP3    H255734   1.586   5.409   1.551 -1.0754 -0.5666  0.4167
11415TIP3   OH255735   3.919   3.740  12.455 -0.6875 -0.0780 -0.5158
11415TIP3    H155736   3.856   3.777  12.516  0.9483 -1.3192  2.0860
11415TIP3    H255737   4.002   3.784  12.475  0.3496 -1.9995 -0.3009
11416TIP3   OH255738   1.850   0.533   3.037 -0.4731 -0.2369  0.0131
11416TIP3    H155739   1.942   0.508   3.028 -0.7432 -1.3666  0.1451
11416TIP3    H255740   1.821   0.552   2.948 -0.6818 -2.1040 -0.3631
11417TIP3   OH255741   1.930   1.639   4.586  0.2009 -0.4413 -0.2782
11417TIP3    H155742   2.024   1.630   4.598  0.2662 -1.8341 -1.5417
11417TIP3    H255743   1.920   1.716   4.530  0.7004 -1.0574 -1.2444
11418TIP3   OH255744   4.313   5.481  12.197  0.6619 -0.0029  0.5937
11418TIP3    H155745   4.266   5.534  12.133  0.7577 -0.9394 -0.2617
11418TIP3    H255746   4.333   5.399  12.152  1.8948 -0.1689  1.3873
11419TIP3   OH255747   4.941   0.996  14.332  0.2236  0.3630 -0.6027
11419TIP3    H155748   4.896   0.917  14.363  1.7096 -0.7251 -1.1348
11419TIP3    H255749   4.894   1.020  14.252 -1.6287  1.3586  0.6976
11420TIP3   OH255750   3.500   2.792   2.408 -0.4671 -0.2815 -0.2066
11420TIP3    H155751   3.552   2.790   2.327 -0.0830  1.7122 -0.0656
11420TIP3    H255752   3.438   2.721   2.398 -1.1791  0.5919 -2.8035
11421TIP3   OH255753   1.115   6.033  12.528  0.3153 -0.0313  0.7145
11421TIP3    H155754   1.147   6.115  12.491 -0.4470  0.5653  1.3358
11421TIP3    H255755   1.188   6.001  12.581  1.4381 -0.9193 -1.2731
11422TIP3   OH255756   3.508   0.174  16.768 -0.2152 -0.3544 -0.0991
11422TIP3    H155757   3.484   0.085  16.795  0.4335 -0.3612  0.4709
11422TIP3    H255758   3.451   0.231  16.819  1.1323 -0.3568  1.4842
11423TIP3   OH255759   4.847   2.147   1.480 -0.2323  0.5526  0.2286
11423TIP3    H155760   4.896   2.102   1.411 -0.6794 -0.4512  0.5568
11423TIP3    H255761   4.772   2.090   1.497 -0.7974  1.4095  0.6766
11424TIP3   OH255762   6.343   2.967   3.416 -0.0805 -0.7791  0.2332
11424TIP3    H155763   6.269   2.980   3.476  0.7208  1.4175  0.8411
11424TIP3    H255764   6.409   2.921   3.469 -0.3036 -1.1063  0.2353
11425TIP3   OH255765   3.215   4.605   2.129  0.3550 -0.4222 -0.8496
11425TIP3    H155766   3.248   4.566   2.210 -0.7827  1.9708  0.9198
11425TIP3    H255767   3.179   4.532   2.079  2.9800 -2.2729 -0.2210
11426TIP3   OH255768   6.515   2.645   5.024  0.0237 -0.0233  0.0965
11426TIP3    H155769   6.515   2.719   5.084 -1.6654  0.5046 -0.4890
11426TIP3    H255770   6.524   2.568   5.081 -1.0824  0.4921  1.0157
11427TIP3   OH255771   1.124   2.035  11.488  0.5676  0.3263  0.1160
11427TIP3    H155772   1.167   2.118  11.464  2.8865 -0.5321  0.9736
11427TIP3    H255773   1.080   2.054  11.571 -2.3253  1.6691 -1.5743
11428TIP3   OH255774   3.553   3.239   0.352 -0.1310  0.7575  0.2469
11428TIP3    H155775   3.636   3.203   0.319 -1.1936 -0.0250 -1.7818
11428TIP3    H255776   3.567   3.333   0.355  0.8576  0.6335 -0.0330
11429TIP3   OH255777   4.379   6.084   2.688 -0.5203  0.0452 -0.0351
11429TIP3    H155778   4.345   6.085   2.778 -3.6104  1.1056 -1.1012
11429TIP3    H255779   4.467   6.123   2.696  0.4080 -2.2893  2.8095
11430TIP3   OH255780   1.138   5.813  11.136  0.3944  0.1116  0.5459
11430TIP3    H155781   1.191   5.823  11.057  0.9545  0.4795  0.9654
11430TIP3    H255782   1.102   5.724  11.129 -1.5546  0.9564 -1.3248
11431TIP3   OH255783   4.119   0.472  14.232 -0.7277 -0.1247  0.0678
11431TIP3    H155784   4.117   0.551  14.177 -1.3030 -0.3174 -0.2018
11431TIP3    H255785   4.139   0.401  14.172  0.4488 -0.1107  0.4214
11432TIP3   OH255786   6.242   4.238  13.497  0.2400  0.1680  0.1151
11432TIP3    H155787   6.334   4.244  13.471  0.1770  0.1073 -0.1321
11432TIP3    H255788   6.197   4.298  13.437  0.2862  1.2190  1.1057
11433TIP3   OH255789   3.793   5.844   1.729  0.2069  0.6640  0.4312
11433TIP3    H155790   3.763   5.755   1.742 -1.4772  1.2671  0.9130
11433TIP3    H255791   3.763   5.891   1.806 -0.4022  1.9987 -0.5769
11434TIP3   OH255792   0.016   4.015  16.529 -0.0093 -0.1940 -0.1525
11434TIP3    H155793   0.014   4.099  16.574  0.5277 -1.8051  3.1707
11434TIP3    H255794   0.109   3.996  16.517 -0.0814 -0.9112  0.3760
11435TIP3   OH255795   0.150   5.360   4.125  0.3244 -0.3365  0.1023
11435TIP3    H155796   0.065   5.337   4.087  0.1101  1.6314 -0.7456
11435TIP3    H255797   0.213   5.337   4.057  0.4473 -1.4056  0.5644
11436TIP3   OH255798   0.115   0.217   4.240 -0.0176  0.4368 -0.0533
11436TIP3    H155799   0.052   0.149   4.263  0.5276  0.1906  0.7296
11436TIP3    H255800   0.195   0.194   4.286  0.3170  1.3645 -0.1324
11437TIP3   OH255801   3.244   0.216   1.540  0.1907 -0.2742 -0.0432
11437TIP3    H155802   3.301   0.291   1.559 -0.2256  0.1213 -0.3236
11437TIP3    H255803   3.206   0.194   1.625 -1.7200  1.5372 -0.3426
11438TIP3   OH255804   3.117   2.204   0.335 -0.2529  0.0793 -0.1896
11438TIP3    H155805   3.033   2.186   0.291 -0.5908 -2.2835  1.2724
11438TIP3    H255806   3.101   2.183   0.427  1.9286 -0.3332  0.1412
11439TIP3   OH255807   3.805   0.329  13.127 -0.0076  0.1843  0.2271
11439TIP3    H155808   3.889   0.329  13.080 -0.4389 -1.2290 -0.5668
11439TIP3    H255809   3.740   0.348  13.060 -0.2280  3.6381  1.1904
11440TIP3   OH255810   4.651   5.945  12.441  0.1126  0.1475 -0.0282
11440TIP3    H155811   4.726   6.002  12.422  0.4276  0.0816  0.9552
11440TIP3    H255812   4.583   5.974  12.380  0.7069  0.6865 -0.4492
11441TIP3   OH255813   4.922   6.579  11.324  0.2088 -0.0951 -0.2367
11441TIP3    H155814   4.938   6.642  11.395  1.7340 -0.4242 -0.2583
11441TIP3    H255815   4.971   6.614  11.250  0.8172 -1.1574 -0.3425
11442TIP3   OH255816   5.223   6.351  16.476  0.4316  0.2246  0.6137
11442TIP3    H155817   5.288   6.381  16.539  0.3187 -0.0124  0.8448
11442TIP3    H255818   5.228   6.256  16.480  0.4230  0.2098  0.2655
11443TIP3   OH255819   2.666   1.725  15.162 -0.3867  0.5601  0.6589
11443TIP3    H155820   2.724   1.790  15.201 -1.3002  0.3842  2.4151
11443TIP3    H255821   2.695   1.718  15.071  0.1845  2.8962  0.5968
11444TIP3   OH255822   3.565   4.743  15.135  0.1082 -0.2294 -0.2381
11444TIP3    H155823   3.611   4.805  15.192  0.4523 -0.2498 -0.4922
11444TIP3    H255824   3.473   4.761  15.151  0.1869 -0.6158  0.7547
11445TIP3   OH255825   1.471   3.183   4.569  0.1595 -0.4528 -0.5731
11445TIP3    H155826   1.557   3.161   4.533 -0.4025 -1.7256 -1.1682
11445TIP3    H255827   1.428   3.233   4.500  0.6477  0.7690 -0.0209
11446TIP3   OH255828   3.102   1.451  16.565 -0.0149  0.0562 -0.6878
11446TIP3    H155829   3.174   1.495  16.519 -0.5191  0.6730 -0.9085
11446TIP3    H255830   3.058   1.400  16.497 -1.0122  1.2951 -1.0172
11447TIP3   OH255831   6.725   1.279  12.552 -0.0983 -0.2603  0.0944
11447TIP3    H155832   6.712   1.325  12.469  0.1112 -0.3874 -0.0079
11447TIP3    H255833   6.636   1.269  12.587 -0.5483 -2.8374 -1.5254
11448TIP3   OH255834   6.307   2.803   5.783  0.5502  0.3195  0.4565
11448TIP3    H155835   6.374   2.734   5.780  0.3925  0.2031 -0.7246
11448TIP3    H255836   6.338   2.870   5.722  0.2021  0.8388  0.8417
11449TIP3   OH255837   0.345   1.280   2.816 -0.1964  0.2478  0.1521
11449TIP3    H155838   0.377   1.332   2.891 -0.9317  1.5116 -0.3740
11449TIP3    H255839   0.424   1.262   2.765  0.0628  1.0709  0.2335
11450TIP3   OH255840   2.776   6.313   1.207 -0.4971 -0.2384 -0.1115
11450TIP3    H155841   2.737   6.400   1.216  0.6750  0.3613 -0.6053
11450TIP3    H255842   2.837   6.306   1.281  1.0939  0.3077 -1.3185
11451TIP3   OH255843   0.786   1.139   1.904 -0.0028 -0.0420 -0.3359
11451TIP3    H155844   0.754   1.229   1.900  0.7136  0.2306 -0.0656
11451TIP3    H255845   0.728   1.096   1.968 -0.1878  0.2874 -0.2817
11452TIP3   OH255846   2.151   2.484   4.802 -0.2727  0.3602 -0.1022
11452TIP3    H155847   2.137   2.567   4.754  0.0374  0.4299 -0.0734
11452TIP3    H255848   2.100   2.494   4.882 -0.1376  0.5750 -0.0421
11453TIP3   OH255849   3.252   4.320   0.800 -0.1281  0.0332  1.0230
11453TIP3    H155850   3.242   4.415   0.797  0.8401  0.1988  2.2221
11453TIP3    H255851   3.254   4.293   0.709 -1.2824  1.0502  0.6625
11454TIP3   OH255852   4.467   5.299   3.709  0.1589 -1.0753  0.3114
11454TIP3    H155853   4.504   5.279   3.623  1.0276 -0.2149  0.4634
11454TIP3    H255854   4.483   5.393   3.721 -2.6134 -0.5045  0.1495
11455TIP3   OH255855   5.250   6.367   3.120 -0.2431 -0.0763 -0.1343
11455TIP3    H155856   5.295   6.438   3.165 -2.2602  0.9786  0.3388
11455TIP3    H255857   5.299   6.288   3.144  0.6475  0.8556  1.2445
11456TIP3   OH255858   6.116   4.883   1.862 -0.3816 -0.1268  0.1049
11456TIP3    H155859   6.151   4.864   1.949  0.6867  1.1521 -0.0151
11456TIP3    H255860   6.138   4.975   1.846  0.1034 -0.5146 -1.8036
11457TIP3   OH255861   5.251   1.495   5.603  0.3588  0.1312 -0.5855
11457TIP3    H155862   5.283   1.430   5.666  0.0355 -1.3457 -1.8862
11457TIP3    H255863   5.226   1.444   5.526 -0.5215  1.7480 -1.4294
11458TIP3   OH255864   5.221   4.031   4.113 -0.1085  0.2287  0.1107
11458TIP3    H155865   5.269   3.949   4.125 -0.3076  0.0489 -0.2797
11458TIP3    H255866   5.245   4.085   4.188  0.1375 -0.1330  0.2940
11459TIP3   OH255867   5.053   2.609   1.100  0.0415 -0.1790  0.1770
11459TIP3    H155868   5.129   2.565   1.064  0.9214  1.4530 -0.0180
11459TIP3    H255869   5.026   2.554   1.174 -0.1128 -2.0689 -1.2204
11460TIP3   OH255870   2.033   6.486  11.146  0.2962 -0.2640  0.1622
11460TIP3    H155871   1.963   6.438  11.101  1.0519 -2.2871  1.0367
11460TIP3    H255872   2.092   6.515  11.076 -0.8624  0.6124 -0.4913
11461TIP3   OH255873   1.774   1.566  15.174 -0.1895  1.0958  0.6547
11461TIP3    H155874   1.830   1.547  15.249  1.2909  0.3831 -0.5657
11461TIP3    H255875   1.740   1.480  15.147 -0.8234  1.3623  0.5854
11462TIP3   OH255876   6.601   3.351   2.014  0.1509  0.4389  0.0073
11462TIP3    H155877   6.632   3.329   1.927 -1.2778  2.1569 -0.9984
11462TIP3    H255878   6.516   3.307   2.021  0.3101  0.2132  0.5902
11463TIP3   OH255879   6.239   2.129  14.792  0.3543  0.0680 -0.5086
11463TIP3    H155880   6.265   2.069  14.862  1.6980 -0.0938 -1.1111
11463TIP3    H255881   6.159   2.171  14.825 -0.3512 -1.6696  0.1377
11464TIP3   OH255882   6.200   6.277   3.737  0.7418 -0.5698 -0.2178
11464TIP3    H155883   6.118   6.281   3.785  1.2666  1.7412  0.6257
11464TIP3    H255884   6.177   6.297   3.647  0.5687  2.4361  0.4043
11465TIP3   OH255885   4.603   3.836   6.668  0.5435 -0.4151  0.2678
11465TIP3    H155886   4.646   3.905   6.719  0.8593 -1.0723  0.9079
11465TIP3    H255887   4.630   3.755   6.710  0.3272 -0.9441 -0.5944
11466TIP3   OH255888   1.943   2.647  14.237 -0.0696 -0.3808 -0.0264
11466TIP3    H155889   1.861   2.638  14.188 -0.8943  0.5084  1.1411
11466TIP3    H255890   2.010   2.609  14.180 -0.9821  0.6428 -1.8557
11467TIP3   OH255891   6.388   5.908   1.519 -0.2892  0.2600 -0.1386
11467TIP3    H155892   6.398   5.889   1.426 -1.6446 -0.0025 -0.2473
11467TIP3    H255893   6.478   5.922   1.550  0.2230 -0.1393 -1.3676
11468TIP3   OH255894   2.307   0.649  14.164  0.2503 -0.0746  0.3523
11468TIP3    H155895   2.270   0.562  14.174 -0.6386  0.2638  0.1146
11468TIP3    H255896   2.382   0.637  14.107 -0.2335 -0.5926 -0.1871
11469TIP3   OH255897   0.395   1.883  11.399 -0.0171  0.6529 -0.1785
11469TIP3    H155898   0.435   1.800  11.375 -0.7748 -0.3029  1.6691
11469TIP3    H255899   0.427   1.945  11.333  2.1044 -0.6598 -0.4838
11470TIP3   OH255900   3.339   0.894  13.396 -0.1842  0.6275 -0.0829
11470TIP3    H155901   3.245   0.911  13.406 -0.1184  0.1345  1.7166
11470TIP3    H255902   3.355   0.817  13.450  0.5097 -2.1421 -3.8180
11471TIP3   OH255903   2.688   4.583  17.203 -0.3542 -0.0571 -0.8016
11471TIP3    H155904   2.600   4.608  17.228 -0.7540 -0.6750 -1.5641
11471TIP3    H255905   2.702   4.623  17.117 -0.5805 -1.4218 -1.5075
11472TIP3   OH255906   0.120   5.681   6.648  0.2573  0.4005  0.3028
11472TIP3    H155907   0.178   5.748   6.685 -1.0696  2.3550 -0.9253
11472TIP3    H255908   0.077   5.726   6.575  1.1834 -2.5903 -2.3017
11473TIP3   OH255909   0.206   2.905  10.970 -0.1655 -0.1388 -0.0256
11473TIP3    H155910   0.148   2.942  10.903 -0.9815 -1.8352 -0.3305
11473TIP3    H255911   0.286   2.883  10.923  0.1354  0.7376  0.0569
11474TIP3   OH255912   5.670   0.726  17.329  0.2392  0.1496 -0.0931
11474TIP3    H155913   5.746   0.682  17.368 -0.0492 -0.3584 -0.1070
11474TIP3    H255914   5.664   0.809  17.378 -1.5699 -1.4538  2.6947
11475TIP3   OH255915   0.936   5.842  15.833  0.3011  0.0108 -0.1616
11475TIP3    H155916   0.949   5.756  15.795  0.2562  0.0929 -0.3666
11475TIP3    H255917   1.010   5.894  15.802  0.9937 -0.2747  0.9473
11476TIP3   OH255918   4.061   6.298  16.151  0.3028  0.2318 -0.1829
11476TIP3    H155919   4.136   6.356  16.137  1.1884 -0.8535 -0.0735
11476TIP3    H255920   4.068   6.272  16.243  0.6887 -1.0779 -0.5655
11477TIP3   OH255921   0.416   6.541   5.771 -0.3949 -0.1169 -0.0316
11477TIP3    H155922   0.403   6.587   5.854  1.6566  0.5770 -0.0309
11477TIP3    H255923   0.500   6.495   5.783 -1.2335 -1.9812 -0.8815
11478TIP3   OH255924   5.383   6.756  10.701 -0.4374 -0.0480  0.6327
11478TIP3    H155925   5.409   6.845  10.678  0.9532 -0.4871  0.4064
11478TIP3    H255926   5.420   6.701  10.631 -0.2374 -0.9207  1.4027
11479TIP3   OH255927   4.017   2.817   4.425 -0.3276 -0.0086 -0.0384
11479TIP3    H155928   3.999   2.855   4.339  0.9282  0.2019 -0.2200
11479TIP3    H255929   4.098   2.859   4.454 -0.9195  0.2083  1.4270
11480TIP3   OH255930   6.406   0.678  12.612 -0.3693 -0.4437 -0.6159
11480TIP3    H155931   6.498   0.673  12.637 -0.8445 -0.4411  1.2619
11480TIP3    H255932   6.403   0.745  12.544  0.8572  0.4488  0.1787
11481TIP3   OH255933   2.972   4.743  10.893  0.9549  0.2596 -0.1335
11481TIP3    H155934   2.973   4.662  10.842  1.1941  0.4130 -0.3758
11481TIP3    H255935   2.985   4.715  10.983  3.3627  0.1875 -0.4437
11482TIP3   OH255936   1.245   3.059  16.072  0.2348 -0.7571 -0.3038
11482TIP3    H155937   1.217   3.053  15.981  0.5592  2.0532 -0.6537
11482TIP3    H255938   1.164   3.056  16.123  0.0152 -1.7110 -0.6777
11483TIP3   OH255939   6.153   6.216   5.383  0.3217 -0.4440  0.1730
11483TIP3    H155940   6.162   6.181   5.472  0.6929 -2.1581 -0.4955
11483TIP3    H255941   6.074   6.175   5.349  0.3726 -0.0691 -0.4002
11484TIP3   OH255942   0.249   4.817   3.421 -0.3247  0.7432  0.1932
11484TIP3    H155943   0.161   4.784   3.405 -0.9862  2.5876 -0.3252
11484TIP3    H255944   0.301   4.786   3.347 -0.7727  0.4014  0.0229
11485TIP3   OH255945   4.111   5.417  14.310  0.3594  0.1257  0.4861
11485TIP3    H155946   4.023   5.388  14.331 -0.0201  0.4196 -0.6429
11485TIP3    H255947   4.100   5.482  14.241  1.4304  0.4841  0.6279
11486TIP3   OH255948   4.332   4.692   5.494 -0.7709 -0.6099 -0.4066
11486TIP3    H155949   4.293   4.730   5.415 -2.4423  2.4107  1.6780
11486TIP3    H255950   4.272   4.621   5.518 -2.2353  0.6836 -0.0519
11487TIP3   OH255951   1.857   5.584  12.981 -0.0676  0.1488 -0.0871
11487TIP3    H155952   1.765   5.558  12.976 -0.3397  0.2122  2.8082
11487TIP3    H255953   1.858   5.673  12.946 -1.1948  0.2965  0.2001
11488TIP3   OH255954   4.079   4.650   1.897 -0.2848  0.2998  0.0146
11488TIP3    H155955   4.000   4.675   1.851  0.0034 -0.3142 -0.8358
11488TIP3    H255956   4.063   4.675   1.988 -1.2033  0.7318 -0.2579
11489TIP3   OH255957   0.611   2.418   4.728  0.2233 -0.1346 -0.3357
11489TIP3    H155958   0.681   2.352   4.728  0.5787  0.2176  0.6308
11489TIP3    H255959   0.636   2.479   4.659  2.2755  1.3815  1.6181
11490TIP3   OH255960   1.625   6.661   5.783  0.3538 -0.4557 -0.1465
11490TIP3    H155961   1.711   6.658   5.824 -0.3437 -2.1471  1.3324
11490TIP3    H255962   1.571   6.602   5.836 -0.8058 -2.2602 -3.0807
11491TIP3   OH255963   6.495   4.209   1.046  0.1517 -0.3998 -0.3889
11491TIP3    H155964   6.418   4.175   1.091 -0.4235  1.5008  0.1702
11491TIP3    H255965   6.523   4.138   0.989 -1.5679 -1.4086 -0.0455
11492TIP3   OH255966   3.987   0.717  13.811 -0.1131  0.1775  0.0379
11492TIP3    H155967   3.923   0.652  13.782 -1.7805  1.3897  0.8429
11492TIP3    H255968   4.064   0.700  13.757 -1.2047 -1.1453 -1.1969
11493TIP3   OH255969   2.631   4.282   0.846  0.0890 -0.0930  0.8059
11493TIP3    H155970   2.567   4.339   0.804  1.3652  1.2784  0.6440
11493TIP3    H255971   2.712   4.297   0.798  0.9142 -0.5879  1.9881
11494TIP3   OH255972   1.414   5.312  17.350  0.3818  0.0349  0.0213
11494TIP3    H155973   1.383   5.254  17.280  1.2300  1.0630 -1.2409
11494TIP3    H255974   1.341   5.372  17.365  0.6635  0.6467 -0.9392
11495TIP3   OH255975   2.516   3.455  14.185 -0.4055 -0.3587 -0.3727
11495TIP3    H155976   2.495   3.364  14.164 -2.0751  0.5038 -3.0287
11495TIP3    H255977   2.437   3.490  14.226  0.4867 -0.2372  1.3359
11496TIP3   OH255978   2.628   2.886  16.033  0.4790 -0.4090 -0.4558
11496TIP3    H155979   2.621   2.887  16.128  0.2377  0.2386 -0.4778
11496TIP3    H255980   2.537   2.884  16.002  0.2945  3.5185 -0.6985
11497TIP3   OH255981   5.145   1.016   3.300  0.3068  0.0265 -0.1878
11497TIP3    H155982   5.192   0.945   3.344  0.5444 -0.3269 -1.0030
11497TIP3    H255983   5.060   0.978   3.278  1.0194 -0.5555 -2.0915
11498TIP3   OH255984   4.535   4.330   4.099  0.4484 -0.0755  0.2404
11498TIP3    H155985   4.606   4.372   4.052 -0.5291 -0.6522 -1.8804
11498TIP3    H255986   4.462   4.329   4.037 -0.0870 -3.3866  0.7263
11499TIP3   OH255987   1.104   2.846   3.663 -0.2988  0.1311 -0.3355
11499TIP3    H155988   1.185   2.815   3.623 -0.4590  1.7254 -2.0170
11499TIP3    H255989   1.105   2.808   3.751  2.1618 -0.0574 -0.3738
11500TIP3   OH255990   5.287   3.571   3.377 -0.3093  0.6986  0.1689
11500TIP3    H155991   5.306   3.528   3.294 -1.6521  0.8578 -0.2376
11500TIP3    H255992   5.246   3.503   3.431  1.4978  0.2893  1.1287
11501TIP3   OH255993   6.273   2.567  11.937 -0.0782 -0.7999  0.1523
11501TIP3    H155994   6.320   2.504  11.992  2.0440 -0.6748 -1.4059
11501TIP3    H255995   6.295   2.652  11.974  0.8501 -0.7486 -0.4986
11502TIP3   OH255996   2.854   2.475   5.816  0.5939 -0.5129  0.4208
11502TIP3    H155997   2.793   2.424   5.763  1.4786 -0.9974 -0.1573
11502TIP3    H255998   2.811   2.482   5.902 -0.7514  0.0935 -0.2758
11503TIP3   OH255999   1.643   6.428   2.501  0.1363 -0.5372 -0.1868
11503TIP3    H156000   1.721   6.448   2.553  1.4468 -0.6322 -2.0120
11503TIP3    H256001   1.677   6.382   2.425 -1.5146  0.8246 -1.8284
11504TIP3   OH256002   6.791   5.424  14.262 -0.0042  0.5147  0.1953
11504TIP3    H156003   6.754   5.425  14.174  0.7019 -0.5190 -0.1292
11504TIP3    H256004   6.886   5.421  14.248  0.1179  0.4376  0.9933
11505TIP3   OH256005   5.370   3.566   5.813 -0.6201 -0.1414 -0.6500
11505TIP3    H156006   5.417   3.550   5.731  1.6430 -0.4331  0.5969
11505TIP3    H256007   5.336   3.655   5.805  1.1686  0.5447 -1.2422
11506TIP3   OH256008   1.888   2.389  15.041  0.2036  0.1181  0.6909
11506TIP3    H156009   1.804   2.345  15.045  1.6072 -2.8799 -0.3687
11506TIP3    H256010   1.893   2.439  15.123 -1.3556 -2.0199  2.1746
11507TIP3   OH256011   3.590   2.406  14.643 -0.2668 -0.7054  0.8541
11507TIP3    H156012   3.638   2.488  14.643 -1.1592 -0.1587  1.8031
11507TIP3    H256013   3.657   2.339  14.627  0.6068  0.1265  0.9483
11508TIP3   OH256014   2.383   3.568  11.660 -0.7077  0.6198 -0.0373
11508TIP3    H156015   2.417   3.599  11.576 -0.0132 -0.0500 -0.0114
11508TIP3    H256016   2.430   3.620  11.726 -1.8980  1.7783 -0.0653
11509TIP3   OH256017   3.142   0.625  17.056 -0.1948 -0.0226  0.0097
11509TIP3    H156018   3.052   0.604  17.029 -0.6328  0.0201  1.3616
11509TIP3    H256019   3.174   0.685  16.989 -0.3431 -1.7983 -1.7511
11510TIP3   OH256020   5.560   2.746   4.700 -0.1861 -0.0680  0.4059
11510TIP3    H156021   5.632   2.797   4.664 -0.9014  0.9724  0.3924
11510TIP3    H256022   5.519   2.804   4.763 -1.5418 -0.2961 -0.2199
11511TIP3   OH256023   0.103   0.115  16.531 -0.4835  0.6659  0.4231
11511TIP3    H156024   0.086   0.035  16.581  0.9807  0.7785  1.1636
11511TIP3    H256025   0.031   0.120  16.468 -1.5609 -0.2887  1.5279
11512TIP3   OH256026   6.113   4.276  17.326 -0.1281  0.3377  0.5383
11512TIP3    H156027   6.072   4.277  17.240 -0.1938  2.8279  0.5199
11512TIP3    H256028   6.050   4.232  17.383 -0.6420 -0.2155 -0.4459
11513TIP3   OH256029   4.297   1.799   2.298 -0.3487  0.2409  0.4896
11513TIP3    H156030   4.202   1.788   2.287 -0.0856 -2.8691  0.2651
11513TIP3    H256031   4.325   1.718   2.341  2.4526  0.2503 -1.1045
11514TIP3   OH256032   0.175   1.946  15.447  0.0913  0.0142  0.2021
11514TIP3    H156033   0.186   1.932  15.541 -0.3885  1.7777  0.5625
11514TIP3    H256034   0.175   2.041  15.437  0.1533 -0.1437 -1.5952
11515TIP3   OH256035   0.214   5.863   6.848 -0.0060  0.0721 -0.1911
11515TIP3    H156036   0.163   5.926   6.797 -1.8280 -0.2356  1.1206
11515TIP3    H256037   0.260   5.916   6.913  0.1752  0.2435 -0.4628
11516TIP3   OH256038   2.313   5.173   4.503  0.2114  0.2565 -0.2214
11516TIP3    H156039   2.408   5.174   4.516  0.2264  0.0227 -0.3009
11516TIP3    H256040   2.302   5.145   4.412  0.0335 -1.0245  0.1749
11517TIP3   OH256041   2.426   6.305   4.542  0.2097  0.1865  0.2108
11517TIP3    H156042   2.415   6.210   4.536  0.0877  0.2282 -0.2111
11517TIP3    H256043   2.405   6.337   4.455  3.9514  0.2546 -0.7962
11518TIP3   OH256044   3.723   3.993   1.666  0.2838  0.1259  0.3027
11518TIP3    H156045   3.725   3.900   1.689 -1.2248  0.1557  0.6733
11518TIP3    H256046   3.814   4.022   1.674  0.4319 -0.7662  2.5577
11519TIP3   OH256047   5.810   5.937   3.153  0.8812  0.3323 -0.2352
11519TIP3    H156048   5.901   5.906   3.158  0.0871 -2.3540 -0.6568
11519TIP3    H256049   5.800   5.995   3.229  2.3216 -1.1625  1.1806
11520TIP3   OH256050   0.744   2.181  16.626 -0.6684  0.1013 -0.0435
11520TIP3    H156051   0.800   2.113  16.589 -0.3025 -0.3766  1.3218
11520TIP3    H256052   0.726   2.240  16.553 -0.8251 -1.3373 -1.2222
11521TIP3   OH256053   6.771   4.409   1.453  0.6637 -0.1692  0.0543
11521TIP3    H156054   6.678   4.430   1.448  0.3948 -0.9766  1.3364
11521TIP3    H256055   6.815   4.494   1.449 -0.1858  0.3119  0.7191
11522TIP3   OH256056   6.664   0.796  16.790  0.1732 -0.0968  0.2886
11522TIP3    H156057   6.589   0.769  16.844 -0.1841 -0.7043 -0.4848
11522TIP3    H256058   6.741   0.773  16.842 -0.1627  1.3646  1.4892
11523TIP3   OH256059   3.789   3.648  13.755 -0.6159  0.2980 -0.5338
11523TIP3    H156060   3.850   3.694  13.698 -0.2629  0.0190 -0.3924
11523TIP3    H256061   3.756   3.576  13.701  0.9260 -0.9316  0.0674
11524TIP3   OH256062   0.708   6.770  15.956 -0.3903  0.1334  0.2462
11524TIP3    H156063   0.765   6.838  15.991 -0.7293 -0.0924  1.2531
11524TIP3    H256064   0.711   6.783  15.861  1.5926 -0.0821  0.2361
11525TIP3   OH256065   1.556   1.997   0.274 -0.2796 -0.4022 -0.4409
11525TIP3    H156066   1.584   2.082   0.309 -1.9106 -0.5152  1.2520
11525TIP3    H256067   1.620   1.935   0.309 -0.1809 -0.1297 -0.1329
11526TIP3   OH256068   4.966   0.749   2.432 -0.1561  0.8031  0.1348
11526TIP3    H156069   4.961   0.840   2.401  0.5242  0.9988  0.5834
11526TIP3    H256070   5.015   0.704   2.364  0.1699  0.9431  0.2729
11527TIP3   OH256071   2.521   5.386   4.369 -0.2613  0.0146  0.1564
11527TIP3    H156072   2.551   5.311   4.317 -0.1773 -0.0440  0.2914
11527TIP3    H256073   2.444   5.418   4.321  0.9374  1.1570 -1.0701
11528TIP3   OH256074   5.319   6.594   3.826 -0.2696 -0.8750  0.3378
11528TIP3    H156075   5.380   6.666   3.805 -0.7549 -0.5216  0.1287
11528TIP3    H256076   5.242   6.638   3.862 -0.0644 -1.3788  1.4320
11529TIP3   OH256077   4.149   2.758  14.219 -0.3653  0.5881 -0.0383
11529TIP3    H156078   4.209   2.814  14.169 -0.8523  2.1451  1.0471
11529TIP3    H256079   4.108   2.702  14.153  2.3786 -0.6881 -0.8096
11530TIP3   OH256080   1.995   4.696   1.976  0.0440 -0.0202 -0.1932
11530TIP3    H156081   2.023   4.617   1.931  0.4270  1.3917 -2.6442
11530TIP3    H256082   1.989   4.762   1.906 -0.4595  2.0512  1.6957
11531TIP3   OH256083   4.669   6.316   0.975  0.3960 -0.6196 -0.0557
11531TIP3    H156084   4.648   6.252   1.043  1.3926 -1.2984 -0.3668
11531TIP3    H256085   4.759   6.295   0.950  0.2852  0.0897 -1.0714
11532TIP3   OH256086   0.033   6.114  17.011 -0.2545  0.0461 -0.1583
11532TIP3    H156087   0.084   6.043  17.051 -0.1687  0.4474  0.4562
11532TIP3    H256088   0.078   6.194  17.039 -1.0429  0.3921  0.1293
11533TIP3   OH256089   2.592   5.331  14.148  0.5547  0.9075 -0.1162
11533TIP3    H156090   2.665   5.369  14.196  0.9983  0.3528 -0.3432
11533TIP3    H256091   2.515   5.354  14.201  0.8560  1.6964 -0.0033
11534TIP3   OH256092   3.378   0.741   0.940  0.6190  0.5723 -0.0030
11534TIP3    H156093   3.439   0.667   0.937 -1.7352 -1.5102 -1.0996
11534TIP3    H256094   3.385   0.774   1.030  1.0363 -1.7192  0.9005
11535TIP3   OH256095   2.903   5.005  14.593  0.1186  0.3388  0.1014
11535TIP3    H156096   2.995   5.002  14.620  0.8553 -1.0966 -2.1992
11535TIP3    H256097   2.856   4.958  14.662  1.2762  0.1606  0.7892
11536TIP3   OH256098   3.222   1.980  14.797  0.5051  0.3138 -0.2356
11536TIP3    H156099   3.240   1.901  14.848  0.6146  1.3148  1.3410
11536TIP3    H256100   3.304   2.028  14.796  0.0460  1.1374  0.1738
11537TIP3   OH256101   1.598   0.310   4.222 -0.4030 -0.3334 -0.0472
11537TIP3    H156102   1.688   0.337   4.237 -0.0743 -0.7211 -1.2181
11537TIP3    H256103   1.603   0.214   4.218 -0.6293 -0.2983 -1.4841
11538TIP3   OH256104   2.089   5.623  16.887 -0.3204 -0.3108 -0.0601
11538TIP3    H156105   2.177   5.646  16.917 -0.2044  0.0024 -0.6365
11538TIP3    H256106   2.032   5.644  16.961 -0.0125  0.2456  0.0201
11539TIP3   OH256107   2.281   2.239  17.112  0.1371 -0.0267 -0.3766
11539TIP3    H156108   2.294   2.272  17.201  0.0664  0.5046 -0.5597
11539TIP3    H256109   2.363   2.257  17.067  0.9386 -2.1211  0.1156
11540TIP3   OH256110   1.056   4.190  15.788 -0.1761  0.5304 -0.0271
11540TIP3    H156111   1.116   4.163  15.858 -1.2351 -0.2145  0.6236
11540TIP3    H256112   1.099   4.161  15.707  0.7044  0.7279  0.3504
11541TIP3   OH256113   3.335   0.999   2.724 -0.3017 -0.3350 -0.2544
11541TIP3    H156114   3.319   0.905   2.718  1.8599 -0.8747  1.3028
11541TIP3    H256115   3.307   1.023   2.812  0.6622  0.1199 -0.0509
11542TIP3   OH256116   3.334   1.659   3.415  0.1694 -0.3209  0.2759
11542TIP3    H156117   3.422   1.683   3.386  0.1429  0.2889  0.6734
11542TIP3    H256118   3.336   1.673   3.509 -1.1078  2.2614  0.0018
11543TIP3   OH256119   5.887   1.842   2.165 -0.2799 -0.4561  0.6681
11543TIP3    H156120   5.874   1.765   2.111  3.5093 -0.5217 -0.4700
11543TIP3    H256121   5.914   1.808   2.250 -0.9342 -0.3795  0.9056
11544TIP3   OH256122   0.736   1.499  15.911 -0.0543 -0.0416  0.5036
11544TIP3    H156123   0.751   1.467  15.822 -0.3881  0.8419  0.1134
11544TIP3    H256124   0.655   1.549  15.906  0.0800  0.2758  1.2304
11545TIP3   OH256125   3.747   3.684  17.139  0.3048 -0.3309  0.1758
11545TIP3    H156126   3.764   3.738  17.217  2.2922 -0.5535 -0.0574
11545TIP3    H256127   3.829   3.637  17.124  0.2844  0.3286 -2.5512
11546TIP3   OH256128   5.817   0.774   0.278  0.4214  0.0863 -0.1022
11546TIP3    H156129   5.757   0.731   0.340  1.2349  0.2710  0.8413
11546TIP3    H256130   5.872   0.704   0.245  1.4734  0.2942  1.1219
11547TIP3   OH256131   4.678   3.851   5.729 -0.2156 -0.1595 -0.2908
11547TIP3    H156132   4.630   3.909   5.670 -0.2588  0.9692  0.8056
11547TIP3    H256133   4.765   3.845   5.690 -0.7833 -1.0192 -1.4945
11548TIP3   OH256134   2.807   2.044  12.821  0.1073  0.1385  0.0116
11548TIP3    H156135   2.739   2.076  12.881 -1.5547 -0.7735 -1.3015
11548TIP3    H256136   2.868   2.118  12.813 -1.1829  1.3140  0.5914
11549TIP3   OH256137   5.609   2.566  15.273 -0.3812  0.0281 -0.1797
11549TIP3    H156138   5.610   2.508  15.350  1.2536 -3.1577 -2.3608
11549TIP3    H256139   5.524   2.608  15.276 -1.5912 -2.2958  1.8121
11550TIP3   OH256140   5.413   6.754   2.929 -0.0340  0.7859 -0.2369
11550TIP3    H156141   5.442   6.670   2.965 -1.0074  0.5868  0.1102
11550TIP3    H256142   5.379   6.802   3.005  1.7344  2.0597 -0.1723
11551TIP3   OH256143   0.005   0.190   2.676 -0.1236 -0.2518 -0.3066
11551TIP3    H156144  -0.086   0.213   2.691  0.4604  1.3937  1.0853
11551TIP3    H256145   0.013   0.099   2.704 -1.2764 -0.3351 -0.2276
11552TIP3   OH256146   2.660   5.960   1.847 -0.0610 -0.0194 -0.3381
11552TIP3    H156147   2.709   6.030   1.804 -0.3283  0.5834  0.3195
11552TIP3    H256148   2.579   5.952   1.797 -0.8107  1.3514  0.6009
11553TIP3   OH256149   5.321   6.558  15.908  0.0242 -0.2335  0.3934
11553TIP3    H156150   5.372   6.591  15.983 -0.0456  0.1083  0.2925
11553TIP3    H256151   5.361   6.474  15.887  0.1821 -0.2320  0.6809
11554TIP3   OH256152   1.852   2.687  11.700  0.3744 -0.3200 -0.0883
11554TIP3    H156153   1.823   2.735  11.622 -1.8621 -0.3962  0.6359
11554TIP3    H256154   1.890   2.606  11.666  0.2792  0.0573 -1.1306
11555TIP3   OH256155   1.746   1.130   5.216  0.0116  0.4561 -0.2980
11555TIP3    H156156   1.819   1.150   5.157  0.7216 -1.3355 -0.0943
11555TIP3    H256157   1.672   1.177   5.179  0.9172  1.0843 -1.3910
11556TIP3   OH256158   3.517   0.590   4.469 -1.1126 -0.1898 -0.1324
11556TIP3    H156159   3.499   0.546   4.552  0.4360  0.3825  0.5373
11556TIP3    H256160   3.492   0.681   4.484 -2.3582 -0.3907 -0.8486
11557TIP3   OH256161   5.826   4.884   2.864 -0.2948 -0.7749 -0.1793
11557TIP3    H156162   5.802   4.921   2.949 -1.1889 -2.2197  0.2259
11557TIP3    H256163   5.856   4.959   2.813  1.3636 -0.0078  1.7528
11558TIP3   OH256164   5.500   1.666  12.220  0.3444 -0.3114 -0.4876
11558TIP3    H156165   5.424   1.723  12.235  0.7397  0.2362 -0.5430
11558TIP3    H256166   5.519   1.677  12.127  1.7907  1.2135 -0.0644
11559TIP3   OH256167   0.136   3.620   1.674 -0.0863 -0.0639 -0.0538
11559TIP3    H156168   0.177   3.547   1.722 -0.3582 -1.5679 -1.9962
11559TIP3    H256169   0.204   3.687   1.669  0.1313 -0.0899  1.8782
11560TIP3   OH256170   5.543   5.121   6.335  0.3610 -0.3710 -0.4052
11560TIP3    H156171   5.595   5.114   6.256  0.0390  1.9303 -0.8692
11560TIP3    H256172   5.453   5.130   6.304  0.3340  1.5731  0.1312
11561TIP3   OH256173   0.906   4.152   1.139  0.1735  0.3730 -0.2144
11561TIP3    H156174   0.978   4.099   1.102  2.0111  1.1187  2.0687
11561TIP3    H256175   0.925   4.241   1.110 -0.6134  0.4024 -0.6747
11562TIP3   OH256176   3.289   0.474   2.763  0.9218 -0.4707 -0.1299
11562TIP3    H156177   3.364   0.422   2.733  2.2314  2.3719 -2.3087
11562TIP3    H256178   3.217   0.445   2.708  0.9439 -1.6856  0.4440
11563TIP3   OH256179   6.546   5.638   5.070 -0.5277  0.1456  0.0645
11563TIP3    H156180   6.580   5.698   5.004 -0.9908  0.6120  0.2310
11563TIP3    H256181   6.531   5.694   5.147 -1.2506 -0.1166  0.1274
11564TIP3   OH256182   3.194   3.036  16.166 -0.0109  0.2202  0.1188
11564TIP3    H156183   3.281   3.075  16.164 -0.2622  0.8157  0.6653
11564TIP3    H256184   3.196   2.969  16.097 -0.1332  2.4245 -2.1785
11565TIP3   OH256185   4.754   2.997  16.017 -0.1272 -0.3738 -0.4650
11565TIP3    H156186   4.777   3.054  15.943  0.0217 -0.2632 -0.3319
11565TIP3    H256187   4.661   3.014  16.032  0.0255  0.1866 -0.1212
11566TIP3   OH256188   1.703   4.615  13.000 -0.2433  0.4612 -0.6965
11566TIP3    H156189   1.619   4.572  12.982  1.0930 -2.1437 -1.0323
11566TIP3    H256190   1.684   4.673  13.074 -1.9102 -1.5418  0.5423
11567TIP3   OH256191   3.680   4.522  10.483 -0.3011 -0.3193  0.1127
11567TIP3    H156192   3.648   4.474  10.406  2.1350 -2.4820  0.3091
11567TIP3    H256193   3.740   4.462  10.526  0.1409  1.6504  2.5160
11568TIP3   OH256194   5.731   4.462  16.858 -0.4045 -0.0692  0.6305
11568TIP3    H156195   5.666   4.478  16.790  0.5497  1.1667 -0.0451
11568TIP3    H256196   5.812   4.498  16.821  0.5412 -1.0954  1.6564
11569TIP3   OH256197   1.312   2.213  16.910  0.3245  0.1285  0.6247
11569TIP3    H156198   1.260   2.168  16.977 -0.4221  0.5942  0.3720
11569TIP3    H256199   1.391   2.241  16.955  0.3586 -0.5837  1.0213
11570TIP3   OH256200   4.159   2.106  14.827 -0.4206  0.1807 -0.4506
11570TIP3    H156201   4.067   2.077  14.830 -0.0681 -0.9452  1.1770
11570TIP3    H256202   4.156   2.197  14.855 -0.7874 -0.8673  3.6232
11571TIP3   OH256203   5.437   3.266  15.282  0.2085  0.1098  0.2773
11571TIP3    H156204   5.391   3.299  15.360  3.2665 -0.1673  2.3880
11571TIP3    H256205   5.530   3.268  15.307  1.4292  0.5853 -3.6479
11572TIP3   OH256206   1.521   6.506  13.454 -0.4559 -0.8581 -0.6985
11572TIP3    H156207   1.459   6.517  13.381  0.7206  0.9033 -1.4896
11572TIP3    H256208   1.539   6.412  13.455 -1.2835 -1.0691 -2.0115
11573TIP3   OH256209   6.208   0.288   5.073  0.1648  0.5372 -0.3260
11573TIP3    H156210   6.289   0.298   5.122 -0.4039 -0.6452  0.9365
11573TIP3    H256211   6.217   0.204   5.028  0.0052  0.8311 -0.9208
11574TIP3   OH256212   2.026   5.173   6.051 -0.5102 -0.2177  0.2833
11574TIP3    H156213   2.056   5.193   6.139  2.0094 -0.8700 -0.3180
11574TIP3    H256214   2.027   5.077   6.047 -1.4650 -0.2150 -0.1890
11575TIP3   OH256215   4.884   1.017   6.387  0.0634  0.2922  0.2355
11575TIP3    H156216   4.872   0.946   6.449 -0.2487 -2.3364 -2.5934
11575TIP3    H256217   4.800   1.063   6.385 -0.3150 -0.3716  0.8142
11576TIP3   OH256218   2.506   0.199  16.999  0.4395  0.6001 -0.5514
11576TIP3    H156219   2.583   0.201  17.056 -0.4267  0.6639  0.6735
11576TIP3    H256220   2.455   0.124  17.031 -0.2484  0.8620 -1.0114
11577TIP3   OH256221   5.044   5.021   1.081 -0.2493  0.0121  0.0226
11577TIP3    H156222   4.990   5.070   1.019 -1.1941  0.3375  1.0702
11577TIP3    H256223   5.014   4.930   1.073 -1.8612  0.3684  1.4573
11578TIP3   OH256224   0.458   0.035   0.427  0.0516 -1.1336  0.1563
11578TIP3    H156225   0.387   0.076   0.377  0.9172  1.7902  1.1243
11578TIP3    H256226   0.442   0.062   0.518  2.9188  0.6449  0.2696
11579TIP3   OH256227   2.667   4.028  11.039 -0.5459  0.1536 -0.2586
11579TIP3    H156228   2.578   4.004  11.013 -0.3675 -0.4887 -0.3073
11579TIP3    H256229   2.705   3.946  11.071  1.2277 -0.5195 -3.5847
11580TIP3   OH256230   0.200   2.118  17.293 -0.0357  0.4708 -0.2226
11580TIP3    H156231   0.141   2.059  17.247 -0.0142  1.1451 -1.1545
11580TIP3    H256232   0.257   2.061  17.345 -0.5155 -0.2642 -0.4930
11581TIP3   OH256233   3.721   0.105  11.112 -0.1648 -0.2968  0.0459
11581TIP3    H156234   3.628   0.104  11.137 -0.5341 -0.7021 -1.2605
11581TIP3    H256235   3.727   0.173  11.045  0.1451 -1.3623 -1.0412
11582TIP3   OH256236   6.200   4.761  13.316  0.0263 -0.1509  0.9323
11582TIP3    H156237   6.196   4.741  13.223  2.0441  1.2850  0.4562
11582TIP3    H256238   6.193   4.857  13.320 -1.5180 -0.2880  2.4018
11583TIP3   OH256239   0.793   2.635  16.661 -0.6022  0.4255  0.6645
11583TIP3    H156240   0.754   2.660  16.577  0.2967  0.9237  0.3926
11583TIP3    H256241   0.732   2.570  16.696 -1.2388  0.5611 -0.1478
11584TIP3   OH256242   4.319   0.696  11.475 -0.1152 -0.4505 -0.5410
11584TIP3    H156243   4.231   0.718  11.505  0.2225  0.4581 -0.1816
11584TIP3    H256244   4.324   0.601  11.484 -0.3115 -0.3082  1.5872
11585TIP3   OH256245   2.964   3.130  10.967 -0.0016 -0.2832  0.0642
11585TIP3    H156246   2.880   3.101  11.003  0.2614 -0.6096  0.4234
11585TIP3    H256247   2.940   3.178  10.887 -0.3551 -3.6944 -2.1059
11586TIP3   OH256248   0.562   2.693  12.091 -0.8025  0.5945 -0.0600
11586TIP3    H156249   0.635   2.665  12.037 -1.9752  0.5754 -1.7009
11586TIP3    H256250   0.603   2.736  12.166  0.9472 -1.7302  0.4350
11587TIP3   OH256251   0.183   1.677   4.716 -0.2183  0.2986  0.4131
11587TIP3    H156252   0.193   1.770   4.736 -0.0309  0.5408 -0.7168
11587TIP3    H256253   0.098   1.671   4.673 -0.3020 -0.0796  0.6292
11588TIP3   OH256254   5.542   2.283   5.588  0.5935 -0.3520 -0.1332
11588TIP3    H156255   5.588   2.360   5.623  0.9295 -1.0176  0.9288
11588TIP3    H256256   5.583   2.209   5.632 -1.6876 -0.9655  1.1244
11589TIP3   OH256257   4.215   0.654  17.262 -0.1483  0.1636  0.0686
11589TIP3    H156258   4.267   0.734  17.250  1.1930 -0.4914  1.1929
11589TIP3    H256259   4.261   0.606  17.331 -1.3761 -1.2113 -0.0281
11590TIP3   OH256260   2.217   6.464   2.491 -0.3205  0.1964  0.0103
11590TIP3    H156261   2.260   6.549   2.501  1.4302 -0.6132 -0.1656
11590TIP3    H256262   2.251   6.429   2.409 -1.9982 -0.1536 -0.5709
11591TIP3   OH256263   4.146   1.998  14.185 -0.1488  0.3102 -0.3009
11591TIP3    H156264   4.085   2.052  14.234  0.4248 -0.1913  0.9984
11591TIP3    H256265   4.154   1.918  14.236  1.1881  0.1502 -0.7253
11592TIP3   OH256266   0.436   5.464   4.669 -0.7038 -0.7599  0.0312
11592TIP3    H156267   0.390   5.444   4.587  1.4171 -0.1373 -1.3935
11592TIP3    H256268   0.462   5.379   4.703  0.0135 -0.9485 -0.9521
11593TIP3   OH256269   2.682   3.691   3.108  0.4134  0.8469  0.5154
11593TIP3    H156270   2.683   3.775   3.153 -1.5160  0.9299  0.4960
11593TIP3    H256271   2.665   3.627   3.178  1.5352  0.4819  0.4812
11594TIP3   OH256272   1.361   5.306  15.182 -0.1377 -0.1610  0.3939
11594TIP3    H156273   1.416   5.315  15.260 -0.0477 -0.5160  0.3700
11594TIP3    H256274   1.420   5.272  15.115  0.0190  1.0391 -0.0988
11595TIP3   OH256275   0.854   2.668  14.164  0.2387 -0.2010 -0.0082
11595TIP3    H156276   0.855   2.585  14.212 -1.4889  0.1101  0.6535
11595TIP3    H256277   0.915   2.654  14.092  0.0651 -2.0226  0.1356
11596TIP3   OH256278   4.455   6.206   2.238  0.0751  0.4179  0.4287
11596TIP3    H156279   4.549   6.219   2.229 -0.2712  2.0925 -1.4313
11596TIP3    H256280   4.438   6.213   2.332  1.7208  0.6287  0.7327
11597TIP3   OH256281   3.007   2.969   6.003 -0.5274  0.0470 -0.2259
11597TIP3    H156282   2.986   3.062   6.012  0.4638  0.3269 -0.7736
11597TIP3    H256283   3.033   2.958   5.912  1.0543 -0.4051  0.2474
11598TIP3   OH256284   1.142   1.433   3.660  0.1817 -0.3952 -0.2490
11598TIP3    H156285   1.213   1.493   3.683  0.8200 -0.8190 -1.0531
11598TIP3    H256286   1.088   1.428   3.739  1.8347 -1.1877  0.8813
11599TIP3   OH256287   0.614   6.759  17.056  0.2947 -0.6726 -0.3098
11599TIP3    H156288   0.705   6.788  17.052  0.4199 -0.8208  0.8662
11599TIP3    H256289   0.570   6.825  17.109 -0.1739 -0.8500 -0.4741
11600TIP3   OH256290   4.205   4.802   4.091  0.5866 -0.1924 -0.1799
11600TIP3    H156291   4.137   4.830   4.151  0.8840 -0.6829  0.4006
11600TIP3    H256292   4.175   4.830   4.005  0.1918  0.5921  0.2024
11601TIP3   OH256293   6.787   0.631  12.402  0.0982  0.2134 -0.2891
11601TIP3    H156294   6.752   0.557  12.351  1.5114 -0.1167 -0.8115
11601TIP3    H256295   6.880   0.612  12.411  0.4042  1.7160 -0.0380
11602TIP3   OH256296   4.878   5.580   0.774  0.3727  0.0473 -1.2127
11602TIP3    H156297   4.934   5.652   0.804 -0.5308  0.0406  0.6167
11602TIP3    H256298   4.878   5.588   0.678 -0.0401  2.7466 -1.0595
11603TIP3   OH256299   3.141   6.646  11.954  0.1077 -0.2770  0.1479
11603TIP3    H156300   3.105   6.652  11.865  0.5839 -0.4365 -0.0630
11603TIP3    H256301   3.133   6.554  11.977 -3.2847  0.2439  1.6987
11604TIP3   OH256302   2.925   4.438   2.260  0.0016 -0.1363  0.1039
11604TIP3    H156303   2.952   4.419   2.170 -1.3967 -1.5505 -0.0602
11604TIP3    H256304   2.959   4.366   2.312  1.5018  1.0852  0.9005
11605TIP3   OH256305   2.473   4.864   0.074  0.5739 -0.1424 -0.3984
11605TIP3    H156306   2.516   4.806   0.011  0.9625 -0.6268  0.2936
11605TIP3    H256307   2.430   4.804   0.136 -0.5428  0.3266 -0.6921
11606TIP3   OH256308   2.626   3.824  12.571 -0.3101  0.2334 -0.2282
11606TIP3    H156309   2.625   3.891  12.502 -1.7595 -0.6974 -1.1588
11606TIP3    H256310   2.537   3.791  12.574  0.2545 -1.3188  0.5716
11607TIP3   OH256311   2.735   2.910  16.938 -0.1917  0.1250 -0.1701
11607TIP3    H156312   2.790   2.907  16.860  0.6214 -0.3517  0.4108
11607TIP3    H256313   2.716   3.003  16.950 -0.9714  0.1403 -1.3705
11608TIP3   OH256314   5.304   2.659   2.905 -0.2610 -0.6002  0.4112
11608TIP3    H156315   5.276   2.620   2.988  0.1843  0.1586  0.9361
11608TIP3    H256316   5.228   2.707   2.874 -0.4957 -1.0570  0.2722
11609TIP3   OH256317   6.118   4.022  13.613  0.2068 -0.2662 -0.2964
11609TIP3    H156318   6.146   4.108  13.581  0.1465  0.0703  0.5365
11609TIP3    H256319   6.130   4.026  13.708 -1.1499 -0.6682 -0.0894
11610TIP3   OH256320   3.507   5.418  13.976  0.1931 -0.2529  0.2363
11610TIP3    H156321   3.552   5.334  13.964  2.3077  0.3530  2.9762
11610TIP3    H256322   3.566   5.481  13.936  0.0653  0.2182  0.7894
11611TIP3   OH256323   5.907   2.015   2.750  0.2330 -0.0279  0.0809
11611TIP3    H156324   5.972   1.999   2.681 -0.4691 -1.6487 -0.2727
11611TIP3    H256325   5.859   1.932   2.756 -1.6553  1.0464  0.4886
11612TIP3   OH256326   2.921   2.751  15.631  0.2728 -0.0135 -0.0010
11612TIP3    H156327   2.954   2.693  15.699 -0.6309  0.5410  0.9439
11612TIP3    H256328   2.897   2.692  15.559 -1.5165 -0.9790  1.2856
11613TIP3   OH256329   2.458   5.710  14.141 -0.1243  0.1009  0.3306
11613TIP3    H156330   2.410   5.628  14.146  0.2628 -0.1909 -0.5032
11613TIP3    H256331   2.541   5.692  14.187 -0.4376  0.3350  1.0010
11614TIP3   OH256332   3.497   0.051   1.786  0.6085  0.5351  0.4671
11614TIP3    H156333   3.462  -0.006   1.718 -0.0431  1.9288 -0.4034
11614TIP3    H256334   3.556  -0.006   1.836 -0.6220 -1.0986  0.1499
11615TIP3   OH256335   5.140   6.570  13.587  0.4040 -0.1442 -0.2191
11615TIP3    H156336   5.085   6.594  13.661 -0.5217 -1.0861 -0.5780
11615TIP3    H256337   5.147   6.475  13.592  2.5000 -0.0234  0.1416
11616TIP3   OH256338   5.903   4.898   0.867  0.6662 -0.4468  0.6723
11616TIP3    H156339   5.949   4.905   0.951  2.8862  0.4402 -0.5126
11616TIP3    H256340   5.933   4.814   0.831  1.4382  0.1483 -0.1218
11617TIP3   OH256341   3.823   6.782  15.233 -0.3297 -0.1477 -0.4070
11617TIP3    H156342   3.906   6.802  15.275 -0.4466  1.7613 -0.9846
11617TIP3    H256343   3.758   6.830  15.283 -0.8612 -0.2711 -0.9583
11618TIP3   OH256344   2.247   3.010   4.958  0.2993  0.0428 -0.1247
11618TIP3    H156345   2.298   2.943   4.912  1.4418  0.7260  0.1149
11618TIP3    H256346   2.159   2.974   4.961  0.5716 -0.7947 -1.3051
11619TIP3   OH256347   1.844   4.899   2.137 -0.0046  0.1641 -0.1143
11619TIP3    H156348   1.811   4.837   2.201 -2.3495  0.4962 -0.8793
11619TIP3    H256349   1.892   4.846   2.074 -0.1923 -0.5784  0.3651
11620TIP3   OH256350   2.432   1.942  15.853 -0.1258  0.1726  0.3977
11620TIP3    H156351   2.416   1.888  15.930  1.5489 -0.1035  0.5847
11620TIP3    H256352   2.485   1.888  15.795  0.6709  1.2118  0.1112
11621TIP3   OH256353   6.643   1.582   5.755 -0.6814 -0.2398  0.1537
11621TIP3    H156354   6.655   1.575   5.850 -0.5490  0.3126  0.1842
11621TIP3    H256355   6.710   1.645   5.728 -0.4991 -0.6504 -0.3562
11622TIP3   OH256356   5.060   2.486   0.794  0.3848 -0.5796 -0.2309
11622TIP3    H156357   5.016   2.462   0.712  2.2814 -3.5628 -0.5083
11622TIP3    H256358   4.990   2.523   0.847 -1.4851 -0.9617 -2.2464
11623TIP3   OH256359   3.058   4.121   7.153  0.0538  0.2193 -0.0341
11623TIP3    H156360   3.123   4.100   7.086 -0.4195  1.5905 -0.9920
11623TIP3    H256361   2.982   4.067   7.130 -0.6528  1.7919 -1.5960
11624TIP3   OH256362   3.504   3.952   6.493  0.0870 -0.0359 -1.0915
11624TIP3    H156363   3.447   3.955   6.570  0.6673 -2.4947 -0.5034
11624TIP3    H256364   3.586   3.991   6.522 -0.4581  1.2745 -1.2303
11625TIP3   OH256365   0.132   5.685   3.733  0.3545 -0.1083  0.0400
11625TIP3    H156366   0.048   5.659   3.770  0.1668 -0.5507 -0.6758
11625TIP3    H256367   0.197   5.648   3.791  0.0840  1.8584  1.7278
11626TIP3   OH256368   5.407   1.086   4.595  0.0455  0.1980 -0.3346
11626TIP3    H156369   5.427   1.134   4.676 -2.3670  1.6840 -0.5069
11626TIP3    H256370   5.450   1.137   4.526 -1.3504  1.3883 -0.3683
11627TIP3   OH256371   2.846   0.643   5.091 -0.0077 -0.2127 -0.3726
11627TIP3    H156372   2.797   0.650   5.009  0.2243 -1.8745 -0.6752
11627TIP3    H256373   2.871   0.734   5.111 -0.8219  0.3269 -1.6554
11628TIP3   OH256374   1.414   5.668  12.632  0.5516 -0.1616 -0.0296
11628TIP3    H156375   1.323   5.650  12.610  0.5690 -0.9302  0.4578
11628TIP3    H256376   1.448   5.584  12.663  1.1904  0.3045  0.5849
11629TIP3   OH256377   0.715   3.002  15.327 -0.2499 -0.0155  0.2151
11629TIP3    H156378   0.638   2.947  15.316  0.0450 -0.1549 -1.3877
11629TIP3    H256379   0.786   2.954  15.284  0.1679  1.2389 -0.5730
11630TIP3   OH256380   0.213   1.486  16.729  0.4218 -0.4459  0.2239
11630TIP3    H156381   0.152   1.482  16.656  2.0852  0.8368 -1.3192
11630TIP3    H256382   0.220   1.579  16.750  1.8562 -0.5586  0.3362
11631TIP3   OH256383   1.588   5.388   0.838 -0.2934 -0.1977  0.3336
11631TIP3    H156384   1.674   5.356   0.810  0.8543  2.2271  0.7797
11631TIP3    H256385   1.586   5.371   0.932 -1.1560 -1.9351  0.0462
11632TIP3   OH256386   6.172   0.660   1.417  0.0414  0.3850 -0.2947
11632TIP3    H156387   6.209   0.603   1.484 -0.3641  2.3051  1.7023
11632TIP3    H256388   6.088   0.621   1.395 -0.1173  0.0545  0.8396
11633TIP3   OH256389   3.003   6.709   0.891  0.5515  0.6010 -0.2929
11633TIP3    H156390   2.931   6.659   0.852 -0.5744  0.6368  1.6337
11633TIP3    H256391   3.039   6.759   0.818 -1.0410  0.1860 -1.4264
11634TIP3   OH256392   5.017   4.065   2.039 -0.3011 -0.1120 -0.0757
11634TIP3    H156393   4.998   3.995   2.101  0.7896 -0.5699 -0.2488
11634TIP3    H256394   5.041   4.020   1.958 -1.0055  0.4785 -0.6317
11635TIP3   OH256395   6.612   3.314  13.447  0.2849  0.1926 -0.3417
11635TIP3    H156396   6.580   3.332  13.359  1.0795  0.1649 -0.6412
11635TIP3    H256397   6.591   3.222  13.462  0.4576  0.1029 -0.6415
11636TIP3   OH256398   4.238   0.458   5.967  0.3145  0.5230 -0.3462
11636TIP3    H156399   4.220   0.535   6.021 -2.3010 -0.0959 -0.1914
11636TIP3    H256400   4.300   0.488   5.901 -0.4002  2.6957 -0.1041
11637TIP3   OH256401   3.880   2.800   3.867 -0.3009  0.4656 -0.8531
11637TIP3    H156402   3.953   2.742   3.888  0.4438  1.8214  0.5343
11637TIP3    H256403   3.809   2.770   3.924 -0.6708 -0.4790 -1.7776
11638TIP3   OH256404   1.444   4.764  15.624 -0.3005 -0.0310 -0.4242
11638TIP3    H156405   1.428   4.734  15.534  1.1706 -0.3010 -0.6225
11638TIP3    H256406   1.535   4.795  15.623  0.0108 -0.8058  1.1777
11639TIP3   OH256407   4.652   2.584   4.906  0.1277 -0.8716 -0.3018
11639TIP3    H156408   4.657   2.613   4.997  0.5070  0.7446 -0.8047
11639TIP3    H256409   4.588   2.643   4.866  0.5840 -1.0142 -1.2645
11640TIP3   OH256410   4.295   5.058   2.206  0.1998  0.5592 -0.1010
11640TIP3    H156411   4.311   5.015   2.290  1.5238  2.2842  0.5858
11640TIP3    H256412   4.361   5.021   2.147  1.0605  1.3105  0.3724
11641TIP3   OH256413   3.465   6.449  11.947  0.1235 -0.0243  0.5409
11641TIP3    H156414   3.444   6.531  11.902  1.0556 -0.6523 -1.1227
11641TIP3    H256415   3.413   6.452  12.027  1.3801  2.9356  1.3781
11642TIP3   OH256416   1.612   0.198   1.138  0.1507 -0.0831  0.1560
11642TIP3    H156417   1.694   0.229   1.100  0.5339  0.2172  1.1999
11642TIP3    H256418   1.629   0.194   1.232 -0.6785 -1.1106  0.2772
11643TIP3   OH256419   1.125   1.675   0.356  0.4430  0.0044 -0.3440
11643TIP3    H156420   1.159   1.599   0.309 -0.3176  0.9014 -2.4864
11643TIP3    H256421   1.043   1.696   0.312 -0.0076  1.3077  1.0199
11644TIP3   OH256422   6.624   0.042   5.973  0.2300  0.0941  0.2955
11644TIP3    H156423   6.653   0.088   5.894  0.2751  0.4515  0.5190
11644TIP3    H256424   6.704   0.004   6.009  0.4377  1.0239  0.8754
11645TIP3   OH256425   4.716   6.613   4.808 -0.3905 -0.8024  0.3122
11645TIP3    H156426   4.706   6.528   4.765 -0.4674  0.0997 -1.5579
11645TIP3    H256427   4.626   6.642   4.823 -0.3831 -0.4717 -0.2721
11646TIP3   OH256428   1.123   5.429   2.074  0.2121  0.2247  0.0350
11646TIP3    H156429   1.138   5.388   2.160 -0.9591  0.2603  0.2713
11646TIP3    H256430   1.140   5.358   2.011 -1.9167 -0.7242  0.4470
11647TIP3   OH256431   5.366   5.410   2.977 -0.1339  0.1842  0.1483
11647TIP3    H156432   5.451   5.454   2.983  0.1745  0.1912 -2.8941
11647TIP3    H256433   5.305   5.470   3.021  0.5798  2.8933 -2.2754
11648TIP3   OH256434   3.926   3.227  13.132 -0.2175 -0.1730 -0.0807
11648TIP3    H156435   3.919   3.290  13.061  2.2181  1.8883  1.3559
11648TIP3    H256436   4.018   3.202  13.135 -1.0327 -3.9986 -0.6021
11649TIP3   OH256437   4.456   1.361   0.477  0.1360  0.4196  0.6077
11649TIP3    H156438   4.409   1.328   0.401  0.1802  0.0269  0.7480
11649TIP3    H256439   4.397   1.344   0.551  1.3400 -2.0735  1.1037
11650TIP3   OH256440   4.858   6.475   3.310 -0.0244 -0.2748 -0.1742
11650TIP3    H156441   4.843   6.569   3.309 -1.2040 -0.4535 -0.1273
11650TIP3    H256442   4.804   6.443   3.382  1.2658 -0.8585  0.5854
11651TIP3   OH256443   1.595   0.984   2.593 -0.1772 -0.9607 -0.9504
11651TIP3    H156444   1.634   1.048   2.534 -0.0310  0.0573  0.2148
11651TIP3    H256445   1.503   0.979   2.566  0.2886 -1.9671 -2.4900
11652TIP3   OH256446   6.316   4.147  14.741  0.8077  0.9433  0.2089
11652TIP3    H156447   6.306   4.115  14.831  1.3251  0.8605  0.2356
11652TIP3    H256448   6.262   4.227  14.739  2.3513  2.0637  1.1767
11653TIP3   OH256449   3.971   2.721   0.541  0.4418  0.0257 -0.1054
11653TIP3    H156450   4.028   2.772   0.483  0.3390  1.6519  1.1314
11653TIP3    H256451   4.011   2.731   0.628 -1.3573  0.6950  0.6956
11654TIP3   OH256452   6.565   1.694   1.192 -0.3021 -0.1388  0.7623
11654TIP3    H156453   6.629   1.640   1.238 -0.8947 -0.6259  1.0377
11654TIP3    H256454   6.594   1.784   1.205 -0.0551 -0.3195  1.4570
11655TIP3   OH256455   0.773   5.948  15.376 -0.4135 -0.2825 -0.1157
11655TIP3    H156456   0.773   5.942  15.281  0.7668 -0.3604 -0.1227
11655TIP3    H256457   0.816   5.868  15.406 -0.3388 -0.0349  0.4638
11656TIP3   OH256458   0.123   0.882  14.084 -0.3775 -0.4595 -0.1243
11656TIP3    H156459   0.037   0.919  14.102 -1.0841 -2.4910  0.9517
11656TIP3    H256460   0.108   0.824  14.009  0.2340 -0.2632 -0.4047
11657TIP3   OH256461   6.020   3.769   2.086 -0.1397  0.4012 -0.1719
11657TIP3    H156462   5.994   3.737   2.172 -3.1312  1.2657 -0.6295
11657TIP3    H256463   6.067   3.851   2.103  1.8397 -0.8419  0.6844
11658TIP3   OH256464   2.985   2.419  14.606 -0.4366 -0.5680 -0.1105
11658TIP3    H156465   3.064   2.388  14.651  0.4469  1.2360 -0.3203
11658TIP3    H256466   2.918   2.422  14.674 -0.2235 -1.6946  0.1718
11659TIP3   OH256467   4.199   6.473  15.768 -0.1019 -0.2822  0.5715
11659TIP3    H156468   4.255   6.547  15.794 -2.2590  0.6442  2.9858
11659TIP3    H256469   4.258   6.398  15.770  1.2022  0.6977  2.6288
11660TIP3   OH256470   2.789   5.617   2.680 -0.1269 -0.5490  0.4753
11660TIP3    H156471   2.801   5.538   2.733  0.4065 -0.1272  1.0113
11660TIP3    H256472   2.754   5.681   2.742 -0.6937 -0.4082  0.0116
11661TIP3   OH256473   3.435   2.141  16.122  0.0176  0.2899 -0.7228
11661TIP3    H156474   3.469   2.150  16.211 -1.6167  1.2480 -0.1439
11661TIP3    H256475   3.484   2.068  16.085  0.0076 -0.8676  1.3359
11662TIP3   OH256476   2.582   3.598   0.088 -0.4692  0.4453 -0.4297
11662TIP3    H156477   2.509   3.601   0.026 -1.2869 -0.9880  0.4058
11662TIP3    H256478   2.540   3.591   0.174  0.6493  1.9310  0.2722
11663TIP3   OH256479   3.537   5.547   4.797  0.0502  0.0681 -0.2293
11663TIP3    H156480   3.605   5.480   4.794 -0.6183 -0.7449  1.3002
11663TIP3    H256481   3.571   5.612   4.858 -0.3056 -0.0691  0.1169
11664TIP3   OH256482   6.546   4.362  12.391  0.1726  0.2639  0.2381
11664TIP3    H156483   6.482   4.297  12.421 -0.3431  0.3248 -0.6904
11664TIP3    H256484   6.549   4.427  12.460 -0.4946  0.0648  0.4571
11665TIP3   OH256485   6.419   4.886  12.443 -0.0042  0.5268 -1.0586
11665TIP3    H156486   6.356   4.862  12.510 -0.6659  2.6786 -0.8166
11665TIP3    H256487   6.412   4.817  12.377 -0.1078 -1.0673  0.5396
11666TIP3   OH256488   6.641   4.885   2.203 -0.3193 -0.6528  0.4478
11666TIP3    H156489   6.565   4.841   2.164 -1.3950  0.7383  0.9284
11666TIP3    H256490   6.695   4.813   2.237 -2.1407 -1.6310  1.4252
11667TIP3   OH256491   5.985   3.192  11.450 -0.1696  0.1209 -0.1923
11667TIP3    H156492   6.006   3.127  11.516 -3.0431 -1.0431 -0.2951
11667TIP3    H256493   6.047   3.174  11.378 -1.2882 -3.0138 -0.5098
11668TIP3   OH256494   6.198   0.851  11.427 -0.1606 -0.2210  0.0660
11668TIP3    H156495   6.118   0.901  11.411 -0.6415 -1.4663 -1.6362
11668TIP3    H256496   6.259   0.915  11.464 -0.8263  1.6081 -1.8046
11669TIP3   OH256497   0.244   3.568   5.367 -0.2031  0.4074  0.4805
11669TIP3    H156498   0.149   3.555   5.362 -0.1319 -0.1966  0.6884
11669TIP3    H256499   0.281   3.481   5.356  0.4381  0.9019 -1.9269
11670TIP3   OH256500   4.835   1.677   3.238 -0.0646 -0.2314 -0.4650
11670TIP3    H156501   4.912   1.697   3.291  0.6396 -1.4753 -0.9743
11670TIP3    H256502   4.867   1.682   3.148 -0.4338 -1.3083 -0.6638
11671TIP3   OH256503   6.438   5.284   0.876  0.1509 -0.1867  0.8185
11671TIP3    H156504   6.450   5.379   0.879  0.0354 -0.1397  0.1245
11671TIP3    H256505   6.388   5.269   0.796  1.1241 -0.9189  0.3130
11672TIP3   OH256506   0.676   0.629   4.179 -0.5288 -0.1307 -0.3278
11672TIP3    H156507   0.656   0.686   4.105  1.1476  0.6375 -0.2273
11672TIP3    H256508   0.748   0.574   4.149  1.9632  1.9103  1.4321
11673TIP3   OH256509   4.637   1.947  11.190 -0.1545  0.3630  0.5466
11673TIP3    H156510   4.686   1.976  11.113 -2.4447  0.1015 -1.0985
11673TIP3    H256511   4.605   1.860  11.167 -3.2750  1.3842  0.5300
11674TIP3   OH256512   2.244   2.294   3.698 -0.4915 -0.0205 -0.2036
11674TIP3    H156513   2.180   2.365   3.688 -0.3089  0.1232 -0.3515
11674TIP3    H256514   2.325   2.330   3.662 -1.0248 -1.2351 -2.8144
11675TIP3   OH256515   0.750   1.115   3.761 -0.1060 -0.3482 -0.0674
11675TIP3    H156516   0.734   1.130   3.854  0.3457 -0.8105  0.0872
11675TIP3    H256517   0.802   1.035   3.758  2.6036  1.2969 -0.5165
11676TIP3   OH256518   3.488   6.505  12.916  0.2653 -0.2274 -0.0145
11676TIP3    H156519   3.440   6.557  12.851  0.1437 -0.0674  0.2009
11676TIP3    H256520   3.459   6.541  13.000  0.6380 -0.2451  0.1196
11677TIP3   OH256521   0.598   2.219   5.604 -0.1465  0.1678  0.3687
11677TIP3    H156522   0.594   2.203   5.699 -1.5476  1.1094  0.4960
11677TIP3    H256523   0.513   2.257   5.583  0.0171 -0.3587 -1.3459
11678TIP3   OH256524   4.679   3.903   1.434  0.2129  0.5900 -0.6548
11678TIP3    H156525   4.701   3.974   1.374  0.4945  0.8533 -0.2431
11678TIP3    H256526   4.749   3.904   1.499  0.6907 -0.6022 -1.1109
11679TIP3   OH256527   0.176   0.653  14.239 -0.3268  0.1379 -0.3498
11679TIP3    H156528   0.123   0.594  14.185  0.1822 -0.3590 -0.3147
11679TIP3    H256529   0.179   0.735  14.190  0.6076 -0.4795 -1.3820
11680TIP3   OH256530   5.058   4.161   2.762 -0.1695 -0.0232  0.4501
11680TIP3    H156531   5.107   4.152   2.681 -3.0795 -0.1717 -1.4532
11680TIP3    H256532   5.081   4.248   2.795 -0.6105  1.0084 -1.8062
11681TIP3   OH256533   1.344   3.478   2.351  0.3904 -0.2094 -0.7119
11681TIP3    H156534   1.397   3.543   2.305 -0.7612  1.8552  0.6865
11681TIP3    H256535   1.358   3.498   2.444 -1.9371 -0.2641 -0.2925
11682TIP3   OH256536   3.073   6.139  17.110  0.1676 -0.3316  0.0928
11682TIP3    H156537   3.162   6.121  17.138  0.5031 -0.9658 -1.2905
11682TIP3    H256538   3.020   6.129  17.189  1.2230 -0.7379  0.7613
11683TIP3   OH256539   0.875   0.691   0.586 -0.0631  0.2012  0.4398
11683TIP3    H156540   0.927   0.767   0.613  2.0859 -1.5854  1.7834
11683TIP3    H256541   0.795   0.696   0.638  1.0196  0.4456  2.1623
11684TIP3   OH256542   6.271   0.436  12.595 -0.3003 -0.3540 -0.5303
11684TIP3    H156543   6.306   0.524  12.602  0.9804 -0.8646 -0.1955
11684TIP3    H256544   6.348   0.381  12.578 -0.7404 -1.6993  1.4670
11685TIP3   OH256545   0.587   4.300  15.969  0.4384  0.0817 -0.2512
11685TIP3    H156546   0.639   4.380  15.980 -0.5980  0.6529  0.7044
11685TIP3    H256547   0.639   4.245  15.910  2.0340  0.7026  0.5187
11686TIP3   OH256548   4.034   4.717   2.721 -0.0371  0.5647 -0.0303
11686TIP3    H156549   3.992   4.791   2.679 -2.1512 -1.0653 -1.0017
11686TIP3    H256550   4.064   4.662   2.649 -3.7852 -2.3238  0.3291
11687TIP3   OH256551   3.621   2.503  11.811  0.4157 -0.0679  0.6372
11687TIP3    H156552   3.583   2.416  11.794 -1.0698  0.6681 -0.0255
11687TIP3    H256553   3.563   2.540  11.878  1.4663  0.1518  1.4405
11688TIP3   OH256554   3.169   5.686   3.200 -0.4345 -0.1300  0.0529
11688TIP3    H156555   3.245   5.738   3.225 -1.0227  0.9744 -0.3652
11688TIP3    H256556   3.181   5.602   3.244  0.5576  0.3534  0.7301
11689TIP3   OH256557   3.902   0.576   3.596 -0.4741  0.1181 -0.3869
11689TIP3    H156558   3.862   0.655   3.631 -1.4045 -0.1331 -0.8473
11689TIP3    H256559   3.850   0.504   3.632 -0.8566 -0.1837 -1.4834
11690TIP3   OH256560   4.237   3.448   0.377 -0.0704 -0.0618  0.2514
11690TIP3    H156561   4.194   3.412   0.299 -1.2434 -0.5976  1.1128
11690TIP3    H256562   4.328   3.418   0.370 -0.0320  0.3059 -1.1349
11691TIP3   OH256563   5.741   6.342  10.750 -0.0152 -0.3400 -0.3739
11691TIP3    H156564   5.801   6.348  10.675  1.6282 -1.5897  0.7670
11691TIP3    H256565   5.798   6.324  10.825 -1.6151  0.7900  1.1893
11692TIP3   OH256566   2.734   2.063   6.763  0.2235  0.5022 -0.0381
11692TIP3    H156567   2.696   2.064   6.675  0.8106 -0.0299 -0.3071
11692TIP3    H256568   2.791   2.140   6.765 -0.8933  1.3448  0.3924
11693TIP3   OH256569   5.904   2.418  12.522 -0.1066  0.6044 -0.8656
11693TIP3    H156570   5.836   2.463  12.470 -1.4690  0.5752  0.8028
11693TIP3    H256571   5.891   2.450  12.611  2.6113  1.1703 -0.5993
11694TIP3   OH256572   1.577   1.806   2.392  0.3139  0.0697  0.8340
11694TIP3    H156573   1.629   1.811   2.472  0.4987  0.5107  0.6871
11694TIP3    H256574   1.606   1.880   2.339 -0.2620  0.1585  0.6307
11695TIP3   OH256575   1.888   6.080  16.099  0.5130 -0.1509 -0.1132
11695TIP3    H156576   1.843   6.024  16.162  0.9098 -0.5238 -0.1590
11695TIP3    H256577   1.826   6.151  16.083  0.3458 -0.1220  0.5874
11696TIP3   OH256578   0.601   2.593   3.036 -0.2907  0.5301  0.3293
11696TIP3    H156579   0.546   2.651   2.984 -0.2547  1.3946  1.2233
11696TIP3    H256580   0.609   2.513   2.984  1.6718  2.1745 -2.0974
11697TIP3   OH256581   6.219   4.233   2.071  0.5175  0.3662  0.2552
11697TIP3    H156582   6.218   4.309   2.129  2.0638  0.5690  0.0597
11697TIP3    H256583   6.200   4.159   2.128  3.3195  0.3838  1.3685
11698TIP3   OH256584   4.867   1.089   5.790  0.2915  0.1431  0.0891
11698TIP3    H156585   4.802   1.082   5.721  0.1720 -2.8613  0.3739
11698TIP3    H256586   4.951   1.081   5.745  0.3520  0.8022  0.0663
11699TIP3   OH256587   4.224   2.483   3.614  0.4312  0.3483 -0.1910
11699TIP3    H156588   4.166   2.558   3.600  2.3204  1.7524 -0.8821
11699TIP3    H256589   4.257   2.462   3.527  0.7690 -0.6030  0.1524
11700TIP3   OH256590   1.963   2.270   4.391 -0.3640 -0.4470 -0.4448
11700TIP3    H156591   2.016   2.269   4.470  0.1161 -0.8176 -0.7693
11700TIP3    H256592   2.020   2.236   4.323 -0.4860  0.6737 -1.1399
11701TIP3   OH256593   2.095   3.957  14.830  0.2519 -0.1203  1.1590
11701TIP3    H156594   2.046   4.006  14.896  0.8447 -0.2804  1.7195
11701TIP3    H256595   2.027   3.911  14.780 -0.3217  1.3157  0.5728
11702TIP3   OH256596   3.376   5.894   1.766  0.0080  0.1949 -0.6924
11702TIP3    H156597   3.414   5.830   1.827  3.7307  3.6293  1.0961
11702TIP3    H256598   3.303   5.933   1.815  0.5395  0.3111  0.0273
11703TIP3   OH256599   5.048   2.718  16.454 -0.0165 -0.0437  0.2648
11703TIP3    H156600   5.056   2.635  16.501  0.2191 -0.1555  0.0285
11703TIP3    H256601   5.123   2.770  16.484 -0.1838  0.1012  0.4405
11704TIP3   OH256602   5.109   2.752   0.701 -0.0141  0.1888 -0.3567
11704TIP3    H156603   5.165   2.752   0.778 -1.0968  2.3002  0.5108
11704TIP3    H256604   5.046   2.681   0.716  0.4529 -0.1131  0.1783
11705TIP3   OH256605   1.254   2.308   0.074 -0.1204 -0.4256 -0.1080
11705TIP3    H156606   1.284   2.381   0.129  0.0152 -1.3394  1.0639
11705TIP3    H256607   1.171   2.281   0.112 -0.8612 -0.0239 -1.3737
11706TIP3   OH256608   6.459   6.700   4.390  0.1423  0.2325  0.2929
11706TIP3    H156609   6.533   6.641   4.378 -0.5213 -0.6053  0.2650
11706TIP3    H256610   6.466   6.728   4.482 -0.1003 -0.6765  0.6002
11707TIP3   OH256611   3.092   1.833   0.745  0.0640 -0.0311  0.1311
11707TIP3    H156612   3.162   1.877   0.697  1.5399 -1.0815  1.2221
11707TIP3    H256613   3.035   1.798   0.676  0.7007  0.6921 -0.7917
11708TIP3   OH256614   3.116   2.050  14.220  0.4262 -0.3563 -0.1150
11708TIP3    H156615   3.159   1.965  14.212 -1.9535 -1.6831  0.0276
11708TIP3    H256616   3.031   2.030  14.260 -1.2407  1.7012 -2.2814
11709TIP3   OH256617   2.677   5.708   3.764  0.4436 -0.0241  0.0301
11709TIP3    H156618   2.689   5.739   3.854 -1.7379 -1.9045  1.0758
11709TIP3    H256619   2.595   5.748   3.736 -0.3563 -1.6389 -0.0351
11710TIP3   OH256620   3.658   3.429  15.654  0.0309  0.5806  0.1853
11710TIP3    H156621   3.635   3.518  15.680 -0.5795  0.8815 -1.2843
11710TIP3    H256622   3.753   3.429  15.647  0.2067  0.5593  2.0359
11711TIP3   OH256623   4.936   1.893   1.297 -0.1679  0.3333 -0.7561
11711TIP3    H156624   5.031   1.890   1.305 -0.1376  0.6296 -0.9838
11711TIP3    H256625   4.904   1.854   1.379  0.1444  0.5045 -0.5496
11712TIP3   OH256626   1.856   1.015   4.212  0.3259  0.2012 -0.5939
11712TIP3    H156627   1.772   0.979   4.239  1.1685 -1.5145 -0.1073
11712TIP3    H256628   1.918   0.942   4.222  1.8774  1.4176 -0.9063
11713TIP3   OH256629   0.323   1.777   3.904 -0.6671  0.2139 -0.8836
11713TIP3    H156630   0.308   1.709   3.969 -0.2965  0.6625 -0.3186
11713TIP3    H256631   0.271   1.852   3.936  1.3768  1.2468  0.2164
11714TIP3   OH256632   1.283   0.823   4.255 -0.1554  0.1132  0.0768
11714TIP3    H156633   1.252   0.901   4.302  0.8257  1.2522 -1.0795
11714TIP3    H256634   1.243   0.831   4.168  2.7004  1.3029 -1.2650
11715TIP3   OH256635   4.185   5.655   5.321 -0.1442 -0.1223 -0.5047
11715TIP3    H156636   4.211   5.648   5.413  1.0209 -0.4380 -0.8431
11715TIP3    H256637   4.190   5.748   5.302  1.7024 -0.2659 -0.8165
11716TIP3   OH256638   3.143   6.742   2.051  0.2655  0.7467  0.3915
11716TIP3    H156639   3.095   6.770   2.129  2.8515  0.1939  2.3078
11716TIP3    H256640   3.222   6.796   2.050  2.2715 -1.9502  0.5765
11717TIP3   OH256641   6.746   6.740  14.375 -0.4116  0.0559 -0.3087
11717TIP3    H156642   6.721   6.687  14.299  0.6842  0.3286 -0.8880
11717TIP3    H256643   6.759   6.676  14.445  0.3002 -0.4060 -0.8393
11718TIP3   OH256644   0.033   3.535  12.655  0.1933  0.3383  0.5419
11718TIP3    H156645   0.100   3.593  12.691  1.6122 -1.2926  0.6216
11718TIP3    H256646  -0.038   3.537  12.719  1.3242 -0.0166  1.8557
11719TIP3   OH256647   2.294   1.140   4.023  0.0729  0.4651  0.0466
11719TIP3    H156648   2.285   1.165   3.931  0.3868 -0.9739 -0.4017
11719TIP3    H256649   2.233   1.067   4.034 -1.8900  2.1968  1.6868
11720TIP3   OH256650   1.169   2.895   0.863 -0.1664  0.4373  0.1108
11720TIP3    H156651   1.116   2.869   0.939 -0.7635  0.0210 -0.4303
11720TIP3    H256652   1.214   2.815   0.837 -1.1538  0.1729 -0.8905
11721TIP3   OH256653   3.386   4.762  11.042 -0.1691 -0.2116 -0.4941
11721TIP3    H156654   3.346   4.699  11.102 -0.1033 -0.5106 -0.7572
11721TIP3    H256655   3.480   4.742  11.046  0.0164  0.8205  0.5011
11722TIP3   OH256656   2.686   1.014  15.762  0.1622 -0.0784  0.7091
11722TIP3    H156657   2.612   1.073  15.779 -1.7356 -2.4731  1.2206
11722TIP3    H256658   2.762   1.073  15.759 -1.2750  2.1958  3.3629
11723TIP3   OH256659   0.909   0.814   1.686 -0.4756 -0.2049 -0.2658
11723TIP3    H156660   0.826   0.860   1.697 -0.2339  0.0244  0.6964
11723TIP3    H256661   0.976   0.882   1.701 -0.1038 -0.9561  1.8454
11724TIP3   OH256662   1.812   1.236  15.468 -0.7089 -0.2620 -0.2964
11724TIP3    H156663   1.721   1.263  15.461 -1.2371 -1.6240  0.7180
11724TIP3    H256664   1.833   1.196  15.384 -0.8374  0.6304 -0.7551
11725TIP3   OH256665   0.631   4.552   0.259  0.1771  0.3475  0.3789
11725TIP3    H156666   0.561   4.603   0.299 -1.5549 -1.8958  0.4084
11725TIP3    H256667   0.696   4.617   0.233 -2.5248  2.7404 -0.9873
11726TIP3   OH256668   5.547   5.169   2.318  1.0040 -0.0149  0.4376
11726TIP3    H156669   5.551   5.189   2.411 -1.8465 -1.0829  0.8729
11726TIP3    H256670   5.573   5.077   2.312  3.0357  0.5332 -0.1426
11727TIP3   OH256671   2.582   2.929   5.411 -0.2889  0.2114 -0.1415
11727TIP3    H156672   2.607   2.864   5.477 -1.2670 -0.2285 -0.1852
11727TIP3    H256673   2.509   2.976   5.451 -1.1492 -0.3174 -1.0425
11728TIP3   OH256674   5.651   1.426   2.808  0.1699  0.2271  0.0739
11728TIP3    H156675   5.707   1.348   2.810  0.3874  0.3513 -0.7921
11728TIP3    H256676   5.688   1.484   2.875 -0.3362 -0.6266  1.1286
11729TIP3   OH256677   6.755   5.672  11.566  0.1901  0.5129  0.0920
11729TIP3    H156678   6.732   5.764  11.551  0.2591  0.8791  1.9361
11729TIP3    H256679   6.710   5.625  11.496 -0.4300  1.8866 -0.4857
11730TIP3   OH256680   1.319   5.868  15.119 -0.0283  0.0330 -1.0645
11730TIP3    H156681   1.373   5.851  15.042 -0.2681 -1.7016 -0.8862
11730TIP3    H256682   1.250   5.926  15.088  2.0057  2.5552 -1.2370
11731TIP3   OH256683   2.845   5.153   1.727  0.0103  0.4861 -0.1222
11731TIP3    H156684   2.917   5.164   1.666 -0.5220 -0.3812 -0.9367
11731TIP3    H256685   2.887   5.139   1.812  0.7820  0.5183 -0.4889
11732TIP3   OH256686   4.807   6.399  16.184 -0.0590  0.0011 -0.3640
11732TIP3    H156687   4.728   6.436  16.225 -0.8680  0.5008 -2.2656
11732TIP3    H256688   4.823   6.317  16.232 -2.0821 -0.4136 -0.3173
11733TIP3   OH256689   0.254   5.413  13.830  0.0061  0.1423 -0.0562
11733TIP3    H156690   0.248   5.505  13.856 -1.8035 -0.3432  1.4465
11733TIP3    H256691   0.256   5.365  13.913 -0.0933 -1.2229 -0.8188
11734TIP3   OH256692   6.079   6.523  12.389 -0.2459  0.2140  0.2377
11734TIP3    H156693   6.016   6.453  12.370 -0.4961 -0.2123  2.3333
11734TIP3    H256694   6.033   6.580  12.450  0.2731  1.7508 -0.7771
11735TIP3   OH256695   1.207   4.241  12.419  0.4727  0.0255  0.2182
11735TIP3    H156696   1.269   4.312  12.437 -0.5162  0.8493  0.4260
11735TIP3    H256697   1.260   4.162  12.424  1.1731  0.5559  2.2051
11736TIP3   OH256698   6.606   0.104  16.449  0.3443 -0.3685 -0.3551
11736TIP3    H156699   6.588   0.132  16.359 -1.3839  0.7677  0.2998
11736TIP3    H256700   6.619   0.185  16.498  1.3398 -0.9798  0.4393
11737TIP3   OH256701   6.713   3.683  11.541  0.0548 -0.0892  0.0724
11737TIP3    H156702   6.777   3.685  11.470  0.0770 -0.5215  0.0781
11737TIP3    H256703   6.638   3.732  11.507 -0.7944 -2.0337 -1.1005
11738TIP3   OH256704   3.058   2.930   3.865  0.1606  0.3561 -0.0763
11738TIP3    H156705   2.972   2.888   3.853  0.8618 -0.9685 -0.6312
11738TIP3    H256706   3.068   2.985   3.787  0.1741 -0.1400 -0.4294
11739TIP3   OH256707   0.550   5.873  11.474  0.0602 -0.0077 -0.1355
11739TIP3    H156708   0.557   5.806  11.542  0.8225 -0.9651 -1.1120
11739TIP3    H256709   0.474   5.846  11.422 -1.0823  1.2282  0.8368
11740TIP3   OH256710   4.444   6.117   5.268 -0.2744 -0.0522 -0.1827
11740TIP3    H156711   4.424   6.043   5.211  2.1330  1.3158 -3.1004
11740TIP3    H256712   4.358   6.154   5.289 -1.4249 -2.5280 -0.1756
11741TIP3   OH256713   0.483   4.650   2.550 -0.0560  0.6433  0.0827
11741TIP3    H156714   0.456   4.600   2.473 -1.5311  2.8800 -0.9690
11741TIP3    H256715   0.441   4.605   2.623  1.3288 -1.4961 -0.3336
11742TIP3   OH256716   2.371   1.657   5.094 -0.4249  0.4903 -0.0986
11742TIP3    H156717   2.342   1.608   5.171 -0.3962  0.0154 -0.3858
11742TIP3    H256718   2.333   1.610   5.020  0.3505  0.3600 -0.4295
11743TIP3   OH256719   2.844   3.365  14.653 -0.3565 -0.7547 -0.0894
11743TIP3    H156720   2.939   3.381  14.657 -0.4481  0.1834 -1.0380
11743TIP3    H256721   2.810   3.439  14.602 -1.4330 -1.7455 -0.8499
11744TIP3   OH256722   2.158   1.174  16.595 -0.0690  0.3877  0.0041
11744TIP3    H156723   2.121   1.132  16.672 -0.7572 -0.8600 -0.9732
11744TIP3    H256724   2.245   1.135  16.586  0.3148  1.0906  0.5621
11745TIP3   OH256725   2.970   1.925   2.656  0.3511 -0.0847  0.1311
11745TIP3    H156726   2.980   1.916   2.751  1.4879 -2.1472 -0.1068
11745TIP3    H256727   2.880   1.901   2.638  0.6089 -1.4395  0.5582
11746TIP3   OH256728   5.214   0.850   0.162  0.1848 -0.1275 -0.4323
11746TIP3    H156729   5.249   0.797   0.090 -0.4341 -2.4206  0.8556
11746TIP3    H256730   5.127   0.812   0.179 -0.3876  1.4782  0.4271
11747TIP3   OH256731   5.636   4.286   1.214  0.0769 -0.2032  0.0939
11747TIP3    H156732   5.614   4.377   1.236  3.4597  0.5845  0.7511
11747TIP3    H256733   5.618   4.279   1.120  1.7297  1.9100 -0.4702
11748TIP3   OH256734   4.731   6.502  11.138 -0.2232  0.4497  0.1971
11748TIP3    H156735   4.684   6.426  11.172  1.0271 -0.6336 -0.4067
11748TIP3    H256736   4.790   6.528  11.209 -1.7018  1.8277  0.9660
11749TIP3   OH256737   6.621   2.752   1.542  0.6577  0.0634  0.2343
11749TIP3    H156738   6.583   2.829   1.583 -0.8774 -1.7983  2.5938
11749TIP3    H256739   6.568   2.738   1.463  0.1213  0.6996  0.4752
11750TIP3   OH256740   1.366   3.770   5.577  0.2207  0.6103 -0.3066
11750TIP3    H156741   1.405   3.690   5.541  0.1676  0.4107  0.0707
11750TIP3    H256742   1.361   3.829   5.502  0.1422  0.2167 -0.6206
11751TIP3   OH256743   2.394   4.156  11.643 -0.4538 -0.0448 -0.0174
11751TIP3    H156744   2.366   4.244  11.667 -1.5761  0.0054 -1.4140
11751TIP3    H256745   2.316   4.115  11.605  0.5501 -0.9873 -1.1433
11752TIP3   OH256746   6.476   0.267  14.344  0.0190  0.0517 -0.3368
11752TIP3    H156747   6.429   0.267  14.427  1.4280  1.2567  0.5098
11752TIP3    H256748   6.413   0.302  14.281  0.1246  3.0029  1.0377
11753TIP3   OH256749   4.087   5.012  12.476  0.0227 -0.0282 -0.6076
11753TIP3    H156750   4.082   4.984  12.384 -0.4875 -3.0414  0.2208
11753TIP3    H256751   4.173   5.053  12.484  1.4324 -2.5228 -1.7964
11754TIP3   OH256752   3.527   1.638   1.524  0.1247 -0.5604 -0.4713
11754TIP3    H156753   3.529   1.561   1.581 -2.9286  0.6107  1.5185
11754TIP3    H256754   3.542   1.712   1.583 -1.1756  0.5924 -1.4962
11755TIP3   OH256755   1.921   0.898   0.574 -0.2315  0.0170  0.3423
11755TIP3    H156756   1.930   0.956   0.498  1.0776 -1.1462 -0.4326
11755TIP3    H256757   2.003   0.909   0.622 -1.0818  0.8061  1.6688
11756TIP3   OH256758   0.426   2.893   4.355 -0.6809 -0.1571 -0.3364
11756TIP3    H156759   0.459   2.818   4.305  1.7547  1.0482 -0.6602
11756TIP3    H256760   0.427   2.966   4.293  1.2739  1.0973  1.0362
11757TIP3   OH256761   4.094   5.821  12.551 -0.3657 -0.2000 -0.0773
11757TIP3    H156762   4.069   5.830  12.643  0.7730  0.5678  0.1888
11757TIP3    H256763   4.072   5.731  12.528 -1.1925 -0.2258  0.7813
11758TIP3   OH256764   2.112   5.650   3.790 -0.1894 -0.3117 -0.1549
11758TIP3    H156765   2.150   5.615   3.710  1.0524  3.0489 -1.1835
11758TIP3    H256766   2.024   5.677   3.765  0.2967  1.0033 -0.5529
11759TIP3   OH256767   3.914   1.404  17.312  0.9163 -0.5490 -0.9256
11759TIP3    H156768   3.935   1.403  17.406  0.2634  0.3839 -0.7486
11759TIP3    H256769   3.999   1.407  17.269  1.2176 -0.1705 -0.3269
11760TIP3   OH256770   1.607   5.427   2.998 -0.0124 -0.4583  0.0313
11760TIP3    H156771   1.552   5.351   2.982  0.4863 -1.2292  1.7239
11760TIP3    H256772   1.674   5.396   3.060  0.2661  1.3192  0.6863
11761TIP3   OH256773   4.461   0.351   2.622  0.4622  0.4268 -0.2274
11761TIP3    H156774   4.450   0.417   2.553 -1.0715  0.2623 -0.1579
11761TIP3    H256775   4.401   0.281   2.598 -0.2226  0.4318  1.3585
11762TIP3   OH256776   5.359   3.024  15.210 -0.1294  0.1531  0.3508
11762TIP3    H156777   5.398   3.111  15.208 -0.4477  0.3458  1.5957
11762TIP3    H256778   5.272   3.035  15.172  0.5971 -0.0581 -1.4275
11763TIP3   OH256779   6.631   3.598  15.019  0.6757 -0.2237 -0.3572
11763TIP3    H156780   6.602   3.559  15.101  1.9007  0.0605  0.2417
11763TIP3    H256781   6.550   3.620  14.972 -0.1034  1.0329  1.4546
11764TIP3   OH256782   5.835   0.883   3.647  0.3100  0.0191 -0.0045
11764TIP3    H156783   5.817   0.901   3.740 -0.5955  1.8929 -0.4722
11764TIP3    H256784   5.750   0.893   3.604  1.0004  0.8592 -1.2464
11765TIP3   OH256785   5.796   1.961  14.808  0.2594 -0.1444  0.2669
11765TIP3    H156786   5.803   2.056  14.802  1.6153 -0.1489  1.3923
11765TIP3    H256787   5.883   1.932  14.834  0.4396 -1.8956 -1.9997
11766TIP3   OH256788   5.391   0.578  11.346  0.1400 -0.3060  0.1913
11766TIP3    H156789   5.409   0.556  11.254  1.0100  0.6296  0.1128
11766TIP3    H256790   5.296   0.589  11.350  0.1471  0.2687 -0.7616
11767TIP3   OH256791   6.039   2.023  13.687  0.0461 -0.1950 -0.6540
11767TIP3    H156792   6.028   2.003  13.780 -1.8910  3.2529  0.0175
11767TIP3    H256793   5.974   1.968  13.643  0.7480 -1.6067 -0.0005
11768TIP3   OH256794   0.062   3.525  11.690 -0.3856  0.2274  0.8692
11768TIP3    H156795  -0.005   3.582  11.653  1.3228  2.0133  0.3183
11768TIP3    H256796   0.052   3.442  11.644 -1.5520  0.7759  0.0914
11769TIP3   OH256797   3.186   5.892  16.502  0.2062  0.4802  0.8930
11769TIP3    H156798   3.136   5.938  16.434  1.4341  0.5411  0.0076
11769TIP3    H256799   3.166   5.940  16.582 -2.8734 -0.7962  1.0174
11770TIP3   OH256800   1.839   5.777   3.743 -0.3501 -0.5380  0.5137
11770TIP3    H156801   1.815   5.749   3.655 -2.5068 -0.3379  0.9863
11770TIP3    H256802   1.874   5.866   3.730 -0.5765 -0.5346 -0.1470
11771TIP3   OH256803   3.386   4.592  12.023  0.3613 -0.8223 -0.0314
11771TIP3    H156804   3.324   4.526  11.992  0.6089 -0.2288 -1.9709
11771TIP3    H256805   3.393   4.654  11.950  2.1616 -0.1112  0.6811
11772TIP3   OH256806   4.757   1.177  10.430 -0.0216 -0.1407 -0.1674
11772TIP3    H156807   4.704   1.142  10.502 -0.3544  1.6410  0.4856
11772TIP3    H256808   4.759   1.106  10.365 -2.7415 -0.4609  0.0058
11773TIP3   OH256809   1.988   5.143  13.983  0.0687 -0.3013 -0.0112
11773TIP3    H156810   2.051   5.080  13.948  1.1219  0.8550 -0.2645
11773TIP3    H256811   1.951   5.186  13.905 -1.0079 -0.9267  0.1354
11774TIP3   OH256812   1.232   2.715   6.184  0.4387 -0.5505 -0.2077
11774TIP3    H156813   1.154   2.755   6.225  0.7064  0.0514 -0.2669
11774TIP3    H256814   1.302   2.730   6.248  1.0115  0.9938 -1.1363
11775TIP3   OH256815   1.635   4.523   1.457 -0.5149 -0.3175  0.9945
11775TIP3    H156816   1.697   4.454   1.435 -0.4609  0.3831 -1.3166
11775TIP3    H256817   1.685   4.584   1.510  0.4633 -0.3472  0.1438
11776TIP3   OH256818   6.566   2.281   5.940  0.3664 -0.8928 -0.3806
11776TIP3    H156819   6.516   2.357   5.970  0.0517 -1.0967 -0.3879
11776TIP3    H256820   6.637   2.318   5.887  1.8541 -0.4065  1.8403
11777TIP3   OH256821   4.884   2.675   0.896 -0.3315  0.4923 -0.7145
11777TIP3    H156822   4.809   2.711   0.944  1.3887  1.0529  1.7162
11777TIP3    H256823   4.954   2.668   0.961  1.7516 -0.0442 -2.8584
11778TIP3   OH256824   1.408   4.417   1.327  0.3133 -0.0357  0.1113
11778TIP3    H156825   1.487   4.441   1.376  0.4576 -1.0420  0.4086
11778TIP3    H256826   1.347   4.489   1.343  0.6927  0.1079  0.9984
11779TIP3   OH256827   3.763   4.336  16.815  0.9455  0.0042  1.0804
11779TIP3    H156828   3.745   4.405  16.751 -1.7934 -0.4463  1.2263
11779TIP3    H256829   3.689   4.340  16.876  1.5681 -1.9734  2.0608
11780TIP3   OH256830   6.449   6.390   3.736 -0.0052  0.1049 -0.0976
11780TIP3    H156831   6.463   6.424   3.824 -0.2678  0.6204 -0.2556
11780TIP3    H256832   6.378   6.326   3.746 -0.3736  0.5267 -0.0207
11781TIP3   OH256833   3.061   3.303   2.274  0.2503  0.2162 -0.1127
11781TIP3    H156834   3.155   3.290   2.288  0.4945 -0.5368 -2.1114
11781TIP3    H256835   3.019   3.257   2.347  1.4160 -0.2930  0.2535
11782TIP3   OH256836   3.494   1.921  12.721 -0.5625  0.2313 -1.0183
11782TIP3    H156837   3.511   1.935  12.814 -1.4715 -1.3616 -0.5944
11782TIP3    H256838   3.581   1.926  12.680  0.6582 -3.8856  0.6021
11783TIP3   OH256839   4.747   5.345   0.902  0.2969  0.2451  0.2583
11783TIP3    H156840   4.757   5.378   0.812  1.3421 -0.0315  0.2610
11783TIP3    H256841   4.785   5.414   0.957  0.3509  0.0722  0.4368
11784TIP3   OH256842   1.201   1.583  11.150 -0.6791 -0.3018  0.2284
11784TIP3    H156843   1.156   1.606  11.232  0.5732 -0.2621  0.9362
11784TIP3    H256844   1.233   1.494  11.165  0.2290 -0.0072  0.0927
11785TIP3   OH256845   0.620   3.847   5.732  0.2288  0.2155 -0.2648
11785TIP3    H156846   0.619   3.757   5.699 -1.7387  0.4034 -0.8414
11785TIP3    H256847   0.638   3.900   5.654  1.9900  0.3264  0.1776
11786TIP3   OH256848   3.277   4.476   6.299  0.1919 -0.0637  0.1536
11786TIP3    H156849   3.249   4.426   6.375 -2.1450  0.4409 -0.3110
11786TIP3    H256850   3.298   4.410   6.233 -1.0259 -0.4629  0.1586
11787TIP3   OH256851   6.091   5.836   3.730 -0.2620 -0.3792  0.1511
11787TIP3    H156852   6.150   5.770   3.695  1.2505 -0.6843  2.9636
11787TIP3    H256853   6.019   5.786   3.768 -0.2750 -0.2610  0.2814
11788TIP3   OH256854   1.115   2.421  11.426  0.2319 -0.0086 -0.5714
11788TIP3    H156855   1.130   2.407  11.332 -0.3536  1.7310 -0.9588
11788TIP3    H256856   1.199   2.399  11.467  0.4122 -1.0653 -1.4400
11789TIP3   OH256857   2.734   6.567  12.188  1.1330 -0.2728 -0.1621
11789TIP3    H156858   2.779   6.504  12.244  1.2665  1.2408  1.5257
11789TIP3    H256859   2.646   6.530  12.177  2.0087 -2.0988 -1.5570
11790TIP3   OH256860   2.272   5.390  17.112  0.3143 -0.6842 -0.0117
11790TIP3    H156861   2.273   5.446  17.189 -1.8748  0.1214 -0.4859
11790TIP3    H256862   2.364   5.383  17.086  0.8125  1.5694  0.8774
11791TIP3   OH256863   5.335   0.916   0.993 -0.1205  0.1536 -0.1372
11791TIP3    H156864   5.430   0.920   0.998 -0.0342 -1.3335 -0.3837
11791TIP3    H256865   5.317   0.852   0.924 -1.3000  0.1040  0.2020
11792TIP3   OH256866   2.733   1.310   6.557 -0.3034 -0.9850 -0.0531
11792TIP3    H156867   2.677   1.381   6.589 -1.0158 -0.6129 -2.0030
11792TIP3    H256868   2.714   1.305   6.463  2.0796 -1.6521 -0.5599
11793TIP3   OH256869   0.388   6.604  16.936 -0.1935  0.0602 -0.0707
11793TIP3    H156870   0.446   6.656  16.992  0.5972  1.5343 -2.1279
11793TIP3    H256871   0.447   6.550  16.884 -0.8814 -0.8822  0.1065
11794TIP3   OH256872   4.200   1.421  15.562 -0.1683 -0.2908 -0.2552
11794TIP3    H156873   4.215   1.420  15.657  1.1734  1.2934 -0.4017
11794TIP3    H256874   4.194   1.329  15.538  0.0852 -0.7438  1.2833
11795TIP3   OH256875   3.076   2.699   0.337 -0.0873 -0.0373  0.0302
11795TIP3    H156876   3.126   2.618   0.351 -0.3308 -0.3025 -0.6155
11795TIP3    H256877   3.108   2.733   0.254 -0.0670  0.4752  0.2462
11796TIP3   OH256878   2.575   2.641  16.434  0.1262  0.3806 -0.0140
11796TIP3    H156879   2.541   2.574  16.493 -1.9432 -0.0001 -1.5300
11796TIP3    H256880   2.603   2.592  16.356  0.6582  1.0880 -0.2798
11797TIP3   OH256881   4.759   0.281  13.596  0.1587  0.1929 -0.1918
11797TIP3    H156882   4.800   0.351  13.646  0.9093 -0.7398  0.5458
11797TIP3    H256883   4.773   0.305  13.504  0.8911  0.7359  0.0567
11798TIP3   OH256884   1.295   1.473   1.920 -0.3988  0.3322  0.2689
11798TIP3    H156885   1.230   1.471   1.990 -1.0977  1.1135 -0.3367
11798TIP3    H256886   1.336   1.559   1.928  1.0215 -0.3809  1.0279
11799TIP3   OH256887   6.184   3.687  11.162 -0.1135  0.4490  0.1107
11799TIP3    H156888   6.104   3.680  11.215 -0.5344  2.1793 -0.2544
11799TIP3    H256889   6.163   3.640  11.081 -0.3154 -0.1578  0.5110
11800TIP3   OH256890   2.700   2.953  13.859 -0.5004  0.0794 -0.0398
11800TIP3    H156891   2.751   2.907  13.926 -0.6540 -0.0512 -0.0132
11800TIP3    H256892   2.765   2.983  13.796 -0.3745  0.0391  0.0713
11801TIP3   OH256893   2.544   6.474  13.194 -0.4303  0.3973  0.1708
11801TIP3    H156894   2.480   6.491  13.125 -0.4246 -0.3761 -0.0293
11801TIP3    H256895   2.491   6.469  13.274 -0.5073  0.6996  0.1394
11802TIP3   OH256896   5.530   6.541   2.087 -0.4662  0.7529  0.5105
11802TIP3    H156897   5.450   6.522   2.039 -1.3569  0.6825  1.9567
11802TIP3    H256898   5.542   6.466   2.146  0.3164  1.0421  0.7426
11803TIP3   OH256899   1.645   3.750  15.677  0.0538 -0.1679 -0.5717
11803TIP3    H156900   1.714   3.685  15.694 -0.3665 -0.1315  1.6469
11803TIP3    H256901   1.643   3.802  15.758 -1.6559  0.6898 -1.1424
11804TIP3   OH256902   1.737   3.295  12.582  0.6230  0.3021  0.1651
11804TIP3    H156903   1.797   3.334  12.646  0.3353  2.0177 -0.5439
11804TIP3    H256904   1.691   3.227  12.630 -0.1932  2.1015  2.0839
11805TIP3   OH256905   0.186   4.789   4.277 -0.1095 -0.4807  0.1376
11805TIP3    H156906   0.188   4.696   4.254 -0.1849 -0.3125 -0.5753
11805TIP3    H256907   0.277   4.815   4.282 -0.0827 -0.2389 -1.1979
11806TIP3   OH256908   3.236   5.958   5.929 -0.3949 -0.0537  0.2558
11806TIP3    H156909   3.170   5.900   5.891 -0.2021  0.9249 -1.6985
11806TIP3    H256910   3.309   5.900   5.950 -0.3831 -0.6293 -1.2327
11807TIP3   OH256911   3.288   3.621   1.366 -0.3409  0.0378  0.3534
11807TIP3    H156912   3.271   3.590   1.277  2.2457  0.5628 -0.3889
11807TIP3    H256913   3.208   3.669   1.390 -0.5586  1.1154 -2.2339
11808TIP3   OH256914   4.859   4.849  16.571 -0.4867  0.1802 -0.2580
11808TIP3    H156915   4.949   4.843  16.539 -0.2928  0.4170  0.2450
11808TIP3    H256916   4.817   4.768  16.541  0.6378 -1.2738  1.8680
11809TIP3   OH256917   2.187   2.201  11.166 -0.1891 -0.0856  0.4077
11809TIP3    H156918   2.249   2.270  11.144 -0.7520 -0.0109 -1.0339
11809TIP3    H256919   2.102   2.235  11.140 -0.5934 -0.9544  0.5497
11810TIP3   OH256920   2.766   1.910  13.938  0.5131  0.1887  0.1957
11810TIP3    H156921   2.807   1.855  13.871 -0.5125  0.8800 -1.0412
11810TIP3    H256922   2.832   1.976  13.957  0.9119 -0.1617  0.0675
11811TIP3   OH256923   5.529   2.473  13.267  0.7756 -0.1211 -0.5499
11811TIP3    H156924   5.544   2.566  13.282 -1.3817  0.2538 -0.2905
11811TIP3    H256925   5.442   2.457  13.304 -0.2324 -1.5478 -3.2963
11812TIP3   OH256926   4.145   0.564   3.456 -0.2606 -0.1413 -0.1378
11812TIP3    H156927   4.059   0.558   3.498 -0.1161 -0.7924  0.0870
11812TIP3    H256928   4.195   0.622   3.513 -0.4695  0.0277 -0.1235
11813TIP3   OH256929   4.796   6.557  12.431 -0.0510  0.4182 -0.3849
11813TIP3    H156930   4.740   6.593  12.363 -0.3903 -0.5529 -0.6297
11813TIP3    H256931   4.857   6.628  12.452  0.1772  0.6744 -1.8223
11814TIP3   OH256932   2.026   0.461  14.470 -0.0930 -0.1247  0.4692
11814TIP3    H156933   1.968   0.424  14.403  1.1348 -1.3949  0.0579
11814TIP3    H256934   1.983   0.439  14.553 -0.9864  0.3466  0.1393
11815TIP3   OH256935   0.038   1.425   2.378 -0.7765  0.0465 -0.2376
11815TIP3    H156936   0.050   1.395   2.468 -0.9141  0.4485 -0.0850
11815TIP3    H256937   0.094   1.368   2.326  0.4260  0.7370  0.2624
11816TIP3   OH256938   1.524   4.048   4.079  0.3343  0.3646  0.3185
11816TIP3    H156939   1.586   4.115   4.106  1.6354  0.1688 -1.9111
11816TIP3    H256940   1.482   4.084   4.000 -0.9245 -0.3405  0.6363
11817TIP3   OH256941   5.433   3.961  15.022 -0.1912  0.5343 -0.1321
11817TIP3    H156942   5.369   3.987  15.089 -1.1602  0.6205 -1.0559
11817TIP3    H256943   5.495   3.905  15.068 -0.0228  1.7161  1.1432
11818TIP3   OH256944   5.331   1.262   3.671  0.1022 -0.4509  0.6129
11818TIP3    H156945   5.254   1.310   3.641  0.1296 -0.5008  0.4631
11818TIP3    H256946   5.364   1.313   3.745  1.7184  1.2737 -1.1834
11819TIP3   OH256947   1.732   5.551  12.447  0.1687 -0.1769 -0.1532
11819TIP3    H156948   1.660   5.502  12.407 -0.1413  0.9618 -1.0652
11819TIP3    H256949   1.811   5.511  12.413 -0.0875  0.5642 -1.7046
11820TIP3   OH256950   3.682   0.772  11.517 -0.7064  0.1735 -0.5003
11820TIP3    H156951   3.733   0.850  11.538 -1.7832  1.1487 -1.3631
11820TIP3    H256952   3.599   0.806  11.484 -1.7739 -1.3543  0.4614
11821TIP3   OH256953   5.849   5.454  10.458  0.6826  0.0314 -0.1822
11821TIP3    H156954   5.862   5.542  10.493  0.5442 -0.8073  2.1656
11821TIP3    H256955   5.883   5.396  10.527 -1.8748 -1.8178 -0.3392
11822TIP3   OH256956   4.996   2.867   5.377 -0.1214  0.5783 -0.0765
11822TIP3    H156957   5.022   2.784   5.416  0.4004 -0.2464 -2.0705
11822TIP3    H256958   4.919   2.895   5.427  0.8256 -0.1115  1.8577
11823TIP3   OH256959   4.871   4.856   2.509  0.0559  0.3082 -0.3989
11823TIP3    H156960   4.779   4.861   2.537 -0.0023 -1.8041 -0.0793
11823TIP3    H256961   4.871   4.900   2.423 -1.2909  0.2060 -0.4874
11824TIP3   OH256962   1.913   5.213   3.984  0.0986 -0.5179 -0.2908
11824TIP3    H156963   1.936   5.301   3.957  0.8580 -0.0908  1.5556
11824TIP3    H256964   1.996   5.173   4.011 -0.6009 -0.6809  1.8238
11825TIP3   OH256965   3.754   0.980  15.333  0.3244  0.6911  0.4707
11825TIP3    H156966   3.782   1.056  15.384  0.4629  1.3516 -0.5526
11825TIP3    H256967   3.663   0.966  15.357  0.7953  0.0406  2.0113
11826TIP3   OH256968   5.824   1.204   2.794  0.1915 -0.2882 -0.2660
11826TIP3    H156969   5.844   1.167   2.707 -0.4640  0.3292 -0.6916
11826TIP3    H256970   5.792   1.129   2.845 -0.6870 -0.4238 -0.9773
11827TIP3   OH256971   4.092   2.463  15.452  0.1200  0.7960 -0.4951
11827TIP3    H156972   4.050   2.445  15.368 -2.4050  0.5567  0.7029
11827TIP3    H256973   4.138   2.546  15.439  0.2552  0.4825 -2.2371
11828TIP3   OH256974   2.057   0.057  15.577 -0.8754 -0.9313  0.0509
11828TIP3    H156975   2.024  -0.030  15.599 -0.2169 -0.8921  1.3262
11828TIP3    H256976   2.052   0.062  15.482 -0.5801 -2.5114 -0.0675
11829TIP3   OH256977   5.977   3.480  11.421 -0.9198 -0.1876  0.0907
11829TIP3    H156978   5.992   3.386  11.423 -1.5222 -0.3357 -1.2341
11829TIP3    H256979   5.970   3.501  11.328 -2.5318  0.8740  0.4097
11830TIP3   OH256980   6.696   2.035   1.700  0.4612  0.0313  0.2624
11830TIP3    H156981   6.653   2.092   1.637 -0.8535  2.0189  2.7833
11830TIP3    H256982   6.640   2.039   1.778  2.3147 -1.8073  1.7934
11831TIP3   OH256983   1.549   2.065  16.380 -0.3197 -0.0680  0.0265
11831TIP3    H156984   1.472   2.010  16.368  0.8580 -1.4322 -1.6510
11831TIP3    H256985   1.578   2.087  16.292 -0.0358  2.3047  0.6304
11832TIP3   OH256986   2.142   5.642   0.663 -0.0190  0.1064  0.1385
11832TIP3    H156987   2.087   5.691   0.725  0.9079 -0.5496  1.5196
11832TIP3    H256988   2.079   5.597   0.607 -0.8878  1.0482  0.3097
11833TIP3   OH256989   4.906   1.352   5.635  0.3854 -0.0013  0.3821
11833TIP3    H156990   4.939   1.279   5.687 -3.0857 -0.7949  1.7397
11833TIP3    H256991   4.818   1.368   5.669 -0.9055  1.5427 -3.2106
11834TIP3   OH256992   0.520   5.507   6.630  0.0628 -0.7863  0.4752
11834TIP3    H156993   0.469   5.501   6.712  0.9156 -1.4574  0.9764
11834TIP3    H256994   0.510   5.598   6.603 -1.4447 -0.9035  0.5225
11835TIP3   OH256995   6.220   2.371  16.330 -0.1765 -0.1956 -0.1182
11835TIP3    H156996   6.147   2.310  16.341  0.5567 -0.9812  0.4768
11835TIP3    H256997   6.196   2.446  16.385 -1.4917  0.4929 -1.5228
11836TIP3   OH256998   1.559   2.725   1.289 -0.5361 -0.0946 -0.1701
11836TIP3    H156999   1.532   2.644   1.246 -1.5912 -0.0658  0.4016
11836TIP3    H257000   1.558   2.704   1.383  1.4522 -0.0824 -0.1052
11837TIP3   OH257001   4.911   6.523   5.002  0.0843  0.1730 -0.8640
11837TIP3    H157002   4.977   6.472   4.955 -1.6308 -2.4711 -0.5879
11837TIP3    H257003   4.841   6.538   4.938  0.5908  2.4148 -0.9804
11838TIP3   OH257004   5.783   6.350   4.835  0.2067  0.3272 -0.2537
11838TIP3    H157005   5.709   6.348   4.895 -0.2227  1.2931 -0.7302
11838TIP3    H257006   5.802   6.258   4.816 -0.0574  0.0353  0.8477
11839TIP3   OH257007   6.743   1.556   0.610  0.0451 -0.5690  0.2555
11839TIP3    H157008   6.820   1.576   0.558  0.7975 -0.2059  1.4574
11839TIP3    H257009   6.727   1.636   0.661  0.7672 -1.6296  2.2909
11840TIP3   OH257010   6.023   6.505  16.076  0.2517  1.0838 -0.3911
11840TIP3    H157011   6.045   6.505  15.983  0.0511 -0.3198 -0.4596
11840TIP3    H257012   6.072   6.579  16.113  1.8364  0.5070 -1.2657
11841TIP3   OH257013   2.564   3.205  13.764  0.4639  0.6174 -0.2302
11841TIP3    H157014   2.650   3.211  13.724  1.1693  0.2359  1.1489
11841TIP3    H257015   2.507   3.174  13.694  1.4125  1.0208 -1.2044
11842TIP3   OH257016   5.183   4.269   4.907 -0.2056 -0.3972 -0.3892
11842TIP3    H157017   5.091   4.249   4.923  0.2045 -1.3262  1.0412
11842TIP3    H257018   5.197   4.247   4.815 -1.1849 -1.2501 -0.3511
11843TIP3   OH257019   0.623   6.413  15.710 -0.0310  0.2100 -0.3532
11843TIP3    H157020   0.613   6.342  15.647  1.3258 -1.1849  0.9216
11843TIP3    H257021   0.698   6.463  15.678  0.6749 -0.5137  0.1352
11844TIP3   OH257022   1.061   1.256  15.472 -0.1565 -0.2671  0.4517
11844TIP3    H157023   0.988   1.299  15.428  0.0804 -0.9972 -0.6918
11844TIP3    H257024   1.125   1.325  15.486 -1.1745  0.4601  1.7848
11845TIP3   OH257025   2.229   4.498  15.821  0.3911 -0.3622 -0.4911
11845TIP3    H157026   2.157   4.553  15.853  0.3154 -0.1268 -1.0607
11845TIP3    H257027   2.302   4.519  15.879  0.3564  0.3291 -0.6824
11846TIP3   OH257028   2.415   3.364   5.894  0.2168 -0.0221  0.1317
11846TIP3    H157029   2.428   3.400   5.981 -0.6739 -2.8237  1.5287
11846TIP3    H257030   2.504   3.359   5.856  0.3942  3.4566 -0.2149
11847TIP3   OH257031   6.130   4.591  17.333  0.3627  0.5116 -0.7102
11847TIP3    H157032   6.103   4.593  17.241  0.4778  0.2841 -0.7488
11847TIP3    H257033   6.157   4.501  17.349 -2.9688 -0.4265  0.5078
11848TIP3   OH257034   1.300   6.473  15.261  0.1640  0.2950 -0.1513
11848TIP3    H157035   1.332   6.542  15.319  0.8952  0.4065 -0.6739
11848TIP3    H257036   1.305   6.510  15.173  0.3339 -0.3369 -0.4155
11849TIP3   OH257037   1.839   2.669  13.028  0.2180  0.1427  0.3027
11849TIP3    H157038   1.925   2.703  13.001  0.6270 -0.6150  0.6233
11849TIP3    H257039   1.843   2.668  13.124  1.1698 -3.0749  0.3264
11850TIP3   OH257040   6.342   3.203  13.023  0.1279  0.5120  0.0013
11850TIP3    H157041   6.300   3.272  12.972 -0.4372 -0.0837 -0.3604
11850TIP3    H257042   6.272   3.167  13.077  0.6785  0.9903  1.0504
11851TIP3   OH257043   6.084   1.321   1.718 -0.8916 -0.2937  0.0628
11851TIP3    H157044   6.134   1.372   1.783 -1.5544 -0.7747  0.9713
11851TIP3    H257045   6.147   1.305   1.648  0.6312 -1.8890  1.6878
11852TIP3   OH257046   1.664   6.357  11.661  1.0864  0.1088  0.4283
11852TIP3    H157047   1.638   6.350  11.569  0.5381  1.3081  0.4810
11852TIP3    H257048   1.760   6.361  11.659  1.0679  0.3589 -0.1082
11853TIP3   OH257049   5.879   1.495   5.217  0.5144 -0.0341  0.1962
11853TIP3    H157050   5.943   1.477   5.148  0.1322  0.4101 -0.2861
11853TIP3    H257051   5.888   1.422   5.278  3.9624  1.7336  2.0949
11854TIP3   OH257052   3.450   0.880   1.985  0.3906 -0.3044  0.3940
11854TIP3    H157053   3.478   0.840   1.903  2.8311  2.0503 -0.0513
11854TIP3    H257054   3.378   0.938   1.960 -1.3434 -2.2305  0.6210
11855TIP3   OH257055   0.795   2.865   0.999  0.2653  0.0722  0.5211
11855TIP3    H157056   0.882   2.886   1.032  0.3342  1.7279 -0.5754
11855TIP3    H257057   0.738   2.868   1.076  1.2089 -1.4732  1.3236
11856TIP3   OH257058   1.667   1.227  10.786  0.1914 -0.1381 -0.2472
11856TIP3    H157059   1.744   1.240  10.731  1.6908 -0.3211  1.7292
11856TIP3    H257060   1.672   1.296  10.852 -0.2256 -1.3599  1.1107
11857TIP3   OH257061   2.121   5.222  16.277 -0.8302 -0.1439  0.4491
11857TIP3    H157062   2.050   5.170  16.315 -1.2208 -0.4370 -0.6648
11857TIP3    H257063   2.141   5.178  16.194 -1.5028  1.7517 -0.7657
11858TIP3   OH257064   5.069   6.372   4.848 -0.1133  0.1444 -0.5958
11858TIP3    H157065   5.114   6.305   4.900  0.5585  0.0962 -1.2345
11858TIP3    H257066   4.981   6.336   4.834  0.0022 -0.2581 -0.3040
11859TIP3   OH257067   4.411   3.206  15.337 -0.4010 -0.6182  0.1372
11859TIP3    H157068   4.436   3.135  15.395 -0.9633  0.0366  1.2059
11859TIP3    H257069   4.318   3.191  15.320 -0.5757 -0.0267  0.5443
11860TIP3   OH257070   4.549   5.143   1.524 -0.7026 -0.0850  0.4245
11860TIP3    H157071   4.643   5.135   1.509 -0.5533 -0.8177  1.6249
11860TIP3    H257072   4.516   5.192   1.449 -0.0571 -3.5053 -2.3344
11861TIP3   OH257073   1.180   5.359   1.249 -0.2119  0.2163  0.0423
11861TIP3    H157074   1.153   5.445   1.216 -0.5158  0.0620 -0.1169
11861TIP3    H257075   1.118   5.341   1.320  0.1810  0.3631  0.4268
11862TIP3   OH257076   5.533   5.692  13.392 -0.5774 -0.2876 -0.0282
11862TIP3    H157077   5.614   5.690  13.444 -0.9653  1.0946  0.6712
11862TIP3    H257078   5.563   5.701  13.302  0.0626 -1.0575  0.0910
11863TIP3   OH257079   2.459   0.725  17.112 -0.1076 -0.4426 -0.2367
11863TIP3    H157080   2.395   0.721  17.183 -0.5887  0.1462 -0.6249
11863TIP3    H257081   2.469   0.818  17.094  0.8650 -0.5271 -0.1865
11864TIP3   OH257082   3.509   5.012  11.784 -0.0646  0.0723  0.3301
11864TIP3    H157083   3.441   5.077  11.766 -0.0732  0.2245  0.8723
11864TIP3    H257084   3.556   5.003  11.701  2.9252  4.2676  1.2490
11865TIP3   OH257085   3.328   6.364   5.730  0.3955 -0.1042 -0.7561
11865TIP3    H157086   3.276   6.363   5.810  1.8373 -1.0379  0.2174
11865TIP3    H257087   3.388   6.438   5.741 -1.1364  1.4379 -2.2021
11866TIP3   OH257088   3.937   0.713  15.790 -0.2358 -0.1769 -0.3250
11866TIP3    H157089   3.875   0.714  15.863 -1.0100  2.9288 -0.9097
11866TIP3    H257090   4.002   0.779  15.813 -0.3156  0.6364 -2.2617
11867TIP3   OH257091   1.113   0.813   3.096  0.1958 -0.0785  0.3803
11867TIP3    H157092   1.160   0.743   3.142  0.2096 -0.7125 -0.5566
11867TIP3    H257093   1.181   0.874   3.068  0.2507 -0.0038  0.6773
11868TIP3   OH257094   4.157   5.129  16.495  0.4075 -0.2396  0.0724
11868TIP3    H157095   4.193   5.171  16.573  1.3903 -0.2752 -0.3581
11868TIP3    H257096   4.186   5.184  16.422  2.6417 -2.2037 -0.6137
11869TIP3   OH257097   5.788   3.204  14.207 -0.2352  0.3179 -0.6018
11869TIP3    H157098   5.803   3.127  14.262  1.7915  1.0436 -0.0654
11869TIP3    H257099   5.697   3.195  14.179 -0.1553 -2.0969 -0.3154
11870TIP3   OH257100   3.372   0.779  12.429 -0.4004  0.3664  0.0416
11870TIP3    H157101   3.454   0.802  12.386 -1.7243  2.0843 -1.7565
11870TIP3    H257102   3.350   0.693  12.394 -0.0534  0.5104 -0.5457
11871TIP3   OH257103   4.054   0.197   3.963 -0.6710 -0.3782  0.1160
11871TIP3    H157104   4.013   0.127   4.013  0.4388 -2.8708 -2.2055
11871TIP3    H257105   3.995   0.212   3.889 -0.0239 -0.1645 -0.3674
11872TIP3   OH257106   5.276   5.435   0.618 -0.3923 -0.2249 -0.0588
11872TIP3    H157107   5.241   5.372   0.681  0.2083  1.7155  2.3957
11872TIP3    H257108   5.212   5.436   0.547 -2.3662 -0.9051  1.6003
11873TIP3   OH257109   6.082   4.619   5.045  0.4933 -0.2441  0.2942
11873TIP3    H157110   6.167   4.661   5.032 -0.0069  0.6500 -0.2334
11873TIP3    H257111   6.059   4.637   5.136  0.3773  0.5020  0.1321
11874TIP3   OH257112   4.271   1.641   1.448  0.1219  0.0192  0.0365
11874TIP3    H157113   4.270   1.565   1.506 -0.5681  1.4855  2.0442
11874TIP3    H257114   4.322   1.706   1.495  3.7167 -0.1470 -3.0785
11875TIP3   OH257115   6.068   1.880   4.426  0.8148  0.1043 -0.4071
11875TIP3    H157116   6.129   1.900   4.355 -0.8434  1.9842 -1.4236
11875TIP3    H257117   5.981   1.886   4.385 -0.1682  0.5666  1.6137
11876TIP3   OH257118   0.295   5.444  10.845 -0.0704 -0.2001 -0.2421
11876TIP3    H157119   0.227   5.500  10.809  1.1915 -0.1817 -2.8480
11876TIP3    H257120   0.311   5.379  10.777  1.5629 -1.0188  0.8529
11877TIP3   OH257121   3.297   1.543  16.400  0.1676 -0.8391  0.1600
11877TIP3    H157122   3.299   1.597  16.320 -2.1684  0.4218  0.8541
11877TIP3    H257123   3.390   1.529  16.421  0.8745 -1.0039 -2.5844
11878TIP3   OH257124   3.398   0.687   5.731 -0.2081 -0.9226 -0.1555
11878TIP3    H157125   3.453   0.675   5.653 -2.1890 -0.5610 -1.6975
11878TIP3    H257126   3.324   0.740   5.701 -0.8142 -0.3631  2.1091
11879TIP3   OH257127   2.018   2.775   5.660 -0.4730 -0.3867 -0.3016
11879TIP3    H157128   1.978   2.747   5.578  0.2918 -0.3389 -0.6978
11879TIP3    H257129   2.046   2.693   5.702 -1.1255 -0.4332  0.0570
11880TIP3   OH257130   0.493   5.144  11.827 -0.2351 -0.5920  0.2346
11880TIP3    H157131   0.545   5.085  11.773 -1.4797 -0.2341 -1.4433
11880TIP3    H257132   0.403   5.110  11.821 -0.9119  1.1774 -0.4375
11881TIP3   OH257133   2.048   0.304  16.872  0.2421  0.0020 -0.4265
11881TIP3    H157134   2.032   0.398  16.865  1.9884  0.4112  0.4115
11881TIP3    H257135   1.992   0.264  16.806 -0.6965  1.6096 -0.6324
11882TIP3   OH257136   5.831   1.321  15.091  0.1201 -0.0360  0.5424
11882TIP3    H157137   5.736   1.329  15.098 -0.4248 -3.9136 -0.4590
11882TIP3    H257138   5.847   1.305  14.998  1.4313 -1.8898  1.0354
11883TIP3   OH257139   0.422   4.899  16.192  0.2174 -0.0675 -0.2762
11883TIP3    H157140   0.370   4.932  16.265  0.6081 -0.4766  0.1910
11883TIP3    H257141   0.357   4.861  16.132 -0.0280 -0.5597  0.2937
11884TIP3   OH257142   2.954   2.226  15.596 -0.4817  0.5752  0.1597
11884TIP3    H157143   2.999   2.308  15.579  2.4723 -0.8249  0.6792
11884TIP3    H257144   2.952   2.218  15.691  0.6961 -0.6444  0.1067
11885TIP3   OH257145   4.971   0.165  12.258  0.0904 -0.1277 -0.5080
11885TIP3    H157146   4.973   0.193  12.167  0.0296 -1.5301 -0.9533
11885TIP3    H257147   4.960   0.247  12.307 -1.0183  0.5436 -1.7995
11886TIP3   OH257148   3.238   1.435  13.323 -0.0492  0.0148 -0.1775
11886TIP3    H157149   3.239   1.499  13.394  1.5741 -0.1096 -0.0554
11886TIP3    H257150   3.279   1.357  13.359 -2.0030 -1.1484 -0.3293
11887TIP3   OH257151   6.598   5.589  12.556  0.3073 -0.4532  0.0665
11887TIP3    H157152   6.547   5.619  12.631 -0.0675 -1.4587  0.2194
11887TIP3    H257153   6.689   5.594  12.585  0.1018 -2.2156  1.1218
11888TIP3   OH257154   2.975   1.714   2.097  0.3300  0.3048 -0.2571
11888TIP3    H157155   2.894   1.716   2.148  0.4302  0.3984 -0.1006
11888TIP3    H257156   2.976   1.797   2.050 -0.1261 -0.0897 -0.9857
11889TIP3   OH257157   6.527   4.107   5.908  0.4286  0.4655  0.1093
11889TIP3    H157158   6.533   4.092   6.002 -1.5369  0.0154  0.2127
11889TIP3    H257159   6.514   4.202   5.899  0.8122  0.5341  0.2757
11890TIP3   OH257160   1.221   4.494  13.767 -0.5114  0.5972  0.4149
11890TIP3    H157161   1.302   4.511  13.720 -0.0761  0.7208  1.1967
11890TIP3    H257162   1.246   4.494  13.859 -1.4259  0.7942  0.6763
11891TIP3   OH257163   1.919   4.912  17.228  0.0163  0.1342 -0.3094
11891TIP3    H157164   1.852   4.976  17.248  0.0949  0.1601 -0.1347
11891TIP3    H257165   1.919   4.907  17.132  0.1657  0.5559 -0.3331
11892TIP3   OH257166   5.840   3.955  13.600  0.3193 -0.4784  0.0958
11892TIP3    H157167   5.931   3.981  13.592  0.4115 -0.6866  0.4451
11892TIP3    H257168   5.813   3.934  13.510  0.4668  0.0646 -0.0774
11893TIP3   OH257169   0.940   3.812  12.372 -0.4264 -0.4380  0.2097
11893TIP3    H157170   0.909   3.722  12.374  1.0876 -0.9782  1.6421
11893TIP3    H257171   1.024   3.808  12.326  0.6031 -0.1580  1.9445
11894TIP3   OH257172   0.455   6.062  14.177 -0.0551 -0.0625 -0.0513
11894TIP3    H157173   0.478   6.133  14.238  0.4381 -0.4656  0.2446
11894TIP3    H257174   0.519   6.070  14.106  0.7653 -0.9371  0.5714
11895TIP3   OH257175   5.809   3.093  16.944  1.0240 -0.0404  0.1387
11895TIP3    H157176   5.826   3.181  16.977  0.3972  0.3777 -0.6059
11895TIP3    H257177   5.732   3.103  16.889  0.2300 -1.2802  0.9703
11896TIP3   OH257178   5.558   3.975  16.815 -0.0263 -0.5657 -0.1509
11896TIP3    H157179   5.618   4.041  16.848 -0.4618  0.4341 -1.2844
11896TIP3    H257180   5.582   3.964  16.723 -2.0019  0.3905 -0.8370
11897TIP3   OH257181   4.466   1.667  14.465  0.2319 -0.1322 -0.1694
11897TIP3    H157182   4.464   1.724  14.388  0.7774 -1.7374 -1.4289
11897TIP3    H257183   4.499   1.583  14.432 -0.0487 -1.0363  1.7134
11898TIP3   OH257184   4.914   4.066   4.361 -0.1823  0.6889  0.3267
11898TIP3    H157185   4.971   4.096   4.432 -0.5889 -0.5314  1.2140
11898TIP3    H257186   4.869   3.989   4.398 -2.2872  1.5187 -0.3825
11899TIP3   OH257187   0.278   5.281   3.898 -0.2520 -0.6191 -0.8971
11899TIP3    H157188   0.212   5.213   3.885 -1.2686  0.5450 -2.0098
11899TIP3    H257189   0.360   5.242   3.866 -0.3058 -2.1273  0.6285
11900TIP3   OH257190   2.880   2.145   0.535 -0.4248 -0.7623 -0.5751
11900TIP3    H157191   2.891   2.130   0.629 -2.3061 -1.9908 -0.5022
11900TIP3    H257192   2.900   2.061   0.495 -1.1152 -0.6620 -1.1380
11901TIP3   OH257193   0.195   1.346   2.165  0.5209  0.7356 -0.2690
11901TIP3    H157194   0.122   1.396   2.127  1.0152  1.1335 -0.7106
11901TIP3    H257195   0.260   1.413   2.189  0.5338  0.4262  0.5901
11902TIP3   OH257196   6.138   6.615   2.852  0.2663  0.1190 -0.4220
11902TIP3    H157197   6.065   6.619   2.789  2.0255 -0.1333 -2.5733
11902TIP3    H257198   6.141   6.703   2.890  0.6901  1.0980 -2.5767
11903TIP3   OH257199   5.716   5.505   3.750 -0.1978  0.9307 -0.4063
11903TIP3    H157200   5.791   5.445   3.749 -0.2482  0.7137  1.8992
11903TIP3    H257201   5.743   5.577   3.807 -2.2350 -0.0041  1.9890
11904TIP3   OH257202   1.864   2.524   1.304  0.2099 -0.0352 -0.2841
11904TIP3    H157203   1.817   2.490   1.228  3.3536 -0.6189 -2.0981
11904TIP3    H257204   1.931   2.581   1.268  0.9108  0.8361  2.1750
11905TIP3   OH257205   1.676   2.503   2.358  0.2211 -0.0386 -0.5779
11905TIP3    H157206   1.620   2.497   2.280  1.6940  0.4443 -1.7345
11905TIP3    H257207   1.649   2.430   2.413 -2.2586  0.7907 -0.5564
11906TIP3   OH257208   0.674   2.841   1.255  0.4266  0.3187  0.0382
11906TIP3    H157209   0.705   2.930   1.269  2.8345 -0.1816 -1.4343
11906TIP3    H257210   0.712   2.791   1.327  0.8417  0.1594 -0.2838
11907TIP3   OH257211   3.628   4.898  17.031 -0.0922  0.1854 -0.2353
11907TIP3    H157212   3.563   4.946  17.082  0.2405 -0.1212  0.4825
11907TIP3    H257213   3.712   4.921  17.071  0.0656 -1.1074  0.2309
11908TIP3   OH257214   1.880   0.887  11.245  0.3832  0.0068 -0.6259
11908TIP3    H157215   1.886   0.805  11.195 -0.1469 -0.6040  0.2907
11908TIP3    H257216   1.863   0.954  11.178 -2.8721 -1.1222 -1.1320
11909TIP3   OH257217   6.189   4.879   5.404  0.2482  1.0543 -0.6630
11909TIP3    H157218   6.138   4.898   5.483 -0.6842  1.7311 -1.4131
11909TIP3    H257219   6.143   4.806   5.363 -0.2073  1.7569 -1.4150
11910TIP3   OH257220   0.614   3.936   5.469 -0.2220 -0.2786  0.0053
11910TIP3    H157221   0.524   3.903   5.469 -0.1555 -0.4774 -0.6997
11910TIP3    H257222   0.645   3.921   5.380  0.5210 -0.2311  0.2476
11911TIP3   OH257223   4.907   4.266  17.291  0.2899 -0.1055  0.1710
11911TIP3    H157224   4.997   4.235  17.292  0.4669  0.3587  1.9838
11911TIP3    H257225   4.879   4.262  17.383 -2.2811 -2.3499 -0.5694
11912TIP3   OH257226   3.909   5.434   4.812 -0.3232  0.0321 -0.1311
11912TIP3    H157227   3.903   5.347   4.851 -1.0413  0.0049 -0.2957
11912TIP3    H257228   3.912   5.493   4.887 -2.5818  0.0422  0.0074
11913TIP3   OH257229   1.417   5.947   4.895  0.2625 -0.1112  0.3048
11913TIP3    H157230   1.326   5.919   4.886  0.5363 -0.9529  0.0306
11913TIP3    H257231   1.456   5.928   4.810  0.7284  0.1180  0.4663
11914TIP3   OH257232   6.509   5.348   0.081 -0.0654 -0.0212  0.3667
11914TIP3    H157233   6.581   5.352   0.018 -1.4738  2.3398 -1.2422
11914TIP3    H257234   6.504   5.255   0.105  3.2268 -0.3283  0.2874
11915TIP3   OH257235   2.913   3.288   4.258  0.1478  0.2854  0.1771
11915TIP3    H157236   2.975   3.361   4.254 -1.7828  2.0228  0.1316
11915TIP3    H257237   2.943   3.228   4.191  1.1310  1.6119 -0.6288
11916TIP3   OH257238   5.633   1.445   3.775 -0.0735 -0.3358  0.2104
11916TIP3    H157239   5.657   1.365   3.728  0.2975 -1.1332  1.6907
11916TIP3    H257240   5.554   1.421   3.824 -0.7732  0.6448 -0.3859
11917TIP3   OH257241   3.553   3.543  12.011 -0.1245  0.5422  0.5648
11917TIP3    H157242   3.522   3.558  12.100 -0.4944  0.6140  0.4225
11917TIP3    H257243   3.642   3.581  12.011  0.7925 -1.4571  1.5420
11918TIP3   OH257244   2.696   2.179  15.531  0.4841  0.3242  0.4768
11918TIP3    H157245   2.788   2.205  15.524  0.6053 -0.2719 -0.2267
11918TIP3    H257246   2.682   2.162  15.624  0.9054  1.0580  0.6791
11919TIP3   OH257247   4.408   1.272   1.422  0.2654 -0.3223 -0.1087
11919TIP3    H157248   4.397   1.367   1.425  1.3087 -0.1610 -0.8191
11919TIP3    H257249   4.384   1.242   1.510 -1.9218  0.3658 -0.4226
11920TIP3   OH257250   2.898   3.051  11.405 -0.1932  0.4995  0.0175
11920TIP3    H157251   2.946   3.009  11.477 -2.2927  1.2379  1.9910
11920TIP3    H257252   2.818   3.084  11.446 -2.0745 -0.0121 -2.9180
11921TIP3   OH257253   2.652   0.585  13.654 -0.1136  0.0752  0.4738
11921TIP3    H157254   2.669   0.496  13.625  1.6073  0.1310  1.1531
11921TIP3    H257255   2.619   0.575  13.743  0.2892  0.1092  0.6304
11922TIP3   OH257256   2.526   5.128   1.386 -1.0356  0.5205 -0.1604
11922TIP3    H157257   2.562   5.113   1.474 -0.8437 -1.0600 -0.4771
11922TIP3    H257258   2.432   5.129   1.399 -0.9854  1.5308  0.2253
11923TIP3   OH257259   3.068   3.485   3.068 -0.0646 -0.6403 -0.5524
11923TIP3    H157260   3.037   3.549   3.004  1.2336  0.2671 -0.3200
11923TIP3    H257261   3.013   3.408   3.054 -2.2882  0.8058 -0.2336
11924TIP3   OH257262   5.685   1.615   3.361 -0.0278 -0.1099 -0.3871
11924TIP3    H157263   5.628   1.621   3.437  0.8762 -1.3626  0.4472
11924TIP3    H257264   5.627   1.594   3.288 -0.7768 -0.0289  0.1780
11925TIP3   OH257265   2.139   0.954   2.286 -0.5661  0.0799 -0.0674
11925TIP3    H157266   2.058   0.913   2.316 -0.6638 -1.1245 -1.8176
11925TIP3    H257267   2.140   1.040   2.328 -2.9003  0.2551 -0.2293
11926TIP3   OH257268   5.250   4.442   1.968  0.5463  0.0014  0.3150
11926TIP3    H157269   5.273   4.403   1.884  2.4490  2.4040 -0.3827
11926TIP3    H257270   5.163   4.480   1.954  0.6843  0.0507 -0.4335
11927TIP3   OH257271   1.287   0.957  16.681  0.4590 -0.0570  0.0258
11927TIP3    H157272   1.247   0.992  16.761  0.7633  2.7036 -0.9144
11927TIP3    H257273   1.224   0.979  16.612  0.5633 -1.7023 -0.6244
11928TIP3   OH257274   5.591   6.283  16.645  0.0177  0.5289 -0.3839
11928TIP3    H157275   5.606   6.274  16.740 -0.8847 -0.5643 -0.3308
11928TIP3    H257276   5.639   6.363  16.622  1.2694  0.1675  0.7627
11929TIP3   OH257277   1.190   3.364  14.150 -0.7067  0.1372  0.1731
11929TIP3    H157278   1.114   3.419  14.165 -0.2600  0.3658  1.7633
11929TIP3    H257279   1.225   3.347  14.237  0.2175 -1.1750 -0.4151
11930TIP3   OH257280   1.780   1.088  13.094  0.0649 -0.2804  0.1210
11930TIP3    H157281   1.861   1.136  13.078  2.2988 -3.4516  0.8911
11930TIP3    H257282   1.799   1.036  13.172 -2.5094 -1.6420 -0.0695
11931TIP3   OH257283   2.384   5.634  15.464  0.1802 -0.2074 -0.2238
11931TIP3    H157284   2.371   5.541  15.482 -1.2681  0.1087  0.5134
11931TIP3    H257285   2.474   5.652  15.491 -0.3542 -0.8367  2.1884
11932TIP3   OH257286   0.614   4.624  15.346 -0.1054  0.4875  0.2030
11932TIP3    H157287   0.646   4.599  15.432 -1.8035  0.2891  0.8148
11932TIP3    H257288   0.604   4.719  15.351 -1.6867  0.3230  0.8049
11933TIP3   OH257289   2.365   6.542   5.371  0.4036  0.2260 -0.0822
11933TIP3    H157290   2.402   6.576   5.290 -0.3221  1.0068 -0.1100
11933TIP3    H257291   2.388   6.609   5.437 -2.1236  1.5096 -0.3742
11934TIP3   OH257292   5.841   2.512  14.032  0.6878  0.2559  0.2295
11934TIP3    H157293   5.802   2.592  13.995  2.2393  2.4328  2.8837
11934TIP3    H257294   5.900   2.480  13.964  0.6938  1.9273 -0.5985
11935TIP3   OH257295   5.852   4.334   1.785  0.3516  0.1058  0.2319
11935TIP3    H157296   5.870   4.311   1.693  0.8913  0.0795  0.3403
11935TIP3    H257297   5.778   4.394   1.780  0.6652  0.4610 -0.2601
11936TIP3   OH257298   0.117   1.634   1.438 -0.3716  0.3773  0.1827
11936TIP3    H157299   0.053   1.582   1.391 -0.1139  1.2155 -1.1366
11936TIP3    H257300   0.184   1.655   1.374  0.3093  1.0306  1.0731
11937TIP3   OH257301   3.547   4.646  14.556 -0.4764  0.0989 -0.0707
11937TIP3    H157302   3.596   4.576  14.600 -1.5311 -0.8481 -0.3643
11937TIP3    H257303   3.582   4.646  14.466  0.1832  0.6017  0.1756
11938TIP3   OH257304   5.511   4.291   4.154  0.2842 -0.8857 -0.3447
11938TIP3    H157305   5.482   4.379   4.128 -3.1199 -1.8547 -0.2093
11938TIP3    H257306   5.578   4.268   4.089  0.6104  1.4195 -0.9095
11939TIP3   OH257307   3.438   5.059   3.805 -0.0621  0.1800 -0.3129
11939TIP3    H157308   3.393   5.142   3.790  1.1877  0.8634 -0.4388
11939TIP3    H257309   3.522   5.084   3.843  0.7486 -0.9485 -1.2781
11940TIP3   OH257310   5.453   5.711   5.292 -0.7291 -0.3342 -0.3841
11940TIP3    H157311   5.483   5.792   5.251  1.1736  0.0038  1.5040
11940TIP3    H257312   5.490   5.714   5.381  0.6564 -3.9343 -0.6898
11941TIP3   OH257313   6.235   5.343   4.213  0.1945 -0.2406 -0.0278
11941TIP3    H157314   6.161   5.313   4.265  0.5729 -0.9357  0.1286
11941TIP3    H257315   6.206   5.334   4.122 -0.4395  0.9030  0.0478
11942TIP3   OH257316   0.066   6.287   4.067  0.1169  0.4798 -0.4054
11942TIP3    H157317   0.110   6.371   4.084  1.2617 -0.1946  0.0573
11942TIP3    H257318   0.119   6.222   4.114 -0.8366 -0.4889 -0.6354
11943TIP3   OH257319   1.177   5.642   3.290 -0.0640 -0.2245  0.1592
11943TIP3    H157320   1.142   5.719   3.245  0.7631 -0.8618 -1.6962
11943TIP3    H257321   1.259   5.673   3.329  0.4465 -0.2376 -0.8863
11944TIP3   OH257322   1.749   3.979   2.691 -0.9475  0.2770  0.3949
11944TIP3    H157323   1.682   3.983   2.622 -0.8551  0.1748  0.2993
11944TIP3    H257324   1.829   4.011   2.649 -0.9556  0.4890  0.5359
11945TIP3   OH257325   2.763   3.056   2.270  0.2105  0.1167  0.0240
11945TIP3    H157326   2.704   2.980   2.267 -0.0019  0.2445  0.7975
11945TIP3    H257327   2.810   3.052   2.187 -0.8244 -0.0431 -0.5766
11946TIP3   OH257328   3.516   1.668   3.025 -0.3258 -0.1357 -0.2271
11946TIP3    H157329   3.425   1.644   3.044 -0.4745  0.1289 -0.5855
11946TIP3    H257330   3.554   1.589   2.987 -0.2389 -0.4292  0.4545
11947TIP3   OH257331   5.423   4.954   5.958 -0.3459 -0.1063  0.6768
11947TIP3    H157332   5.511   4.932   5.926 -0.5568 -1.1912  0.7982
11947TIP3    H257333   5.412   5.046   5.936  0.1126 -0.4145 -1.0164
11948TIP3   OH257334   5.147   0.907   3.744  0.1069 -0.1012  0.7530
11948TIP3    H157335   5.151   0.815   3.717 -0.0563  0.4333 -1.2820
11948TIP3    H257336   5.053   0.927   3.747  0.1619  0.4993 -0.7975
11949TIP3   OH257337   0.106   5.187  11.258 -0.0559  0.0127  0.0241
11949TIP3    H157338   0.134   5.245  11.187  0.7701 -1.0030 -0.4937
11949TIP3    H257339   0.127   5.236  11.338  0.5669  0.4603 -0.4030
11950TIP3   OH257340   0.933   2.289  15.383 -0.0796  0.3031  0.7665
11950TIP3    H157341   0.950   2.354  15.315  1.1788 -1.0623 -0.2569
11950TIP3    H257342   1.019   2.258  15.409 -0.5891  0.0985  2.3328
11951TIP3   OH257343   4.244   5.185   3.135  0.1330 -0.4643 -0.7838
11951TIP3    H157344   4.198   5.269   3.130 -0.3271 -0.6379  0.2655
11951TIP3    H257345   4.314   5.192   3.070 -1.0117  0.0235 -2.0022
11952TIP3   OH257346   3.662   1.802   5.897  0.3063  0.2453 -0.3158
11952TIP3    H157347   3.623   1.767   5.977  1.3360  1.6631  0.8704
11952TIP3    H257348   3.626   1.748   5.827 -2.5046  0.4470  0.8287
11953TIP3   OH257349   5.473   6.770   0.623  0.0127 -0.2243  0.6523
11953TIP3    H157350   5.515   6.810   0.548  1.3870 -0.4683  1.2685
11953TIP3    H257351   5.409   6.834   0.652  0.8099  0.6873  0.4344
11954TIP3   OH257352   5.759   1.558   4.306  0.2327 -0.1567 -0.1928
11954TIP3    H157353   5.692   1.508   4.352 -0.0344 -0.3480 -0.7819
11954TIP3    H257354   5.779   1.631   4.364  2.0205 -1.9606  1.5875
11955TIP3   OH257355   1.503   1.320  15.995 -0.0269  0.8366  0.6391
11955TIP3    H157356   1.576   1.381  16.000  0.3896  0.2561  2.3605
11955TIP3    H257357   1.542   1.237  15.968 -0.2882  0.8686  0.1536
11956TIP3   OH257358   5.446   6.312   1.110 -0.0670 -0.5529  0.1874
11956TIP3    H157359   5.455   6.331   1.017  1.2786  1.4435  0.6531
11956TIP3    H257360   5.488   6.227   1.121  3.3614  0.8907 -0.5111
11957TIP3   OH257361   2.889   0.842   4.485 -0.7883  0.1611 -0.2340
11957TIP3    H157362   2.889   0.750   4.512 -0.2260  0.6642  1.6152
11957TIP3    H257363   2.860   0.840   4.394 -1.4977 -1.7754 -0.0121
11958TIP3   OH257364   0.143   6.039   5.087 -0.1704  0.1093 -0.1761
11958TIP3    H157365   0.158   5.945   5.076 -0.2910  0.2938 -2.4181
11958TIP3    H257366   0.072   6.045   5.151 -0.7581 -1.3708 -0.6473
11959TIP3   OH257367   5.746   4.894  15.337 -0.6071 -0.9699  0.2561
11959TIP3    H157368   5.807   4.871  15.407 -1.7019 -1.4783  1.0719
11959TIP3    H257369   5.800   4.896  15.258  1.2531  2.2743  1.3821
11960TIP3   OH257370   3.841   5.488  12.692 -0.5446  0.4076 -0.5926
11960TIP3    H157371   3.798   5.569  12.666 -2.0608 -0.2119 -0.1141
11960TIP3    H257372   3.801   5.465  12.776  1.6540  0.4701  0.5275
11961TIP3   OH257373   4.482   6.592   0.801  0.2035  0.1062 -0.0782
11961TIP3    H157374   4.427   6.669   0.784 -1.0730 -0.4797  1.1769
11961TIP3    H257375   4.513   6.604   0.891  1.0001 -0.2642 -0.2972
11962TIP3   OH257376   1.884   2.233   1.301  0.9691 -0.7591  0.0631
11962TIP3    H157377   1.978   2.219   1.311  1.6328  2.8027  0.1936
11962TIP3    H257378   1.875   2.328   1.291 -2.8385 -0.6762  2.4096
11963TIP3   OH257379   3.187   4.360  15.349 -0.1407 -0.3370 -0.0705
11963TIP3    H157380   3.192   4.264  15.348  1.4854 -0.3169  1.3395
11963TIP3    H257381   3.168   4.384  15.259 -0.5965 -1.9795 -0.4566
11964TIP3   OH257382   5.443   4.135   2.612 -0.4210  0.0118 -0.3311
11964TIP3    H157383   5.473   4.053   2.650 -0.6221 -0.1795 -0.5845
11964TIP3    H257384   5.449   4.122   2.518 -0.0002  0.4589 -0.3677
11965TIP3   OH257385   4.454   0.621   1.790  0.3012  0.1010 -0.2149
11965TIP3    H157386   4.420   0.649   1.875 -0.7780  0.4274 -0.7368
11965TIP3    H257387   4.392   0.555   1.760  0.4016  0.3399 -0.9715
11966TIP3   OH257388   5.808   0.352   5.781  0.0343  0.3291  0.1205
11966TIP3    H157389   5.877   0.290   5.804  0.7863  0.0646 -2.5781
11966TIP3    H257390   5.779   0.388   5.865  3.7840  0.8401  1.3596
11967TIP3   OH257391   2.057   4.448  14.817  0.1059 -0.2464 -0.2604
11967TIP3    H157392   2.003   4.414  14.887  0.2290  0.4636  0.1902
11967TIP3    H257393   2.009   4.524  14.784  0.5016 -0.0128 -0.3067
11968TIP3   OH257394   0.699   3.691  16.682 -0.4663  0.1504  0.6045
11968TIP3    H157395   0.637   3.637  16.730 -0.6995 -0.0480  0.0794
11968TIP3    H257396   0.785   3.664  16.714 -0.4981 -1.3781 -0.4941
11969TIP3   OH257397   1.352   3.968  16.475  0.0390 -0.1469 -0.8627
11969TIP3    H157398   1.327   4.004  16.561  4.0037 -0.5173  0.6745
11969TIP3    H257399   1.344   4.042  16.415 -0.2034  0.9098  0.4287
11970TIP3   OH257400   3.233   6.639  15.997 -0.0089 -0.4939 -0.1691
11970TIP3    H157401   3.295   6.631  15.924 -1.4291 -0.2038 -1.4397
11970TIP3    H257402   3.147   6.643  15.956 -0.9776 -1.8147  1.5957
11971TIP3   OH257403   5.278   0.063   6.039 -0.0799  0.7299 -0.2288
11971TIP3    H157404   5.217   0.034   5.970 -0.0909  0.0234  0.0697
11971TIP3    H257405   5.238   0.032   6.120  0.3499  0.8392  0.0240
11972TIP3   OH257406   4.524   4.277   5.252  1.1375 -0.1895  0.1807
11972TIP3    H157407   4.490   4.190   5.274  0.9891  0.2381  1.7899
11972TIP3    H257408   4.530   4.277   5.157  1.0286 -1.9225  0.1362
11973TIP3   OH257409   1.026   4.784   1.672 -0.2124 -0.0535 -0.1753
11973TIP3    H157410   0.989   4.697   1.691 -0.4054  0.2030  0.6950
11973TIP3    H257411   0.959   4.828   1.620 -0.6339 -0.0159  0.3811
11974TIP3   OH257412   6.671   6.300  15.245  0.5010 -0.2792 -0.3717
11974TIP3    H157413   6.744   6.361  15.240  0.3274 -0.1884 -2.0713
11974TIP3    H257414   6.685   6.254  15.328  0.5778  2.0970  1.0355
11975TIP3   OH257415   5.526   0.949  11.443  0.2025 -0.7182 -0.5998
11975TIP3    H157416   5.434   0.932  11.421 -0.4307  0.8696  0.5977
11975TIP3    H257417   5.560   0.998  11.368 -0.1204 -0.7319 -0.7553
11976TIP3   OH257418   2.365   5.897   5.946 -0.3055  0.4040  0.0815
11976TIP3    H157419   2.411   5.930   6.023 -0.5789  0.8623  0.0488
11976TIP3    H257420   2.343   5.975   5.895  0.6187  0.0587 -0.8947
11977TIP3   OH257421   4.377   4.639   1.230  1.0162 -0.9800  1.0049
11977TIP3    H157422   4.423   4.723   1.226  1.4216 -1.1487  1.9350
11977TIP3    H257423   4.444   4.574   1.209  1.1329 -1.2004  2.0119
11978TIP3   OH257424   4.666   6.774   6.290 -0.2625 -0.1021  0.0489
11978TIP3    H157425   4.578   6.748   6.262  0.2475 -0.1938 -1.5368
11978TIP3    H257426   4.681   6.858   6.246  0.5283 -0.1849  0.1606
11979TIP3   OH257427   4.067   0.298   1.207 -0.7717  0.2080  0.4294
11979TIP3    H157428   4.083   0.209   1.177 -1.5771  0.6115 -1.3157
11979TIP3    H257429   3.992   0.292   1.265 -0.4231 -0.3191  0.8358
11980TIP3   OH257430   4.723   6.329   3.779  0.3288  0.6044 -0.3331
11980TIP3    H157431   4.718   6.241   3.817  0.1309  0.8687  0.2695
11980TIP3    H257432   4.814   6.338   3.750  0.3917  0.2577 -0.2458
11981TIP3   OH257433   0.517   2.379   0.061 -0.2627 -0.0535 -0.3290
11981TIP3    H157434   0.509   2.285   0.048  1.7844  0.0070 -2.9230
11981TIP3    H257435   0.590   2.389   0.123 -0.7638 -0.1700  0.2820
11982TIP3   OH257436   5.691   6.012  16.602  0.1531 -0.2397  0.0554
11982TIP3    H157437   5.663   6.103  16.596  0.3137 -0.2293 -0.6409
11982TIP3    H257438   5.656   5.971  16.523  0.1807 -0.7537  0.3099
11983TIP3   OH257439   3.766   5.764  14.718  0.4797  0.4674  0.6234
11983TIP3    H157440   3.836   5.773  14.783  1.6210 -1.0414 -0.3504
11983TIP3    H257441   3.686   5.779  14.768  1.4256  1.5358  1.9157
11984TIP3   OH257442   4.570   5.919   1.071  0.0804 -0.1247 -0.3507
11984TIP3    H157443   4.639   5.888   1.013 -0.3989  3.8729 -3.5783
11984TIP3    H257444   4.488   5.899   1.024 -0.4340  1.4273 -0.2016
11985TIP3   OH257445   3.797   1.517  14.845  0.5552 -0.4044  0.3935
11985TIP3    H157446   3.719   1.572  14.842  0.7435 -0.1551 -0.3916
11985TIP3    H257447   3.768   1.432  14.812  0.9834  0.2097 -1.7639
11986TIP3   OH257448   4.293   4.542  13.369  0.2675 -0.1224  0.0396
11986TIP3    H157449   4.219   4.533  13.430  0.6199  0.1859  0.5246
11986TIP3    H257450   4.350   4.467  13.390  0.4874  0.0960  0.2377
11987TIP3   OH257451   4.804   0.562  13.533  0.0116  0.2353  0.0937
11987TIP3    H157452   4.742   0.623  13.492  0.0218  0.4684  0.4195
11987TIP3    H257453   4.753   0.519  13.602  0.2123  0.4306  0.3658
11988TIP3   OH257454   4.983   2.470  15.234 -0.2180  0.5499  0.1406
11988TIP3    H157455   4.963   2.546  15.179 -0.7269 -0.8290 -1.6853
11988TIP3    H257456   4.971   2.395  15.176  0.1050 -0.9526  1.9272
11989TIP3   OH257457   5.649   3.453   3.138  0.1098  0.2148 -0.1645
11989TIP3    H157458   5.589   3.386   3.104 -0.3256  0.2933  0.4351
11989TIP3    H257459   5.620   3.534   3.097  1.3509 -0.1020 -1.7995
11990TIP3   OH257460   2.529   6.795  12.392 -0.1827 -0.7925  0.4788
11990TIP3    H157461   2.433   6.799  12.393 -0.1621  2.8890  1.8486
11990TIP3    H257462   2.550   6.751  12.309 -3.0856  0.3318 -1.0082
11991TIP3   OH257463   3.343   3.900  14.713  0.3635  0.3233  0.0762
11991TIP3    H157464   3.422   3.916  14.763  1.3768  1.8677 -1.8473
11991TIP3    H257465   3.352   3.957  14.636 -1.9565 -0.5096 -0.9007
11992TIP3   OH257466   3.186   4.782  15.448  0.0387 -0.3695  0.2244
11992TIP3    H157467   3.232   4.709  15.489  1.3350  0.6933  0.7341
11992TIP3    H257468   3.252   4.822  15.391 -0.9207 -0.1221 -0.7604
11993TIP3   OH257469   0.051   0.312  16.325 -0.2756  0.1476 -0.2077
11993TIP3    H157470  -0.015   0.325  16.258 -1.1665  2.3260  0.9764
11993TIP3    H257471   0.131   0.290  16.277 -1.8612 -3.0463 -1.6415
11994TIP3   OH257472   2.663   1.223  13.169  0.3539  0.0991  0.4223
11994TIP3    H157473   2.645   1.132  13.147  0.1715  0.0977  0.5710
11994TIP3    H257474   2.632   1.232  13.259  0.6535  0.2264  0.5161
11995TIP3   OH257475   3.268   2.510   3.971 -0.0901 -0.1373 -0.0364
11995TIP3    H157476   3.338   2.546   3.916  0.7389  1.0633  1.6906
11995TIP3    H257477   3.218   2.587   3.999 -1.3889 -0.8698 -0.2689
11996TIP3   OH257478   6.262   3.655  17.306  0.4930  0.6701 -0.9123
11996TIP3    H157479   6.208   3.577  17.296 -3.3756  2.8025  0.9599
11996TIP3    H257480   6.314   3.639  17.385  0.2538 -0.2737 -0.9441
11997TIP3   OH257481   2.732   1.244   5.001 -0.0517 -0.2478  0.8045
11997TIP3    H157482   2.792   1.317   4.987 -1.8053  1.2333  0.5834
11997TIP3    H257483   2.688   1.234   4.916 -0.0136 -1.4257  0.9069
11998TIP3   OH257484   0.777   3.378  12.867 -0.1797  0.1511 -0.6601
11998TIP3    H157485   0.861   3.349  12.904  0.0166  0.8967 -0.4995
11998TIP3    H257486   0.711   3.346  12.929 -0.0071 -0.3091 -0.7072
11999TIP3   OH257487   4.444   0.952   4.347  0.3504 -0.9153  0.6142
11999TIP3    H157488   4.371   0.894   4.324 -1.6105  1.0145  1.5491
11999TIP3    H257489   4.445   1.018   4.278 -0.4289  0.4356  1.8392
12000TIP3   OH257490   3.744   0.096  17.153  0.1983  0.4532 -0.1395
12000TIP3    H157491   3.776   0.186  17.158 -0.0410  0.7431 -2.5946
12000TIP3    H257492   3.651   0.101  17.178 -0.4294  1.3420 -2.4567
12001TIP3   OH257493   2.838   2.132  17.276  0.2050 -0.2357 -0.0059
12001TIP3    H157494   2.750   2.106  17.249 -0.0371 -0.6025  1.0578
12001TIP3    H257495   2.894   2.111  17.201 -0.0816 -3.2551  0.4969
12002TIP3   OH257496   0.202   1.828   2.920 -0.8981  0.0625 -0.2531
12002TIP3    H157497   0.294   1.841   2.894 -0.2536  0.4240  1.9788
12002TIP3    H257498   0.196   1.868   3.006 -3.0477 -0.4374 -0.1195
12003TIP3   OH257499   1.546   5.920  16.091  0.3809  0.1984  0.3556
12003TIP3    H157500   1.551   5.902  15.997 -0.4326 -0.5220  0.4385
12003TIP3    H257501   1.513   6.009  16.097  4.5774  2.0182 -0.0756
12004TIP3   OH257502   1.943   2.145   0.094  0.6669  0.1454  0.3278
12004TIP3    H157503   1.985   2.230   0.083  0.1534  0.6959  2.1574
12004TIP3    H257504   1.866   2.148   0.038  1.3531  0.3482 -0.6276
12005TIP3   OH257505   4.107   1.061  13.252 -0.3588 -0.2763  0.5311
12005TIP3    H157506   4.034   1.029  13.198 -0.3113 -0.0404  0.3208
12005TIP3    H257507   4.088   1.154  13.263 -2.1969 -0.8899  3.8003
12006TIP3   OH257508   4.947   0.883  10.970 -0.0743 -0.0604 -0.0474
12006TIP3    H157509   4.903   0.943  11.031 -1.3153 -1.3113  0.3441
12006TIP3    H257510   4.985   0.940  10.903  0.5426  1.2823  1.3864
12007TIP3   OH257511   3.157   3.608  14.270 -0.1558  0.0474 -0.5189
12007TIP3    H157512   3.102   3.627  14.346  0.0669  1.2841 -0.6338
12007TIP3    H257513   3.244   3.591  14.306 -0.3608 -0.7954 -0.4109
12008TIP3   OH257514   3.157   4.246  14.117 -0.4173  0.6376 -0.1233
12008TIP3    H157515   3.140   4.298  14.039  0.1088 -1.5696 -1.7918
12008TIP3    H257516   3.253   4.247  14.126 -0.3237 -0.8281 -0.7768
12009TIP3   OH257517   1.743   5.311   5.791  0.2242 -0.4445  0.3474
12009TIP3    H157518   1.834   5.282   5.779  0.1567 -1.0729  1.3049
12009TIP3    H257519   1.748   5.407   5.784  1.1327 -0.3928  1.4295
12010TIP3   OH257520   6.332   6.503  15.363  0.2086 -0.0952  1.0725
12010TIP3    H157521   6.342   6.596  15.385  0.7734  0.1786 -0.2565
12010TIP3    H257522   6.380   6.492  15.281 -1.5692 -1.0954  0.0902
12011TIP3   OH257523   1.595   4.678  16.545  0.4564  0.4364  0.2193
12011TIP3    H157524   1.559   4.590  16.561  0.2610  0.1402 -1.6105
12011TIP3    H257525   1.521   4.729  16.515  0.8320  0.8499 -0.0125
12012TIP3   OH257526   0.972   4.170   6.509  0.0908 -0.2391  0.0251
12012TIP3    H157527   1.053   4.170   6.560  1.0171 -2.4716 -1.2793
12012TIP3    H257528   0.918   4.101   6.549 -0.5433  0.2124 -0.0340
12013TIP3   OH257529   6.718   2.832   5.805  0.3816 -0.5143  0.2533
12013TIP3    H157530   6.678   2.882   5.876  1.2466 -1.3284  1.3366
12013TIP3    H257531   6.802   2.876   5.789 -0.7451  1.0870 -1.8990
12014TIP3   OH257532   1.691   3.136  11.985 -0.9161  0.3203  0.1762
12014TIP3    H157533   1.724   3.194  11.916  1.9309  1.1538  2.0663
12014TIP3    H257534   1.702   3.048  11.949 -0.1379  0.7595 -0.7207
12015TIP3   OH257535   4.175   1.874  16.481  0.3663 -0.0885  0.8809
12015TIP3    H157536   4.210   1.925  16.407 -2.0778  0.3506 -0.0568
12015TIP3    H257537   4.177   1.783  16.450 -1.2644  0.1556 -0.0711
12016TIP3   OH257538   3.454   2.367  17.210 -0.2884 -0.1122  0.1531
12016TIP3    H157539   3.461   2.300  17.141  0.3775 -0.4523  0.5455
12016TIP3    H257540   3.504   2.441  17.177 -0.9980  0.1900 -0.2687
12017TIP3   OH257541   5.563   0.661   1.510  0.2067  0.0124  0.2174
12017TIP3    H157542   5.523   0.677   1.425 -2.3720 -1.2450  1.1085
12017TIP3    H257543   5.588   0.748   1.541 -2.7971  1.0696 -0.0086
12018TIP3   OH257544   0.453   5.005  13.375  0.3335  0.3673 -0.1055
12018TIP3    H157545   0.414   4.939  13.317  0.0468  1.5134 -1.2502
12018TIP3    H257546   0.448   4.965  13.462 -1.9824 -0.1887 -0.4190
12019TIP3   OH257547   1.622   2.340  12.080 -0.2530  0.5165 -0.5869
12019TIP3    H157548   1.529   2.337  12.102 -0.0554  2.2973  0.7548
12019TIP3    H257549   1.650   2.426  12.109  2.0925 -0.4327  0.2079
12020TIP3   OH257550   0.370   3.257  14.636 -0.1010 -0.0674 -0.4774
12020TIP3    H157551   0.331   3.172  14.654 -2.1893  0.7227 -0.8586
12020TIP3    H257552   0.301   3.305  14.589  1.3954  1.4575 -1.2193
12021TIP3   OH257553   6.490   4.256   3.060 -0.1854 -0.3828 -0.4927
12021TIP3    H157554   6.403   4.293   3.077  0.1973  0.5119 -0.4508
12021TIP3    H257555   6.504   4.271   2.966 -0.0559 -0.4875 -0.4898
12022TIP3   OH257556   2.102   1.227   5.825 -0.0868 -0.0657 -0.1444
12022TIP3    H157557   2.043   1.152   5.837 -0.9067  0.6907  0.7738
12022TIP3    H257558   2.148   1.208   5.744 -1.0632 -1.0483 -0.5024
12023TIP3   OH257559   1.731   3.516   0.824  0.1201  0.6112 -0.0062
12023TIP3    H157560   1.649   3.537   0.869 -0.2400 -0.9840  0.1177
12023TIP3    H257561   1.708   3.517   0.731  0.2915  1.4722 -0.0507
12024TIP3   OH257562   3.291   3.247   2.773  0.0563  0.4760  0.0416
12024TIP3    H157563   3.314   3.157   2.798 -1.0255  0.5542  1.4278
12024TIP3    H257564   3.203   3.260   2.808 -0.8007  1.2959 -2.2190
12025TIP3   OH257565   0.632   5.132  12.461 -0.4991  0.6404 -0.2599
12025TIP3    H157566   0.635   5.227  12.452 -0.3162  0.6730  0.1334
12025TIP3    H257567   0.723   5.104  12.455 -0.6609  0.3404 -1.8510
12026TIP3   OH257568   3.387   6.231  10.839 -0.0361  0.0137  0.6806
12026TIP3    H157569   3.362   6.140  10.821  0.3442 -0.0738  0.5839
12026TIP3    H257570   3.432   6.227  10.923 -2.3647  0.5173  2.0105
12027TIP3   OH257571   5.541   2.424   3.750 -0.0650  0.2746 -0.3298
12027TIP3    H157572   5.545   2.401   3.657 -1.9357  1.0227 -0.6431
12027TIP3    H257573   5.555   2.518   3.752 -0.2722  0.2976  0.1172
12028TIP3   OH257574   5.866   1.340  16.016  0.1045  0.4795  0.2375
12028TIP3    H157575   5.819   1.331  15.933 -0.5063  1.3939  0.4768
12028TIP3    H257576   5.802   1.316  16.083  0.5338 -0.0480  0.4644
12029TIP3   OH257577   6.419   0.146  15.931 -0.1331 -0.4726  0.3009
12029TIP3    H157578   6.328   0.118  15.944 -0.5256  0.5694 -0.0721
12029TIP3    H257579   6.412   0.235  15.895  1.0340 -0.4123  0.1761
12030TIP3   OH257580   5.849   5.078   4.412 -0.5853 -0.0559  0.1963
12030TIP3    H157581   5.773   5.060   4.467 -2.0241 -0.5925 -1.8428
12030TIP3    H257582   5.862   4.998   4.362  1.7124 -0.1704  0.8571
12031TIP3   OH257583   5.073   6.700   3.020 -0.1264 -0.6041  0.0124
12031TIP3    H157584   5.115   6.670   3.100 -1.6439 -0.2843  0.9705
12031TIP3    H257585   4.983   6.719   3.046 -0.2705  0.9248 -1.4439
12032TIP3   OH257586   4.249   1.817  11.983  0.1783  0.1626  0.1278
12032TIP3    H157587   4.215   1.732  11.955  2.0375 -0.8034  0.6622
12032TIP3    H257588   4.266   1.865  11.902  1.0790 -0.7852 -0.2544
12033TIP3   OH257589   0.913   6.359   2.875  0.1084 -0.6243  0.3328
12033TIP3    H157590   0.905   6.432   2.814  2.8938  0.1325  0.7165
12033TIP3    H257591   0.885   6.394   2.959  1.0343 -0.0815  0.4323
12034TIP3   OH257592   3.343   4.095   1.146 -0.1654  0.1421 -0.1562
12034TIP3    H157593   3.338   4.009   1.188 -0.5310  0.6982  0.9676
12034TIP3    H257594   3.290   4.086   1.066 -1.1998 -0.3343  0.5669
12035TIP3   OH257595   2.921   0.460  10.957  0.6698 -0.2698  0.1665
12035TIP3    H157596   2.867   0.404  11.013 -0.1743  0.4713  0.1140
12035TIP3    H257597   2.976   0.398  10.908 -0.4776 -1.0972 -0.1381
12036TIP3   OH257598   4.401   4.413   6.630  0.0715 -0.3961  0.0370
12036TIP3    H157599   4.379   4.372   6.714  2.4004 -0.4665  0.6845
12036TIP3    H257600   4.421   4.504   6.652 -1.8894  0.3139 -0.8996
12037TIP3   OH257601   4.911   2.870  14.523 -0.7979  0.6749  0.2956
12037TIP3    H157602   4.881   2.957  14.498 -1.1496  1.2640  2.5151
12037TIP3    H257603   4.842   2.836  14.580  1.1320  0.7344  2.8627
12038TIP3   OH257604   1.016   4.059   6.179  0.1840 -0.2681  0.5268
12038TIP3    H157605   1.021   3.982   6.235  1.3622 -0.1521  0.5885
12038TIP3    H257606   1.050   4.031   6.095  2.6596  0.6988  1.1327
12039TIP3   OH257607   1.531   6.059  11.150  0.1524  0.1647  0.2328
12039TIP3    H157608   1.598   6.033  11.087  1.6774 -0.4949  2.0109
12039TIP3    H257609   1.490   5.977  11.176  0.2899  0.2960  0.8777
12040TIP3   OH257610   3.052   2.722   1.457  0.3525 -0.2333  0.1330
12040TIP3    H157611   2.963   2.710   1.423  0.3171  1.2844 -0.3897
12040TIP3    H257612   3.108   2.712   1.380  0.5046  0.4354  0.1573
12041TIP3   OH257613   3.963   2.694  11.370 -0.1519 -0.2879 -0.1884
12041TIP3    H157614   3.931   2.612  11.332 -2.4911  0.7373 -0.6318
12041TIP3    H257615   3.979   2.750  11.294 -0.4227  0.2776  0.1628
12042TIP3   OH257616   0.513   1.258   3.626  0.0016 -0.5571 -0.1319
12042TIP3    H157617   0.476   1.218   3.705  0.2215  0.9255  0.7698
12042TIP3    H257618   0.471   1.212   3.554  0.8188 -2.9225  0.8041
12043TIP3   OH257619   5.829   2.247   2.319  0.2293  1.0072  0.7008
12043TIP3    H157620   5.825   2.184   2.248  1.7086 -0.8654  2.1691
12043TIP3    H257621   5.737   2.269   2.337 -0.5889 -2.4461  1.5215
12044TIP3   OH257622   1.955   4.765   3.518 -0.4266  0.0614 -0.6097
12044TIP3    H157623   1.890   4.778   3.448  1.2243  2.3306 -1.8526
12044TIP3    H257624   2.040   4.772   3.474  0.6824  0.6233  1.4875
12045TIP3   OH257625   3.649   1.515  10.995 -0.0986 -0.4224 -0.2384
12045TIP3    H157626   3.700   1.550  11.068 -1.5451 -0.5533  0.8702
12045TIP3    H257627   3.654   1.583  10.928  1.2978 -0.3260 -0.0733
12046TIP3   OH257628   4.384   2.154  12.821  0.4378 -0.2664  0.6171
12046TIP3    H157629   4.471   2.122  12.847  0.6585  0.4983  0.8514
12046TIP3    H257630   4.375   2.127  12.730  1.5161  0.8396  0.1551
12047TIP3   OH257631   5.451   5.673  14.119 -0.4153 -0.4439  0.0369
12047TIP3    H157632   5.504   5.593  14.121 -1.1570 -0.9308  0.8382
12047TIP3    H257633   5.395   5.662  14.043 -0.2977 -0.5470 -0.0354
12048TIP3   OH257634   0.171   5.651   4.111  0.1764 -0.5037 -0.2384
12048TIP3    H157635   0.127   5.572   4.142 -1.0383  0.5154  0.7700
12048TIP3    H257636   0.109   5.722   4.131  1.2508  0.7048 -1.0559
12049TIP3   OH257637   0.247   4.037   2.851  0.2687  0.0026 -0.0608
12049TIP3    H157638   0.180   4.065   2.913  1.2477  0.4439  0.8118
12049TIP3    H257639   0.305   3.981   2.902  1.1117  0.4113 -0.5650
12050TIP3   OH257640   3.818   5.451   0.797  0.4859 -0.4757  0.0230
12050TIP3    H157641   3.846   5.369   0.754 -0.0894 -0.8886  0.4229
12050TIP3    H257642   3.786   5.423   0.882 -0.4823  0.0795 -0.1514
12051TIP3   OH257643   5.660   3.038  16.208 -0.1429 -0.2076  0.2081
12051TIP3    H157644   5.732   2.976  16.197 -0.3017 -0.3792  0.1323
12051TIP3    H257645   5.594   3.008  16.146  0.0471  0.4287 -0.3133
12052TIP3   OH257646   5.408   5.703   2.107 -0.5157 -0.2899 -0.0957
12052TIP3    H157647   5.479   5.745   2.155 -0.5720 -0.9001  0.5319
12052TIP3    H257648   5.402   5.616   2.145  1.2453 -1.8400 -2.9881
12053TIP3   OH257649   2.478   6.429  17.356  0.1374 -0.3568 -0.0542
12053TIP3    H157650   2.558   6.399  17.312 -0.6856  0.1216 -1.9713
12053TIP3    H257651   2.429   6.476  17.288 -0.8223  1.1854  1.6170
12054TIP3   OH257652   6.460   5.107  12.734 -0.1345  0.1362  0.0128
12054TIP3    H157653   6.533   5.150  12.779  0.8052 -2.6186  1.3559
12054TIP3    H257654   6.387   5.113  12.795  0.4580 -1.4481  0.9558
12055TIP3   OH257655   3.148   4.411   1.668 -0.0194  0.2818  0.2737
12055TIP3    H157656   3.138   4.505   1.655 -1.2052 -0.0308 -1.5960
12055TIP3    H257657   3.074   4.372   1.619  1.8273 -1.6886 -1.1667
12056TIP3   OH257658   6.503   6.419  11.101  0.2248  0.2308 -0.1748
12056TIP3    H157659   6.510   6.482  11.173 -1.9035 -0.4459  0.7003
12056TIP3    H257660   6.492   6.335  11.144 -1.3258 -0.1572 -1.2796
12057TIP3   OH257661   4.446   3.521  11.995 -0.0196 -0.9088 -0.9974
12057TIP3    H157662   4.480   3.596  12.043  0.7657 -0.8532 -1.6161
12057TIP3    H257663   4.499   3.518  11.915 -2.4315  0.0827 -2.7598
12058TIP3   OH257664   3.352   1.714  12.376  0.1335 -0.3062 -0.3732
12058TIP3    H157665   3.375   1.798  12.337  0.4862 -0.0043  0.4632
12058TIP3    H257666   3.261   1.724  12.404  0.7102  0.4596  1.3787
12059TIP3   OH257667   1.514   5.224   1.994 -0.1095 -0.3674  0.2116
12059TIP3    H157668   1.475   5.241   1.908 -0.8230 -1.7435  0.2514
12059TIP3    H257669   1.482   5.295   2.049 -1.0474 -0.4281 -0.2338
12060TIP3   OH257670   2.974   6.011   0.785  0.6419  0.1656  0.2283
12060TIP3    H157671   2.923   6.068   0.844 -1.2006 -0.9933 -0.1757
12060TIP3    H257672   2.926   6.013   0.703  0.0054 -2.6367  0.4510
12061TIP3   OH257673   3.110   4.855  14.209 -0.0543 -0.3685 -0.4904
12061TIP3    H157674   3.140   4.768  14.236 -1.3689 -0.5343  0.5227
12061TIP3    H257675   3.163   4.915  14.262 -0.4206 -0.6151  0.1769
12062TIP3   OH257676   3.056   3.193  13.802 -0.1337 -0.2903 -0.1332
12062TIP3    H157677   3.024   3.268  13.851  0.3709 -1.0361  1.4189
12062TIP3    H257678   3.151   3.193  13.818  0.0673 -0.4804 -1.2407
12063TIP3   OH257679   2.862   4.064   3.564  0.9030 -0.2719  0.0034
12063TIP3    H157680   2.923   4.129   3.600  0.6346 -0.7322  1.3224
12063TIP3    H257681   2.881   4.064   3.470  2.0474  0.5209  0.2084
12064TIP3   OH257682   6.256   1.140   2.248 -0.3636 -0.0509  0.1044
12064TIP3    H157683   6.211   1.105   2.325  0.2646 -0.6031  0.2346
12064TIP3    H257684   6.347   1.113   2.260 -0.3281 -0.4863 -1.0287
12065TIP3   OH257685   2.741   4.253  13.344 -0.4544 -0.1044  0.0188
12065TIP3    H157686   2.659   4.291  13.311  0.8526  2.2882 -0.7089
12065TIP3    H257687   2.787   4.327  13.384  0.7099 -1.7170  1.7801
12066TIP3   OH257688   5.631   5.002   4.548  0.1869 -0.1184  0.3393
12066TIP3    H157689   5.597   4.926   4.596  0.5337  1.9480  4.2538
12066TIP3    H257690   5.558   5.031   4.493 -0.7424 -1.8343  0.5923
12067TIP3   OH257691   1.077   2.346   3.260 -0.5513  0.2886 -0.3238
12067TIP3    H157692   1.101   2.356   3.352 -3.5319  0.1889  0.5574
12067TIP3    H257693   1.045   2.257   3.252 -0.1767  0.2364 -1.5306
12068TIP3   OH257694   1.646   4.091  12.320 -0.8166 -0.3050  0.2273
12068TIP3    H157695   1.650   4.064  12.412  0.6668  0.2004  0.3459
12068TIP3    H257696   1.563   4.137  12.312 -1.5768 -1.4970  0.9760
12069TIP3   OH257697   0.925   6.388  16.888  0.0316  0.2092  0.2028
12069TIP3    H157698   0.924   6.292  16.884 -0.4005  0.2298 -0.2270
12069TIP3    H257699   1.005   6.413  16.844 -0.2463  0.0734 -0.3871
12070TIP3   OH257700   5.086   3.915  13.422 -0.3691  0.2327 -0.6903
12070TIP3    H157701   5.123   3.925  13.335  2.6424  1.3611  0.5756
12070TIP3    H257702   5.160   3.924  13.481 -2.1919 -0.9776  2.0185
12071TIP3   OH257703   0.322   0.183  15.051 -0.0126  0.1098  0.8169
12071TIP3    H157704   0.239   0.226  15.029  0.0166 -0.1635  0.1556
12071TIP3    H257705   0.388   0.242  15.015  0.0418 -0.2219  0.3626
12072TIP3   OH257706   2.954   5.779   7.101 -0.6334  0.1983 -0.5176
12072TIP3    H157707   2.885   5.723   7.064 -1.6458  1.5404 -0.7396
12072TIP3    H257708   2.919   5.807   7.186  0.4265 -0.5116  0.1829
12073TIP3   OH257709   6.322   5.276   2.345  0.4824  0.6090  0.0768
12073TIP3    H157710   6.298   5.362   2.312  0.7221  0.3953 -0.6690
12073TIP3    H257711   6.401   5.252   2.296  1.1473  0.4968  1.1664
12074TIP3   OH257712   4.059   0.403  14.901 -0.4052  0.0015  0.3674
12074TIP3    H157713   4.076   0.485  14.947  3.5448 -0.4152 -0.0080
12074TIP3    H257714   4.061   0.336  14.969  0.4346 -0.1357  0.2180
12075TIP3   OH257715   4.208   3.413  16.263 -0.0061 -0.0577  0.3655
12075TIP3    H157716   4.288   3.389  16.217 -0.3920 -1.4611  0.3707
12075TIP3    H257717   4.215   3.370  16.349 -1.6315 -1.9765 -0.3709
12076TIP3   OH257718   5.853   1.060  11.461 -0.2624  0.3991 -0.3210
12076TIP3    H157719   5.841   0.991  11.396 -3.9640  0.3529  0.1539
12076TIP3    H257720   5.785   1.125  11.439  0.2159  1.7207  1.8230
12077TIP3   OH257721   4.097   4.583  16.116  0.0235  0.5345  0.4107
12077TIP3    H157722   4.065   4.498  16.145  0.3737  0.8450  1.7705
12077TIP3    H257723   4.190   4.583  16.138  0.6441  0.2804 -1.9863
12078TIP3   OH257724   3.950   5.169   4.931 -0.8461 -0.1731 -0.9453
12078TIP3    H157725   3.996   5.086   4.916 -1.0208 -0.0214 -2.4864
12078TIP3    H257726   4.016   5.226   4.970 -0.3094 -0.5950 -1.2153
12079TIP3   OH257727   1.953   4.888  13.807  0.1777 -0.3613  0.3956
12079TIP3    H157728   1.891   4.943  13.856 -0.7427 -2.2952  1.5451
12079TIP3    H257729   2.035   4.895  13.857 -0.4455 -1.4296  1.6221
12080TIP3   OH257730   0.762   5.418  13.868 -0.0831 -0.4517  0.5223
12080TIP3    H157731   0.845   5.384  13.902  0.6678 -1.5087 -2.0469
12080TIP3    H257732   0.788   5.469  13.791 -1.7238  0.4270  0.5219
12081TIP3   OH257733   6.585   4.432  13.257 -0.3524 -0.0946 -0.4895
12081TIP3    H157734   6.574   4.516  13.302  0.2983 -0.1910 -0.1380
12081TIP3    H257735   6.588   4.455  13.164  0.8012  0.3901 -0.3533
12082TIP3   OH257736   1.577   6.161   2.125 -0.2237 -0.1259 -0.5581
12082TIP3    H157737   1.554   6.204   2.207 -0.1351 -2.1767  0.6066
12082TIP3    H257738   1.672   6.148   2.129 -0.1357  0.2292 -1.2398
12083TIP3   OH257739   1.970   5.501   0.514 -0.6031 -0.0313 -0.5832
12083TIP3    H157740   1.901   5.487   0.449 -0.7095 -0.6723 -0.3377
12083TIP3    H257741   2.027   5.424   0.505 -1.4148 -0.8760  1.0838
12084TIP3   OH257742   5.495   1.490   6.128 -0.1238  0.5348 -0.6524
12084TIP3    H157743   5.450   1.415   6.167 -0.0716  1.3125  0.9709
12084TIP3    H257744   5.555   1.451   6.064  0.9542 -0.9784  1.1692
12085TIP3   OH257745   0.817   0.115   5.115 -0.3853  0.7428  0.7278
12085TIP3    H157746   0.739   0.149   5.159  0.5832  4.6952 -0.2309
12085TIP3    H257747   0.791   0.106   5.023 -0.0132  0.9642  0.6002
12086TIP3   OH257748   6.378   0.119  14.868 -0.1407 -0.6579 -0.1837
12086TIP3    H157749   6.402   0.195  14.920  0.3464 -1.1098  0.2646
12086TIP3    H257750   6.460   0.071  14.856 -0.2395 -0.5531 -1.3848
12087TIP3   OH257751   0.820   3.669  13.586 -0.4727 -0.3941  0.4739
12087TIP3    H157752   0.910   3.689  13.610 -0.3388 -1.8776  1.3236
12087TIP3    H257753   0.772   3.751  13.599  0.7281  0.3903  0.0705
12088TIP3   OH257754   0.881   4.896   3.921  0.1764 -0.5581 -0.0095
12088TIP3    H157755   0.837   4.979   3.939 -0.4213 -0.4029 -1.9718
12088TIP3    H257756   0.918   4.907   3.834 -1.1300 -2.8467 -0.9329
12089TIP3   OH257757   0.091   2.929   4.437  0.3840  0.0446  0.3032
12089TIP3    H157758   0.035   2.911   4.513 -0.2328 -1.3391 -0.4429
12089TIP3    H257759   0.035   2.981   4.379  0.1505 -0.6282 -0.0793
12090TIP3   OH257760   5.418   1.839   5.365 -0.0570  0.0570  0.0984
12090TIP3    H157761   5.415   1.746   5.345 -1.7942 -0.0307  0.6136
12090TIP3    H257762   5.507   1.866   5.342  0.0984 -1.4522 -1.2346
12091TIP3   OH257763   0.030   4.331  13.916  0.1525  0.0684 -0.2986
12091TIP3    H157764   0.063   4.252  13.874  1.1124  0.5776 -0.5195
12091TIP3    H257765  -0.046   4.356  13.864 -0.1294 -0.6682 -0.2592
12092TIP3   OH257766   0.719   5.940   0.608 -0.1028 -0.2766 -0.3298
12092TIP3    H157767   0.640   5.896   0.640 -0.4917  0.7423  0.1737
12092TIP3    H257768   0.782   5.931   0.680 -0.2348  0.1007 -0.1620
12093TIP3   OH257769   5.161   1.424  12.912  0.0600  0.1802 -0.1503
12093TIP3    H157770   5.212   1.364  12.857 -1.2110 -0.7019 -0.4153
12093TIP3    H257771   5.181   1.398  13.002 -1.5022 -1.6051 -0.2612
12094TIP3   OH257772   2.554   4.484  15.499  0.4091  0.7457 -0.5918
12094TIP3    H157773   2.558   4.455  15.408  1.0678  1.4458 -0.8023
12094TIP3    H257774   2.645   4.478  15.530 -0.1236 -1.6044  0.7279
12095TIP3   OH257775   2.810   0.819   2.251 -0.3194 -0.6765  0.6300
12095TIP3    H157776   2.882   0.880   2.269 -0.3087 -0.3944 -0.3089
12095TIP3    H257777   2.731   0.873   2.255 -0.6560 -1.2087  2.8898
12096TIP3   OH257778   5.025   5.684   3.347  0.1032  0.1027  0.0886
12096TIP3    H157779   5.031   5.702   3.441  0.7876 -0.3639  0.1377
12096TIP3    H257780   5.054   5.593   3.338  1.5982  0.6410 -0.7702
12097TIP3   OH257781   3.675   5.154  16.694 -0.2838  0.0062  0.1411
12097TIP3    H157782   3.620   5.167  16.617  1.2257  0.5012 -0.8976
12097TIP3    H257783   3.718   5.238  16.708 -1.3868  0.2779  2.2650
12098TIP3   OH257784   5.511   4.904  11.564 -0.5409  0.1958 -0.1480
12098TIP3    H157785   5.467   4.914  11.648 -2.5083  1.1194 -1.2099
12098TIP3    H257786   5.452   4.847  11.513 -0.9314  2.0087 -1.8581
12099TIP3   OH257787   1.312   4.499   3.265  0.0722  0.0374 -0.0710
12099TIP3    H157788   1.326   4.589   3.293  0.9714  0.1871 -0.9291
12099TIP3    H257789   1.391   4.453   3.293 -0.1375 -0.3599 -0.1257
12100TIP3   OH257790   1.274   4.110   6.358  0.0143 -0.5877  0.4929
12100TIP3    H157791   1.188   4.128   6.321  0.4782  0.1349 -0.2866
12100TIP3    H257792   1.259   4.099   6.452 -0.7981  0.4554  0.4951
12101TIP3   OH257793   1.886   4.293  11.802 -0.6186 -0.0298 -0.4112
12101TIP3    H157794   1.898   4.331  11.890  0.6377  0.8348 -0.9222
12101TIP3    H257795   1.972   4.260  11.778 -1.4926 -2.6559 -0.3087
12102TIP3   OH257796   6.745   5.034   4.208 -0.1928  0.0889 -0.1275
12102TIP3    H157797   6.738   5.129   4.196 -0.5240 -0.0545 -1.0919
12102TIP3    H257798   6.781   5.025   4.296 -0.7286  1.0974  0.2168
12103TIP3   OH257799   2.179   2.469  14.621  0.3388 -0.3975 -0.2157
12103TIP3    H157800   2.086   2.475  14.600  0.0745  0.2329  1.0174
12103TIP3    H257801   2.199   2.553  14.662  1.0259 -1.1667  1.0880
12104TIP3   OH257802   1.321   3.192   0.203  0.2603 -0.3108  0.0005
12104TIP3    H157803   1.355   3.107   0.173 -1.3322 -0.5997 -1.0780
12104TIP3    H257804   1.228   3.176   0.218 -0.4565  1.6958 -1.9718
12105TIP3   OH257805   3.134   1.980   5.244 -0.8498 -0.4804  0.7170
12105TIP3    H157806   3.190   2.057   5.249  1.0989 -1.7392 -0.3627
12105TIP3    H257807   3.064   1.997   5.306 -0.6319  2.2454  0.3390
12106TIP3   OH257808   2.257   6.513   1.675 -0.6415 -0.6680 -0.4380
12106TIP3    H157809   2.234   6.568   1.600  1.2022 -2.4260 -2.4571
12106TIP3    H257810   2.271   6.426   1.636  0.5089 -1.6311  1.9631
12107TIP3   OH257811   1.123   4.289  14.111 -0.3050 -0.4069 -0.8116
12107TIP3    H157812   1.072   4.245  14.179  1.1026 -1.0189 -0.1151
12107TIP3    H257813   1.118   4.231  14.035  0.5765 -1.2267 -0.2643
12108TIP3   OH257814   3.420   0.095  14.945  0.1294  0.2858 -0.0153
12108TIP3    H157815   3.512   0.073  14.961  0.0050  0.2683  0.7090
12108TIP3    H257816   3.414   0.103  14.850  1.1551  1.5126 -0.0051
12109TIP3   OH257817   2.776   1.786   3.852  0.0716  0.2176  0.0062
12109TIP3    H157818   2.816   1.821   3.772 -0.6578 -0.3497 -0.6222
12109TIP3    H257819   2.685   1.815   3.849  0.0990  0.3977  0.7601
12110TIP3   OH257820   4.418   6.648   3.138  0.0287 -0.1836  0.8395
12110TIP3    H157821   4.332   6.662   3.099 -0.4224 -0.6048  1.6574
12110TIP3    H257822   4.468   6.727   3.115 -1.1474  0.8911  1.8486
12111TIP3   OH257823   4.761   4.111  12.834  0.1708 -0.0722 -0.2739
12111TIP3    H157824   4.769   4.016  12.840 -0.2194 -0.1226 -0.4977
12111TIP3    H257825   4.845   4.145  12.864  1.2671 -0.5511 -2.5988
12112TIP3   OH257826   4.847   5.993  15.088 -0.1831 -0.0840 -0.0292
12112TIP3    H157827   4.793   6.067  15.060 -0.6321 -0.4524 -0.1416
12112TIP3    H257828   4.924   6.034  15.127  0.0026  0.4397 -0.9138
12113TIP3   OH257829   1.666   0.174  16.502 -0.0578  1.0081  1.0694
12113TIP3    H157830   1.613   0.254  16.507 -0.1990  1.0976 -1.1313
12113TIP3    H257831   1.692   0.168  16.410  1.2284 -0.6793  1.4958
12114TIP3   OH257832   5.046   5.481   2.465 -0.1020 -0.3054 -0.0871
12114TIP3    H157833   4.984   5.483   2.538 -1.7370  0.8676 -1.4188
12114TIP3    H257834   5.059   5.573   2.442  0.2891 -0.6543 -1.3436
12115TIP3   OH257835   1.400   5.658  16.872  0.5349 -0.4664 -0.5853
12115TIP3    H157836   1.493   5.670  16.854  0.6732 -1.3811 -0.5249
12115TIP3    H257837   1.397   5.615  16.958  0.0392 -0.0130 -0.3702
12116TIP3   OH257838   6.382   5.605  13.454 -0.0899  0.4841 -0.6539
12116TIP3    H157839   6.447   5.579  13.388 -0.6667  0.1756 -1.1070
12116TIP3    H257840   6.413   5.690  13.485  1.7749 -0.6453  0.7869
12117TIP3   OH257841   4.434   0.253  10.995 -0.1147  0.0338  0.1594
12117TIP3    H157842   4.409   0.343  10.975 -0.2586  0.0817  0.5353
12117TIP3    H257843   4.353   0.212  11.028  0.1796  0.0574  0.9468
12118TIP3   OH257844   2.721   2.277  13.547 -0.4471 -0.8121  0.4544
12118TIP3    H157845   2.626   2.269  13.544 -0.4345 -0.6202 -0.8833
12118TIP3    H257846   2.737   2.371  13.541 -0.1570 -0.8871  0.0328
12119TIP3   OH257847   6.703   0.636   2.385  0.0511  0.3055 -0.0350
12119TIP3    H157848   6.616   0.598   2.394  0.1375 -0.1029 -0.8125
12119TIP3    H257849   6.734   0.606   2.299  1.4381 -0.5264  0.7114
12120TIP3   OH257850   2.391   2.767   1.773  0.2220 -0.2685  0.2698
12120TIP3    H157851   2.371   2.694   1.831 -0.0823  1.4673  2.4501
12120TIP3    H257852   2.467   2.737   1.722 -1.3704 -2.9962 -0.7431
12121TIP3   OH257853   3.839   0.184   4.995 -0.0323  0.6019 -0.3814
12121TIP3    H157854   3.774   0.130   5.039  0.0563  0.8902  0.1025
12121TIP3    H257855   3.907   0.200   5.060  0.3436  0.6147 -0.7697
12122TIP3   OH257856   0.423   5.982   5.770  0.6161  0.6769  0.5542
12122TIP3    H157857   0.429   6.015   5.860  0.9357  3.3294 -0.3516
12122TIP3    H257858   0.504   6.012   5.729  0.0372  0.3221 -0.8727
12123TIP3   OH257859   3.397   4.830   4.170 -0.4075  0.2399 -0.3159
12123TIP3    H157860   3.417   4.923   4.156 -2.5717  0.7517 -0.4852
12123TIP3    H257861   3.304   4.830   4.194  0.3820 -1.5795  3.2992
12124TIP3   OH257862   4.297   3.892   4.332  0.3438 -0.3016 -0.7134
12124TIP3    H157863   4.359   3.818   4.333  2.2905  1.2309 -1.0001
12124TIP3    H257864   4.243   3.877   4.254  2.7738  0.1020 -2.6027
12125TIP3   OH257865   0.423   5.434   2.840  0.3906 -0.1105 -0.2167
12125TIP3    H157866   0.384   5.347   2.851  0.1721  0.0654  0.4942
12125TIP3    H257867   0.480   5.425   2.764 -0.2368 -0.6606 -0.6419
12126TIP3   OH257868   0.776   4.764  11.465  0.9611  0.4896 -0.2793
12126TIP3    H157869   0.751   4.710  11.390  2.0701  0.3269 -0.5472
12126TIP3    H257870   0.727   4.726  11.538 -0.0532  0.5808 -0.8786
12127TIP3   OH257871   4.680   6.050   5.831 -0.2578  1.0278 -0.0361
12127TIP3    H157872   4.724   5.970   5.861 -0.6893  0.8320  0.0829
12127TIP3    H257873   4.716   6.119   5.887  0.0685  0.9118 -0.0959
12128TIP3   OH257874   6.600   1.046  15.400  0.6685  0.0080 -0.7353
12128TIP3    H157875   6.588   1.126  15.349 -1.3376 -0.5363 -1.1985
12128TIP3    H257876   6.608   0.976  15.335  0.7741 -0.3712 -0.3237
12129TIP3   OH257877   2.615   3.314   2.281  0.3895  0.2279 -0.7259
12129TIP3    H157878   2.609   3.336   2.188  1.2245  0.4592 -0.7343
12129TIP3    H257879   2.662   3.231   2.282  1.7230  0.9615 -0.4476
12130TIP3   OH257880   4.190   3.036   6.454 -0.1951 -0.2017  0.0036
12130TIP3    H157881   4.212   3.025   6.547  0.9715  1.0896 -0.0910
12130TIP3    H257882   4.217   2.954   6.413 -0.5381 -0.7069  0.7658
12131TIP3   OH257883   3.010   0.817   1.979 -0.1931 -0.4274  0.4639
12131TIP3    H157884   2.933   0.797   1.926 -0.5813  0.0082  0.8448
12131TIP3    H257885   2.994   0.773   2.062 -0.5868  0.5869  0.9518
12132TIP3   OH257886   0.810   2.164   1.276 -0.5976  0.0252 -0.1206
12132TIP3    H157887   0.869   2.118   1.336  1.0764  1.7859 -0.3149
12132TIP3    H257888   0.765   2.228   1.331 -0.7966  0.0709 -0.3353
12133TIP3   OH257889   1.073   6.285   1.462  0.0580  0.3919  0.1024
12133TIP3    H157890   0.992   6.314   1.419  0.3989  2.6071  0.7924
12133TIP3    H257891   1.046   6.214   1.519 -1.6556  1.7677  1.1099
12134TIP3   OH257892   0.502   5.377   4.965 -0.2921  0.2387  0.2353
12134TIP3    H157893   0.583   5.331   4.986 -0.3500  0.0268 -0.0042
12134TIP3    H257894   0.530   5.459   4.925 -0.1793  0.6087  1.0510
12135TIP3   OH257895   5.135   3.184  11.406  0.6177  0.5768  0.0223
12135TIP3    H157896   5.217   3.210  11.449  1.2002 -1.7944  0.5133
12135TIP3    H257897   5.142   3.219  11.318  3.2481 -1.3257 -0.6637
12136TIP3   OH257898   1.858   3.111   0.706 -0.5290  0.0337 -0.4309
12136TIP3    H157899   1.895   3.026   0.732 -0.9799 -0.1489 -0.3848
12136TIP3    H257900   1.919   3.175   0.742 -0.6798 -0.2458  0.3281
12137TIP3   OH257901   0.737   0.516   2.030  0.1011 -0.0901 -0.2610
12137TIP3    H157902   0.694   0.498   1.946  0.8366  0.8022 -0.8577
12137TIP3    H257903   0.693   0.595   2.063 -0.2250 -0.4731  0.2279
12138TIP3   OH257904   6.183   5.175  13.143 -0.4640  0.1769 -0.0738
12138TIP3    H157905   6.234   5.163  13.062  2.0037 -0.5467  1.4744
12138TIP3    H257906   6.123   5.101  13.145  2.1895 -2.1483  0.5686
12139TIP3   OH257907   3.760   4.428  14.422 -0.3076 -0.1684  0.0291
12139TIP3    H157908   3.718   4.342  14.426 -0.7604  0.0200 -0.5218
12139TIP3    H257909   3.850   4.409  14.393  0.5511 -0.7295  2.7465
12140TIP3   OH257910   6.577   3.015  12.118 -0.1668 -0.4208 -0.0263
12140TIP3    H157911   6.616   3.075  12.055 -0.3765 -2.0210 -1.7750
12140TIP3    H257912   6.525   3.071  12.176  0.2994  1.1471 -1.0696
12141TIP3   OH257913   0.240   4.963  10.681  0.7739  0.4238  0.4199
12141TIP3    H157914   0.325   4.952  10.724  0.6826  0.3009  0.5667
12141TIP3    H257915   0.181   4.906  10.730  0.7495 -0.0034 -0.0899
12142TIP3   OH257916   4.059   3.081   1.452  0.1127 -0.4176  0.5233
12142TIP3    H157917   4.053   2.989   1.478 -0.1558 -0.7387 -0.6015
12142TIP3    H257918   4.018   3.083   1.366 -2.1754  1.1958  1.5506
12143TIP3   OH257919   3.815   2.444  11.478 -0.2437  0.1941 -0.2018
12143TIP3    H157920   3.820   2.391  11.398  0.5300 -0.8866  0.5411
12143TIP3    H257921   3.853   2.389  11.546  0.1240  1.5241  0.7068
12144TIP3   OH257922   1.869   4.633  14.756 -0.1795 -0.2319 -0.3321
12144TIP3    H157923   1.817   4.578  14.697 -0.1055  0.0502 -0.6650
12144TIP3    H257924   1.943   4.663  14.703  2.2730 -3.3414  1.0118
12145TIP3   OH257925   2.972   1.559  13.647  0.1673  0.0379  0.3043
12145TIP3    H157926   2.899   1.502  13.625  0.9036 -1.2529  1.0655
12145TIP3    H257927   2.963   1.634  13.588 -0.4535 -1.1591 -1.1802
12146TIP3   OH257928   3.552   4.015   0.612  0.1029 -0.9990  0.7693
12146TIP3    H157929   3.575   4.100   0.649  0.2593 -1.2437  1.2434
12146TIP3    H257930   3.573   3.953   0.681  0.8851 -1.5209  0.0915
12147TIP3   OH257931   0.590   3.430   5.842 -0.2932  0.0143  0.1421
12147TIP3    H157932   0.566   3.343   5.876  0.2727 -0.2577 -0.1338
12147TIP3    H257933   0.664   3.457   5.896 -1.3261  0.9360  1.1190
12148TIP3   OH257934   2.685   0.498  11.325 -0.2287 -0.1120 -0.0445
12148TIP3    H157935   2.661   0.416  11.283  2.3174 -0.7932 -0.3514
12148TIP3    H257936   2.732   0.547  11.257  2.1007 -0.3251  1.3059
12149TIP3   OH257937   2.265   4.936  15.253  0.0360  0.0427  0.6963
12149TIP3    H157938   2.201   4.955  15.185 -1.1700 -1.0620  1.4797
12149TIP3    H257939   2.350   4.949  15.210 -0.6925  1.3877 -0.4033
12150TIP3   OH257940   2.279   1.245  16.018 -0.4355  0.0240 -0.0836
12150TIP3    H157941   2.284   1.152  16.042  0.2426 -0.1926 -1.0207
12150TIP3    H257942   2.312   1.291  16.095 -1.6785 -0.4361  0.7712
12151TIP3   OH257943   6.698   6.802   0.510 -0.4247  0.2347  0.2452
12151TIP3    H157944   6.685   6.727   0.451  2.1454 -0.2274  0.1248
12151TIP3    H257945   6.664   6.877   0.462  1.1045 -0.2114 -1.6669
12152TIP3   OH257946   4.028   3.109  14.113  0.0064 -0.2863  0.3999
12152TIP3    H157947   3.945   3.146  14.144  0.2736  1.4381 -0.8058
12152TIP3    H257948   4.050   3.043  14.179 -1.2428  0.7088  1.9108
12153TIP3   OH257949   1.157   0.084   6.375  0.7646  0.4173  0.1339
12153TIP3    H157950   1.230   0.139   6.400 -0.0173  1.9780 -0.8551
12153TIP3    H257951   1.088   0.104   6.439  0.3209  0.9722 -0.5014
12154TIP3   OH257952   4.151   0.490  10.320  0.8755 -0.3234  0.4194
12154TIP3    H157953   4.168   0.546  10.395  0.9721  0.4467 -0.1559
12154TIP3    H257954   4.106   0.414  10.356  0.7915  0.0968  1.2303
12155TIP3   OH257955   1.801   6.352   5.166  0.5076  0.0639 -0.0604
12155TIP3    H157956   1.864   6.423   5.175 -1.7451  2.4963 -1.8077
12155TIP3    H257957   1.729   6.377   5.224 -0.6349 -0.3351 -1.2479
12156TIP3   OH257958   3.939   6.170  12.213  0.4968 -0.4330  0.6183
12156TIP3    H157959   3.950   6.084  12.252  2.2439 -1.0343 -1.0466
12156TIP3    H257960   3.987   6.230  12.271  0.5525 -0.8207  0.9733
12157TIP3   OH257961   5.080   2.607   2.670  0.3596  0.5097  0.1180
12157TIP3    H157962   5.067   2.512   2.674 -0.7768  0.6462 -0.0475
12157TIP3    H257963   5.001   2.640   2.627  1.2850  1.4213 -0.9340
12158TIP3   OH257964   2.854   1.139   1.106  0.4256  0.3715  0.1424
12158TIP3    H157965   2.927   1.127   1.046 -0.8797  1.0953 -1.6762
12158TIP3    H257966   2.834   1.233   1.102 -2.4132 -0.1834 -1.7469
12159TIP3   OH257967   6.423   2.767   2.283  0.4554  0.3261 -0.6630
12159TIP3    H157968   6.429   2.851   2.238 -1.9674  0.1032 -1.5926
12159TIP3    H257969   6.358   2.781   2.352  0.8875 -0.4930 -0.0694
12160TIP3   OH257970   4.475   5.819   2.978 -0.0649 -0.0627  0.2157
12160TIP3    H157971   4.392   5.781   2.951  1.2598 -2.0632 -1.3348
12160TIP3    H257972   4.500   5.876   2.905 -0.0042  0.4426  0.6232
12161TIP3   OH257973   4.422   5.462  11.473  0.1754 -0.0523 -0.5867
12161TIP3    H157974   4.489   5.524  11.502 -0.8837  0.6349  0.5041
12161TIP3    H257975   4.411   5.402  11.547 -1.8495  1.1041  0.1220
12162TIP3   OH257976   4.027   6.795  14.064  0.4141  0.0058  0.0730
12162TIP3    H157977   3.942   6.839  14.061 -0.3481 -1.3925  0.3422
12162TIP3    H257978   4.068   6.826  14.145 -0.1747  0.0827  0.3415
12163TIP3   OH257979   6.191   2.876  10.847  0.2502  0.6772 -0.2695
12163TIP3    H157980   6.265   2.875  10.786  0.3469 -0.0594 -0.1542
12163TIP3    H257981   6.115   2.892  10.792  0.4165  0.7000 -0.4939
12164TIP3   OH257982   5.289   0.302  14.376  0.0625  0.3907 -0.1284
12164TIP3    H157983   5.274   0.384  14.330  1.5624  0.3895 -0.6729
12164TIP3    H257984   5.384   0.288  14.370 -0.3232 -2.2957 -1.6755
12165TIP3   OH257985   1.235   2.426   2.228 -0.2461 -0.0991 -0.2591
12165TIP3    H157986   1.156   2.372   2.237 -0.6566  0.7025  1.4817
12165TIP3    H257987   1.247   2.465   2.315  2.8833 -1.2706 -0.0074
12166TIP3   OH257988   1.572   5.088   4.154  0.0098  0.1492 -0.2650
12166TIP3    H157989   1.485   5.093   4.194  0.5261 -0.8664  1.0544
12166TIP3    H257990   1.632   5.118   4.222  0.7175  0.7806 -1.1426
12167TIP3   OH257991   5.290   3.605   0.544 -0.1524  0.3759 -0.1110
12167TIP3    H157992   5.260   3.594   0.453 -0.3549 -1.8716  0.1678
12167TIP3    H257993   5.263   3.694   0.567 -1.8620  0.3083 -1.6130
12168TIP3   OH257994   2.784   4.737   4.057 -0.2890 -0.0170  0.4247
12168TIP3    H157995   2.745   4.811   4.011 -1.8758 -0.6666  0.6759
12168TIP3    H257996   2.710   4.687   4.091  0.7433 -1.6676  0.3765
12169TIP3   OH257997   6.262   3.153   3.834 -0.5709  0.2475  0.3861
12169TIP3    H157998   6.322   3.164   3.760  2.4023  0.1167  2.6113
12169TIP3    H257999   6.221   3.068   3.820  0.6592 -0.1943 -0.6189
12170TIP3   OH258000   2.890   3.907  12.567 -0.3851 -0.1920 -0.2352
12170TIP3    H158001   2.941   3.864  12.636 -0.7192 -0.7459 -0.3300
12170TIP3    H258002   2.806   3.861  12.567 -0.3703 -0.2303 -1.0446
12171TIP3   OH258003   1.361   2.737  15.810 -0.6244  0.2296  0.1803
12171TIP3    H158004   1.359   2.644  15.788 -1.0306  0.1798  0.4177
12171TIP3    H258005   1.400   2.740  15.897 -1.3675  0.2068  0.5214
12172TIP3   OH258006   0.964   4.305   1.555 -0.0642  0.4816  0.2974
12172TIP3    H158007   1.031   4.246   1.521  0.7178  2.1960 -1.2820
12172TIP3    H258008   0.979   4.388   1.509 -1.6472  1.6774  1.8097
12173TIP3   OH258009   1.167   5.336  12.937 -0.4566 -0.1953 -0.2332
12173TIP3    H158010   1.105   5.408  12.931  1.0792  1.1726 -0.2217
12173TIP3    H258011   1.225   5.359  13.009  2.1979  0.3723 -2.3711
12174TIP3   OH258012   1.158   0.894   4.693  0.5830  0.4782  0.2549
12174TIP3    H158013   1.109   0.823   4.732  2.2399  0.4263  2.4510
12174TIP3    H258014   1.133   0.972   4.743  1.9926  0.6047  0.8185
12175TIP3   OH258015   1.653   6.728  16.182  0.0305 -0.2784 -0.2872
12175TIP3    H158016   1.606   6.669  16.240  0.7250 -0.6440 -0.0899
12175TIP3    H258017   1.739   6.739  16.223  0.9962 -1.5410 -1.8499
12176TIP3   OH258018   0.167   4.610  13.267  0.3816 -0.4402 -0.0593
12176TIP3    H158019   0.219   4.595  13.346  0.0976 -3.2771 -0.2976
12176TIP3    H258020   0.077   4.587  13.292  0.2355 -1.0703 -1.0921
12177TIP3   OH258021   0.588   4.212   5.250  0.5865 -0.2236  0.3066
12177TIP3    H158022   0.610   4.137   5.194 -1.2997  0.1445 -1.0388
12177TIP3    H258023   0.656   4.277   5.232  0.4351 -0.4031 -1.0111
12178TIP3   OH258024   5.467   2.588  12.105  0.2541  0.5587 -0.5811
12178TIP3    H158025   5.558   2.561  12.091 -0.2849 -0.7464 -1.8289
12178TIP3    H258026   5.454   2.581  12.199  1.2251 -0.0297 -0.4753
12179TIP3   OH258027   5.019   4.170  15.873 -0.4368 -0.7617 -0.3104
12179TIP3    H158028   5.059   4.133  15.794  1.1898 -1.0249  0.5713
12179TIP3    H258029   5.014   4.264  15.856  0.5843 -0.7174 -0.4852
12180TIP3   OH258030   5.674   3.005   0.122 -0.9037  0.2666  0.2701
12180TIP3    H158031   5.713   2.918   0.129  0.7406  0.9988  0.4886
12180TIP3    H258032   5.747   3.063   0.104 -1.7829  1.8123  1.4901
12181TIP3   OH258033   4.520   4.813  17.216 -0.4579 -0.2264  0.1879
12181TIP3    H158034   4.523   4.867  17.295 -1.5936  0.4977 -0.2379
12181TIP3    H258035   4.481   4.731  17.245 -0.1523 -0.2504  0.5357
12182TIP3   OH258036   1.900   2.158   6.012  0.0923  0.4655 -0.2409
12182TIP3    H158037   1.993   2.180   6.000  0.3948 -0.0802  0.9147
12182TIP3    H258038   1.901   2.085   6.074 -1.1194  0.4624 -0.2059
12183TIP3   OH258039   3.566   0.892  13.221  0.2987  0.0969 -0.4402
12183TIP3    H158040   3.526   0.859  13.140 -0.8309  0.9132 -0.2353
12183TIP3    H258041   3.491   0.909  13.279  1.0253  0.6375  0.3532
12184TIP3   OH258042   5.272   4.065  13.221  0.2260 -0.2153  0.8467
12184TIP3    H158043   5.310   4.039  13.137  1.0061  2.3177  0.3379
12184TIP3    H258044   5.342   4.049  13.285  1.4212  2.2120  0.2558
12185TIP3   OH258045   4.087   5.797   1.717 -0.1706  0.5017  0.9249
12185TIP3    H158046   4.135   5.825   1.795 -0.8081 -0.8468  1.8524
12185TIP3    H258047   4.002   5.768   1.751 -1.2300  1.7696 -0.5406
12186TIP3   OH258048   2.232   6.280   0.057  0.1614  0.5532 -0.0952
12186TIP3    H158049   2.314   6.328   0.067  0.4152  0.3423 -1.0818
12186TIP3    H258050   2.213   6.283  -0.037 -0.3128 -0.4637 -0.0438
12187TIP3   OH258051   5.533   0.576   6.149  0.0257 -0.5960  0.0310
12187TIP3    H158052   5.464   0.528   6.195  0.3125 -1.4393 -0.3948
12187TIP3    H258053   5.549   0.654   6.203  0.4592 -1.6338  1.4533
12188TIP3   OH258054   1.323   2.475   3.723 -0.3138 -0.6069 -0.3764
12188TIP3    H158055   1.289   2.559   3.752 -1.8158 -1.5636  0.8027
12188TIP3    H258056   1.391   2.497   3.659 -0.5047  1.4787  0.0733
12189TIP3   OH258057   5.342   4.718   1.632 -0.0880  0.2393 -0.2550
12189TIP3    H158058   5.331   4.634   1.588  0.3336  0.0164  0.0519
12189TIP3    H258059   5.436   4.735   1.627 -0.0367  0.2265  0.5107
12190TIP3   OH258060   1.642   2.449  14.827  0.5704  0.5054  0.5623
12190TIP3    H158061   1.588   2.406  14.894  1.4489  1.4481  1.9282
12190TIP3    H258062   1.667   2.532  14.867  2.1443  0.5627 -0.4718
12191TIP3   OH258063   1.815   2.828   3.660 -0.4039 -0.3245 -0.7904
12191TIP3    H158064   1.881   2.891   3.630  0.1192 -0.5702 -0.1790
12191TIP3    H258065   1.731   2.871   3.642 -0.1223  2.2835  3.0459
12192TIP3   OH258066   5.322   4.470   1.543  0.2067 -0.4913 -0.5437
12192TIP3    H158067   5.233   4.457   1.510  0.6944 -0.4659 -1.9447
12192TIP3    H258068   5.331   4.406   1.614 -0.5895 -1.1996 -1.0561
12193TIP3   OH258069   0.199   6.547   6.209 -0.6564 -0.2464  0.4124
12193TIP3    H158070   0.236   6.489   6.275  3.4693  0.3472 -1.0676
12193TIP3    H258071   0.176   6.627   6.257  4.4383  1.1215  1.2124
12194TIP3   OH258072   0.013   3.478   2.629 -0.4358  0.3042 -0.0640
12194TIP3    H158073   0.091   3.431   2.600 -1.3638 -0.1677 -1.9459
12194TIP3    H258074  -0.056   3.411   2.628 -1.1075  0.9826  0.4123
12195TIP3   OH258075   5.294   5.447  11.624  0.2694  0.1174  0.2234
12195TIP3    H158076   5.244   5.524  11.594  1.4533  0.6568 -0.4445
12195TIP3    H258077   5.276   5.442  11.718 -0.9424  0.3621  0.0216
12196TIP3   OH258078   5.878   5.745  11.326  0.0419 -0.2954 -0.5586
12196TIP3    H158079   5.940   5.724  11.395  1.4595  0.2746 -1.6041
12196TIP3    H258080   5.851   5.835  11.345 -0.4912 -0.5464 -0.0984
12197TIP3   OH258081   0.868   1.608  13.466 -0.4972  0.3508 -0.6214
12197TIP3    H158082   0.797   1.658  13.506 -0.5825 -1.2234  1.3314
12197TIP3    H258083   0.831   1.521  13.450  1.0060 -0.5697  0.6508
12198TIP3   OH258084   4.000   3.572  17.287  0.1482 -0.0143 -0.0652
12198TIP3    H158085   4.018   3.478  17.276  0.6346  0.0482  0.1640
12198TIP3    H258086   4.061   3.615  17.227  1.4231  0.2415  1.3408
12199TIP3   OH258087   2.670   3.317   5.810  0.0870 -0.2542 -1.0299
12199TIP3    H158088   2.699   3.240   5.761  0.8928 -2.8985  3.1188
12199TIP3    H258089   2.724   3.388   5.777  0.4233 -1.7143 -3.9529
12200TIP3   OH258090   5.618   5.521   1.009  0.5771 -0.4403  0.1678
12200TIP3    H158091   5.663   5.449   0.966  1.1376 -0.7468  1.2261
12200TIP3    H258092   5.525   5.501   0.999  0.6904 -0.5087 -0.8567
12201TIP3   OH258093   6.755   5.848  13.168  0.3554 -0.7043 -0.1314
12201TIP3    H158094   6.765   5.942  13.152  1.8800 -0.9520 -0.7988
12201TIP3    H258095   6.752   5.840  13.263  0.3818  0.0055 -0.0667
12202TIP3   OH258096   3.925   5.079  12.707 -0.1405  0.0878  0.3767
12202TIP3    H158097   3.858   5.113  12.648 -0.9696 -0.5551  0.9242
12202TIP3    H258098   3.977   5.020  12.654  0.0116  0.6096 -0.0602
12203TIP3   OH258099   2.747   1.458  16.231  0.0714  0.2003 -0.5358
12203TIP3    H158100   2.745   1.399  16.306 -0.4214  1.5365  0.5407
12203TIP3    H258101   2.797   1.534  16.260  0.5512  0.4132 -1.8281
12204TIP3   OH258102   4.585   3.400   0.880 -0.0926  0.1565  0.3983
12204TIP3    H158103   4.513   3.417   0.821 -0.2367 -0.4123  0.4063
12204TIP3    H258104   4.545   3.358   0.956  0.2974 -0.5797  0.2093
12205TIP3   OH258105   1.334   1.492  16.230  0.3517 -0.1497 -0.3290
12205TIP3    H158106   1.418   1.447  16.240 -0.1234 -0.6464  1.7834
12205TIP3    H258107   1.350   1.556  16.161  2.6338  0.1240  0.3601
12206TIP3   OH258108   6.081   4.312   5.005 -0.3167  0.6658 -0.0819
12206TIP3    H158109   6.176   4.317   5.011 -0.1066 -2.4736  1.0891
12206TIP3    H258110   6.050   4.396   5.040  1.9923  1.0563  1.2157
12207TIP3   OH258111   3.007   5.869  14.495  1.0423  0.7754 -0.9520
12207TIP3    H158112   2.982   5.786  14.535  0.6261  0.2436 -2.2537
12207TIP3    H258113   3.053   5.916  14.564  2.5813 -1.1379 -0.5960
12208TIP3   OH258114   6.044   0.646   6.545  0.2570  0.1814 -0.2209
12208TIP3    H158115   6.059   0.559   6.510 -0.8791  0.3548 -1.1829
12208TIP3    H258116   6.106   0.702   6.498  1.9118 -0.2600  1.3178
12209TIP3   OH258117   3.755   5.075  12.950  0.7735 -0.4992  0.1934
12209TIP3    H158118   3.812   5.116  12.885 -0.1568 -0.4942 -0.6386
12209TIP3    H258119   3.671   5.065  12.906 -0.1646  0.3599  1.7034
12210TIP3   OH258120   4.835   5.887   3.219 -0.3111 -0.1354  0.0658
12210TIP3    H158121   4.788   5.812   3.184 -0.6839 -0.6312  1.5642
12210TIP3    H258122   4.767   5.944   3.254 -0.0794  1.1962 -1.5079
12211TIP3   OH258123   6.619   5.353   5.734  0.4381 -0.3842  0.9062
12211TIP3    H158124   6.584   5.361   5.645  0.4540 -0.8942  0.8526
12211TIP3    H258125   6.588   5.268   5.764 -0.3118  0.1568  1.7211
12212TIP3   OH258126   1.054   5.896   0.713  0.3438 -0.1063  0.4650
12212TIP3    H158127   1.115   5.927   0.780  1.8346  1.3378 -1.4647
12212TIP3    H258128   1.107   5.840   0.656 -0.6357 -0.4562 -0.1360
12213TIP3   OH258129   6.132   5.955  15.775  0.0905  0.5104  0.4228
12213TIP3    H158130   6.096   5.866  15.769 -0.2044  0.6804 -0.4394
12213TIP3    H258131   6.221   5.947  15.741  0.0910  0.5365  0.4184
12214TIP3   OH258132   5.928   6.092   5.068  0.1973  0.0411  0.3105
12214TIP3    H158133   5.873   6.036   5.014  0.1004 -2.1641  2.5347
12214TIP3    H258134   6.010   6.100   5.019  0.0074 -1.6158 -0.3375
12215TIP3   OH258135   5.865   5.296   5.245 -0.8277 -0.1082  0.0175
12215TIP3    H158136   5.779   5.331   5.224 -0.5112  0.7670  0.1411
12215TIP3    H258137   5.849   5.203   5.263 -1.3907 -0.4786 -2.1552
12216TIP3   OH258138   2.924   4.668  11.668 -0.1260 -0.3976 -0.3510
12216TIP3    H158139   2.937   4.709  11.754  0.3095 -0.1013 -0.5579
12216TIP3    H258140   2.882   4.585  11.688 -1.8426  0.5108  0.0222
12217TIP3   OH258141   1.643   3.329   1.585  0.5960  0.1579  0.2146
12217TIP3    H158142   1.733   3.302   1.600  0.6269  0.6064  0.8641
12217TIP3    H258143   1.591   3.252   1.606  0.8570 -0.3088 -0.7932
12218TIP3   OH258144   4.430   5.416   0.266  1.0795  0.0107 -0.0893
12218TIP3    H158145   4.348   5.366   0.271  0.3113  1.3030  2.9522
12218TIP3    H258146   4.468   5.393   0.182 -1.9760 -1.3359 -1.2386
12219TIP3   OH258147   0.967   3.320  14.526  0.3067 -0.1703  0.2536
12219TIP3    H158148   0.936   3.337  14.615 -0.7802 -2.0523  0.3082
12219TIP3    H258149   0.963   3.405  14.482 -0.6064  0.5139  1.5827
12220TIP3   OH258150   0.275   5.189  16.195 -0.9649 -0.5506 -0.1533
12220TIP3    H158151   0.299   5.224  16.109 -0.1269  0.4811  0.4770
12220TIP3    H258152   0.226   5.109  16.175  0.4178 -1.1069 -1.5647
12221TIP3   OH258153   2.174   2.190  15.128 -0.0807  0.1025  0.6459
12221TIP3    H158154   2.168   2.258  15.060  0.3852 -0.6319 -0.1524
12221TIP3    H258155   2.211   2.114  15.082 -0.5136 -0.6630  1.5425
12222TIP3   OH258156   1.730   1.021  16.835 -0.1991 -0.0194 -0.4899
12222TIP3    H158157   1.659   1.069  16.878  2.1391  2.0483  1.4079
12222TIP3    H258158   1.725   1.047  16.743 -1.3382  0.8003 -0.2162
12223TIP3   OH258159   4.387   6.218   0.657  0.2882 -0.5789 -0.3212
12223TIP3    H158160   4.368   6.127   0.678 -2.2203 -0.5660 -2.0684
12223TIP3    H258161   4.402   6.218   0.562 -2.5366  1.0843 -0.9076
12224TIP3   OH258162   5.019   5.014  12.238  0.2906 -0.1504 -0.2967
12224TIP3    H158163   5.007   4.933  12.187 -0.4445 -0.0746 -0.2563
12224TIP3    H258164   5.027   5.082  12.172 -1.3126  0.0376 -0.3310
12225TIP3   OH258165   5.596   2.153   2.902  0.0120 -0.4599 -0.5829
12225TIP3    H158166   5.647   2.204   2.965 -0.9074 -1.4520  1.0340
12225TIP3    H258167   5.638   2.170   2.817  0.4330  2.0251  0.0392
12226TIP3   OH258168   4.300   3.362   4.187  0.6647  0.3093  0.5129
12226TIP3    H158169   4.371   3.333   4.130  1.1832  0.6497  0.9872
12226TIP3    H258170   4.221   3.324   4.147  1.2914 -1.7062  1.0810
12227TIP3   OH258171   5.223   6.176  12.269  0.1398  0.0452 -0.2642
12227TIP3    H158172   5.311   6.169  12.307  0.1997 -1.6002 -0.6396
12227TIP3    H258173   5.164   6.159  12.342  0.1940 -0.6964 -0.3853
12228TIP3   OH258174   6.106   5.369  12.510 -0.3467  0.8154 -0.0476
12228TIP3    H158175   6.134   5.370  12.601  0.4396 -2.0720 -0.1592
12228TIP3    H258176   6.133   5.454  12.476  2.4646  0.7165  1.5722
12229TIP3   OH258177   4.093   6.274  15.613  0.5824 -0.1463  0.1484
12229TIP3    H158178   4.114   6.351  15.665  1.3903 -0.6687  0.6275
12229TIP3    H258179   4.104   6.302  15.522  0.0746  0.5147  0.2811
12230TIP3   OH258180   5.189   1.576  15.938  0.2048  0.3953 -0.2414
12230TIP3    H158181   5.244   1.648  15.969 -0.4240  0.4124  0.8856
12230TIP3    H258182   5.249   1.518  15.891  0.9287  1.0821 -0.1770
12231TIP3   OH258183   5.948   4.628   2.985 -0.4129  0.4434  0.2706
12231TIP3    H158184   5.918   4.655   3.072  0.5508 -0.1027  0.7752
12231TIP3    H258185   5.958   4.711   2.937 -0.0688  0.8035  0.9574
12232TIP3   OH258186   0.576   1.366  10.573 -0.0330 -0.5442  0.2542
12232TIP3    H158187   0.660   1.404  10.546 -0.0930 -1.4759 -1.3802
12232TIP3    H258188   0.540   1.428  10.636  0.4737  1.4721 -1.3471
12233TIP3   OH258189   1.259   3.280   4.993  0.0719  0.9546  0.4101
12233TIP3    H158190   1.277   3.206   5.050  0.9705  0.1120 -0.9216
12233TIP3    H258191   1.168   3.267   4.964  0.4286  0.0177 -0.3133
12234TIP3   OH258192   0.342   2.589   4.373  0.0630  0.0789 -0.4551
12234TIP3    H158193   0.373   2.503   4.348  0.8531 -0.4103  1.9107
12234TIP3    H258194   0.279   2.573   4.444  2.7971  1.4197  2.5503
12235TIP3   OH258195   4.099   1.970   2.942  0.0654 -0.1012  0.1965
12235TIP3    H158196   4.168   1.971   2.876  0.9486  2.5115  1.0569
12235TIP3    H258197   4.144   1.948   3.024 -0.0322  1.7262  0.7843
12236TIP3   OH258198   2.550   0.156  15.542 -0.3661 -0.3324 -0.1442
12236TIP3    H158199   2.471   0.124  15.498  0.4507 -0.7803 -1.3604
12236TIP3    H258200   2.582   0.225  15.484  0.7387 -0.9394 -0.2877
12237TIP3   OH258201   3.477   4.003   0.365  0.3808  0.2936 -0.0272
12237TIP3    H158202   3.472   3.910   0.342 -0.3136  0.5824 -1.0664
12237TIP3    H258203   3.522   4.004   0.450  0.0955 -1.0149  0.1592
12238TIP3   OH258204   2.845   4.188  14.627  0.2219 -0.1134 -0.5621
12238TIP3    H158205   2.937   4.211  14.639  0.2815 -0.3231 -0.6197
12238TIP3    H258206   2.822   4.227  14.542  0.2142  0.0653 -0.4805
12239TIP3   OH258207   4.861   2.572   3.838  0.2108 -0.0615  0.0746
12239TIP3    H158208   4.946   2.534   3.818  0.4702  0.5449 -0.0046
12239TIP3    H258209   4.865   2.661   3.802 -1.2171 -0.6901 -1.8129
12240TIP3   OH258210   3.010   6.720  14.963  0.3151 -0.5716  0.4132
12240TIP3    H158211   3.028   6.676  14.879 -1.6983 -1.7474  0.5140
12240TIP3    H258212   3.052   6.805  14.955 -0.7455 -0.1956 -2.2729
12241TIP3   OH258213   4.140   3.861  12.563 -0.5581  0.1394 -0.1399
12241TIP3    H158214   4.224   3.896  12.594 -1.0630  1.4007 -0.1350
12241TIP3    H258215   4.088   3.849  12.643  0.3601 -2.8645  0.1238
12242TIP3   OH258216   0.350   5.826  14.289  0.1630  1.1596 -0.1930
12242TIP3    H158217   0.343   5.765  14.216  0.1162 -0.0169  0.7508
12242TIP3    H258218   0.412   5.892  14.260  1.7189 -0.3964 -0.5715
12243TIP3   OH258219   4.742   0.544   5.792  0.4789  0.2531 -0.5543
12243TIP3    H158220   4.731   0.639   5.798  1.6181  0.4164 -0.9428
12243TIP3    H258221   4.752   0.516   5.883 -2.3456  0.1386 -0.1666
12244TIP3   OH258222   2.041   3.732  12.956  0.1877  0.0926  0.6145
12244TIP3    H158223   2.019   3.782  12.878 -0.8445 -1.5478 -0.2082
12244TIP3    H258224   2.136   3.725  12.954  0.2355  0.8497  0.0048
12245TIP3   OH258225   1.663   3.797  14.194 -0.2686 -0.0028  0.0401
12245TIP3    H158226   1.731   3.734  14.171 -0.1343 -0.3055  1.1754
12245TIP3    H258227   1.583   3.760  14.158 -0.0963 -0.5287  0.1886
12246TIP3   OH258228   2.804   5.439  14.749 -0.5023  0.6694  0.4261
12246TIP3    H158229   2.883   5.385  14.746 -1.7051 -1.1696 -1.1796
12246TIP3    H258230   2.786   5.451  14.842  2.3126  2.2544  0.8596
12247TIP3   OH258231   2.373   2.230   5.572 -0.1401  0.1894 -0.4785
12247TIP3    H158232   2.390   2.305   5.629  1.6422 -0.7062  0.2465
12247TIP3    H258233   2.356   2.268   5.486  1.0439  1.4303 -0.1928
12248TIP3   OH258234   3.477   4.907   2.308 -0.6856 -0.3017  0.2238
12248TIP3    H158235   3.487   4.897   2.403 -0.4860  2.1905  0.5348
12248TIP3    H258236   3.544   4.970   2.284 -0.9210 -0.6911 -1.5417
12249TIP3   OH258237   1.390   6.400   5.605 -0.1608  0.0148 -0.4887
12249TIP3    H158238   1.408   6.485   5.565 -0.2836  0.0926 -0.3788
12249TIP3    H258239   1.469   6.380   5.655 -0.5735  0.5952  0.4129
12250TIP3   OH258240   0.476   1.904   0.803 -0.5855 -0.2234  0.1094
12250TIP3    H158241   0.550   1.897   0.742 -1.4457 -0.4426 -0.9515
12250TIP3    H258242   0.424   1.976   0.769 -1.6566 -1.0515 -0.0787
12251TIP3   OH258243   0.219   2.397   0.062 -0.0771 -0.1237  0.6368
12251TIP3    H158244   0.244   2.394  -0.031  0.5628 -0.2616  0.8110
12251TIP3    H258245   0.300   2.381   0.109 -0.7352 -2.1686  1.2038
12252TIP3   OH258246   0.479   5.873  16.118 -0.6584  0.3535 -0.2365
12252TIP3    H158247   0.395   5.917  16.103 -0.9420 -0.1080 -0.0229
12252TIP3    H258248   0.519   5.868  16.032 -0.3484  1.5623 -0.1867
12253TIP3   OH258249   1.180   4.890   5.916 -0.2148 -0.3822 -0.1463
12253TIP3    H158250   1.090   4.873   5.942 -0.8537 -0.7491 -2.3476
12253TIP3    H258251   1.226   4.808   5.933 -0.3354 -0.2641  0.7829
12254TIP3   OH258252   1.205   2.651   5.526  0.1712  0.8003 -0.4626
12254TIP3    H158253   1.260   2.578   5.498 -1.0430  0.0639 -0.9953
12254TIP3    H258254   1.220   2.658   5.620 -0.9329 -1.2306 -0.0931
12255TIP3   OH258255   0.528   2.394  15.235 -0.5919  0.7483  0.0644
12255TIP3    H158256   0.562   2.311  15.268 -1.4697  0.3419 -0.0173
12255TIP3    H258257   0.588   2.461  15.269  1.2221 -0.0494 -1.3908
12256TIP3   OH258258   4.869   0.919  16.512 -0.3693 -0.1563  0.4137
12256TIP3    H158259   4.956   0.914  16.552 -0.0169 -0.7652 -0.4123
12256TIP3    H258260   4.837   0.829  16.511 -1.3365  0.1529  1.3871
12257TIP3   OH258261   2.985   2.872   4.411  0.1794  0.1662  0.0797
12257TIP3    H158262   3.053   2.862   4.345 -0.3799 -1.1924 -0.3375
12257TIP3    H258263   2.904   2.882   4.361 -0.2648 -0.9636  0.5348
12258TIP3   OH258264   4.470   2.042   1.055 -0.1075 -0.2008  0.3623
12258TIP3    H158265   4.394   1.984   1.057 -0.7487  0.5866 -0.2507
12258TIP3    H258266   4.488   2.062   1.147 -0.6950 -0.3217  0.5063
12259TIP3   OH258267   5.174   2.215  14.303 -0.4840  0.1014 -0.1132
12259TIP3    H158268   5.111   2.199  14.232  0.8997  0.7250 -1.5287
12259TIP3    H258269   5.259   2.199  14.263  0.3804  1.2178  1.2195
12260TIP3   OH258270   1.466   5.675   4.410 -0.0149 -0.0073  0.0686
12260TIP3    H158271   1.482   5.607   4.345  2.3552  0.0666  0.4775
12260TIP3    H258272   1.520   5.749   4.381  0.0454  0.4930  1.3748
12261TIP3   OH258273   3.964   1.516  14.219 -0.9924 -0.3896 -0.5498
12261TIP3    H158274   3.906   1.463  14.273  0.5777 -0.0112  1.6604
12261TIP3    H258275   3.921   1.601  14.212 -1.2119 -0.4416  0.1459
12262TIP3   OH258276   3.470   4.357   4.115  0.0792 -0.3346 -0.0340
12262TIP3    H158277   3.500   4.278   4.161  0.7768 -0.3613 -0.5144
12262TIP3    H258278   3.474   4.426   4.182  0.9526 -0.4023  0.0040
12263TIP3   OH258279   2.585   6.483   3.450  0.3422  0.3956 -0.7515
12263TIP3    H158280   2.610   6.411   3.507 -0.1047  0.6075 -0.2890
12263TIP3    H258281   2.552   6.441   3.371  0.9148  0.1033 -0.8403
12264TIP3   OH258282   5.112   6.189  14.450  0.3707 -0.3547 -0.4795
12264TIP3    H158283   5.171   6.242  14.503 -1.5862  1.3963  0.0828
12264TIP3    H258284   5.151   6.102  14.450  3.1524  0.7854 -0.5181
12265TIP3   OH258285   5.821   6.021  11.365  0.5387 -0.3340  0.1407
12265TIP3    H158286   5.743   5.999  11.417 -0.1613 -0.1215 -0.7806
12265TIP3    H258287   5.785   6.064  11.287  1.7260  2.7793  1.1781
12266TIP3   OH258288   5.189   0.680  16.740  0.1720  0.1698  0.3421
12266TIP3    H158289   5.199   0.773  16.724 -1.6590  0.2132 -0.9479
12266TIP3    H258290   5.262   0.639  16.692 -0.3411  0.8474 -1.0889
12267TIP3   OH258291   3.447   3.544  13.624 -0.2047  0.2543  0.0483
12267TIP3    H158292   3.357   3.519  13.600  0.2797 -1.0408 -0.5172
12267TIP3    H258293   3.501   3.475  13.587  0.9680  0.5688  1.1328
12268TIP3   OH258294   6.081   0.899   2.740  0.1297  0.1920  0.4133
12268TIP3    H158295   6.155   0.846   2.709  0.8602  0.3580  1.7831
12268TIP3    H258296   6.063   0.959   2.668  2.6885  1.5223  0.7507
12269TIP3   OH258297   0.957   2.699   3.902 -0.6373 -0.1251 -0.7345
12269TIP3    H158298   0.941   2.730   3.991  1.4170  1.0441 -0.7085
12269TIP3    H258299   1.029   2.636   3.911  0.6587  1.1487 -1.6864
12270TIP3   OH258300   1.111   6.700  15.304  0.0080  0.1774  0.5640
12270TIP3    H158301   1.096   6.742  15.220  1.1902 -0.4123  0.0394
12270TIP3    H258302   1.038   6.640  15.315  0.4495 -0.5950 -0.6001
12271TIP3   OH258303   5.380   3.018  17.064  0.3174  0.5329 -0.1254
12271TIP3    H158304   5.446   2.970  17.115  0.3777  1.4931  0.7479
12271TIP3    H258305   5.430   3.084  17.016  0.4582 -1.2889 -2.7024
12272TIP3   OH258306   6.393   6.779   5.720 -0.2011  0.3124  0.0004
12272TIP3    H158307   6.406   6.858   5.667 -2.1664  0.4472 -0.3558
12272TIP3    H258308   6.361   6.714   5.657  0.5942 -0.5364  0.4522
12273TIP3   OH258309   3.303   5.164  13.857  0.3108  0.4919  0.0053
12273TIP3    H158310   3.389   5.169  13.814  0.0760 -0.8564 -0.6946
12273TIP3    H258311   3.323   5.163  13.951  0.8826  2.7045 -0.0465
12274TIP3   OH258312   5.850   1.414  14.306  0.6063  0.4651  0.1115
12274TIP3    H158313   5.873   1.495  14.260  0.2369  0.5280  0.0371
12274TIP3    H258314   5.907   1.347  14.268 -1.3491 -0.0075 -2.1635
12275TIP3   OH258315   3.706   0.322   4.802  0.6884 -0.4962  0.0438
12275TIP3    H158316   3.713   0.255   4.870 -1.1230 -0.5769  0.1854
12275TIP3    H258317   3.781   0.380   4.817  0.5421 -0.7414  1.8631
12276TIP3   OH258318   2.635   4.519   4.169  0.3396  0.1322 -0.1751
12276TIP3    H158319   2.674   4.480   4.091  1.1979  0.1755  0.2235
12276TIP3    H258320   2.617   4.446   4.227 -0.3993  0.0889 -0.4455
12277TIP3   OH258321   2.134   4.137  13.855 -0.6955  0.8300  0.1379
12277TIP3    H158322   2.075   4.112  13.785  1.4823 -1.6215 -0.9577
12277TIP3    H258323   2.132   4.233  13.855  0.4837  1.0838 -4.5220
12278TIP3   OH258324   3.960   2.424   4.814 -0.4515 -0.3438  0.3039
12278TIP3    H158325   3.907   2.504   4.819  2.7991  2.0351  0.1298
12278TIP3    H258326   3.987   2.408   4.904 -0.8310 -1.1153  0.2893
12279TIP3   OH258327   5.165   4.229  15.132  0.3481  0.0978  0.3587
12279TIP3    H158328   5.217   4.164  15.179  1.0146 -0.1685 -0.6959
12279TIP3    H258329   5.158   4.303  15.192  1.7908  0.0585  0.6074
12280TIP3   OH258330   2.075   0.321  16.051  0.0465 -0.0888 -0.6999
12280TIP3    H158331   2.027   0.257  16.104 -2.7543  1.4193 -1.2157
12280TIP3    H258332   2.052   0.300  15.961  1.1659  0.1033 -1.0454
12281TIP3   OH258333   1.482   3.573   1.283 -0.0785 -0.3059  0.1309
12281TIP3    H158334   1.571   3.583   1.318 -0.3299 -0.9855  0.9969
12281TIP3    H258335   1.430   3.637   1.331 -0.0222  0.2764 -0.5640
12282TIP3   OH258336   2.762   5.331  15.518  0.0586  0.4390  0.8443
12282TIP3    H158337   2.709   5.271  15.570  1.1727 -0.2904  1.1643
12282TIP3    H258338   2.850   5.295  15.521 -0.0757 -0.6263 -2.9844
12283TIP3   OH258339   2.056   2.746   6.291  0.3774 -0.1054 -0.2736
12283TIP3    H158340   1.980   2.725   6.237 -0.2374  2.3406 -0.4620
12283TIP3    H258341   2.109   2.666   6.290 -0.7538 -0.9082 -2.5428
12284TIP3   OH258342   3.248   3.486  17.205  0.4171  0.1023  0.2027
12284TIP3    H158343   3.202   3.448  17.279 -0.4874 -1.4154 -1.0857
12284TIP3    H258344   3.339   3.492  17.234  0.1868 -1.0037  1.2203
12285TIP3   OH258345   5.955   1.951  13.150  0.3971  0.2327 -0.3995
12285TIP3    H158346   5.970   1.860  13.126 -0.7349 -0.0575 -0.0978
12285TIP3    H258347   6.007   1.963  13.230  1.6118  0.2609 -1.1772
12286TIP3   OH258348   1.066   2.207   1.045  0.1546 -0.4182  0.0644
12286TIP3    H158349   1.093   2.124   1.085  0.2653  0.2740  1.4638
12286TIP3    H258350   0.971   2.209   1.054 -0.0014 -0.9767 -1.1813
12287TIP3   OH258351   5.002   0.073   3.485  0.9778  0.3798 -0.3743
12287TIP3    H158352   4.951   0.154   3.477 -1.2135 -0.7500  1.2989
12287TIP3    H258353   5.000   0.035   3.397 -1.2677  0.3033 -0.3461
12288TIP3   OH258354   2.457   4.741  11.265 -0.1989  0.4666 -0.4906
12288TIP3    H158355   2.442   4.697  11.181  0.9880 -1.3166  0.1570
12288TIP3    H258356   2.528   4.802  11.248 -0.8921  1.1245 -1.0820
12289TIP3   OH258357   6.554   6.565  16.080 -0.1836 -0.4432 -0.1977
12289TIP3    H158358   6.531   6.473  16.074 -0.6527 -0.3817  0.6304
12289TIP3    H258359   6.598   6.584  15.997 -0.3210 -1.3395 -0.4800
12290TIP3   OH258360   3.816   4.781   5.308 -0.0000 -0.1847  0.1182
12290TIP3    H158361   3.879   4.781   5.380  0.0144 -0.7155  0.1140
12290TIP3    H258362   3.732   4.762   5.349  0.0563 -0.8037 -0.0309
12291TIP3   OH258363   3.870   4.011   0.303  0.1990 -0.1145 -0.2262
12291TIP3    H158364   3.963   4.004   0.280  0.1013  0.4104 -0.8136
12291TIP3    H258365   3.869   4.010   0.398  0.9098  1.0074 -0.1864
12292TIP3   OH258366   2.532   6.738   1.133  0.0923  0.2983  0.9121
12292TIP3    H158367   2.516   6.807   1.069  0.1543 -0.7846 -0.3393
12292TIP3    H258368   2.506   6.775   1.217  0.4978  1.9516  0.3359
12293TIP3   OH258369   1.703   0.007   4.469 -0.1185 -0.1676 -0.8010
12293TIP3    H158370   1.631   0.069   4.482 -0.5031 -0.5554 -1.0752
12293TIP3    H258371   1.663  -0.066   4.422  0.9497  0.6622 -3.1561
12294TIP3   OH258372   4.800   6.413   1.717  0.3032  0.3075 -0.0268
12294TIP3    H158373   4.731   6.418   1.651 -0.8896 -2.1670  0.8877
12294TIP3    H258374   4.863   6.351   1.679  1.7628  2.0400 -0.5629
12295TIP3   OH258375   4.734   5.232   0.309  0.6598  0.2184  0.1889
12295TIP3    H158376   4.674   5.173   0.263  1.2423 -0.7502  0.6384
12295TIP3    H258377   4.813   5.233   0.255  0.3567  1.2882 -0.2663
12296TIP3   OH258378   2.670   6.725  13.475 -0.5316 -0.1949  0.4627
12296TIP3    H158379   2.720   6.792  13.521 -0.3793  0.1734 -0.2288
12296TIP3    H258380   2.694   6.643  13.518  1.0990 -0.0963 -0.1935
12297TIP3   OH258381   1.862   6.727  14.515 -0.2715  0.0491  0.2677
12297TIP3    H158382   1.869   6.648  14.462  3.1733 -0.6855  1.5719
12297TIP3    H258383   1.809   6.701  14.591  0.2160 -0.7871  0.3255
12298TIP3   OH258384   4.629   0.740  10.639  0.1985 -0.7853 -0.4033
12298TIP3    H158385   4.553   0.759  10.584  1.2164 -0.6710 -1.8128
12298TIP3    H258386   4.606   0.660  10.685 -0.5077 -1.1298 -1.3377
12299TIP3   OH258387   1.534   0.311   0.729  0.0359 -0.4091  0.2101
12299TIP3    H158388   1.599   0.381   0.740  0.4821 -0.5559 -1.2114
12299TIP3    H258389   1.542   0.285   0.637  0.2143 -2.6457  0.7785
12300TIP3   OH258390   3.882   3.770   0.919 -0.0288  0.7458 -0.4369
12300TIP3    H158391   3.939   3.779   0.843  2.4257  0.5407  1.2567
12300TIP3    H258392   3.892   3.852   0.967 -0.1572  0.2077  0.5504
12301TIP3   OH258393   0.948   0.175  16.636 -0.0861 -0.0997 -0.1484
12301TIP3    H158394   1.043   0.184  16.632 -0.0145 -0.9435 -2.8038
12301TIP3    H258395   0.916   0.264  16.643  0.9254  0.5049 -2.2321
12302TIP3   OH258396   4.862   4.021   5.234  0.5525  0.2818 -0.0994
12302TIP3    H158397   4.786   3.962   5.229  0.4417  0.5407 -2.9363
12302TIP3    H258398   4.919   3.980   5.299 -1.8108 -0.0968  1.9188
12303TIP3   OH258399   4.560   2.418  11.723  0.8203  0.0174  0.2174
12303TIP3    H158400   4.618   2.458  11.658  1.4413 -1.8500 -0.4383
12303TIP3    H258401   4.585   2.459  11.805  2.2814  0.1112 -0.2413
12304TIP3   OH258402   5.326   1.609   2.605 -0.1139 -0.2322 -0.2918
12304TIP3    H158403   5.293   1.575   2.522  0.9143 -0.3464 -0.6652
12304TIP3    H258404   5.324   1.534   2.664 -1.4701  0.0041 -0.0075
12305TIP3   OH258405   2.231   5.699  11.613 -0.1310  0.3000 -0.9001
12305TIP3    H158406   2.268   5.709  11.526  0.3754 -1.2450 -0.8893
12305TIP3    H258407   2.299   5.731  11.672  1.0895 -2.0815 -0.9090
12306TIP3   OH258408   6.598   1.121  12.905 -0.2308 -0.1392  0.1666
12306TIP3    H158409   6.597   1.026  12.901 -0.8115 -0.1405  0.2364
12306TIP3    H258410   6.545   1.142  12.982 -2.1166  0.2962 -1.1818
12307TIP3   OH258411   5.300   3.733  13.293 -0.0089 -0.6588 -0.1727
12307TIP3    H158412   5.339   3.773  13.216 -0.9445  1.1994  0.2617
12307TIP3    H258413   5.343   3.775  13.367  1.5705 -3.0931  0.4111
12308TIP3   OH258414   4.881   4.830   5.295 -0.0182 -0.1517 -0.4477
12308TIP3    H158415   4.834   4.872   5.366  0.0580  2.0559 -1.6197
12308TIP3    H258416   4.829   4.850   5.217 -0.1576 -2.5809 -1.0626
12309TIP3   OH258417   4.104   4.196   6.448 -0.0372 -0.1673  0.4661
12309TIP3    H158418   4.070   4.267   6.503 -0.6760  0.5877 -0.8580
12309TIP3    H258419   4.076   4.219   6.360  0.2936 -1.7609 -0.0787
12310TIP3   OH258420   3.384   4.979   5.831  0.2421 -0.1753 -0.1644
12310TIP3    H158421   3.293   5.006   5.818  0.6735  0.4150 -2.3424
12310TIP3    H258422   3.383   4.885   5.814  0.3137  0.1336 -2.0469
12311TIP3   OH258423   3.700   3.014   6.343 -0.0810 -0.3056 -0.5563
12311TIP3    H158424   3.614   3.000   6.302  0.4660 -0.3220 -1.7186
12311TIP3    H258425   3.735   3.092   6.300 -0.0633  0.5184  0.8683
12312TIP3   OH258426   5.775   6.196   6.028  0.1776 -0.2012 -0.2691
12312TIP3    H158427   5.822   6.269   6.067 -1.0233 -1.0500  3.0921
12312TIP3    H258428   5.843   6.132   6.008  0.9024  0.4693 -0.0168
12313TIP3   OH258429   6.596   6.605   3.622  0.2781 -0.2594  0.2104
12313TIP3    H158430   6.688   6.604   3.650  0.4171  1.3298 -0.1106
12313TIP3    H258431   6.566   6.515   3.637  1.2840 -0.3123  2.2926
12314TIP3   OH258432   4.639   0.530   4.639 -0.4567  0.6605 -0.2562
12314TIP3    H158433   4.639   0.447   4.591  3.1165  0.5502 -0.2955
12314TIP3    H258434   4.665   0.595   4.574  0.2822  1.2098  0.5719
12315TIP3   OH258435   5.913   4.188   1.554 -0.6677 -0.0496  0.5422
12315TIP3    H158436   5.951   4.113   1.600  0.0844  0.5072  0.8524
12315TIP3    H258437   5.846   4.150   1.498 -1.0930 -0.8345  1.5453
12316TIP3   OH258438   4.893   6.641   1.564 -0.4088 -0.0068 -0.0573
12316TIP3    H158439   4.907   6.546   1.570 -0.5968  0.0129  0.8965
12316TIP3    H258440   4.945   6.668   1.488  0.0351 -0.8037 -0.0534
12317TIP3   OH258441   3.958   6.552  13.427 -0.2815 -0.2701 -0.2395
12317TIP3    H158442   3.884   6.499  13.456 -0.2417  0.6053  1.6311
12317TIP3    H258443   3.959   6.627  13.487  1.0890  0.6253 -1.3052
12318TIP3   OH258444   4.900   1.421  15.774  0.0758  0.3528 -0.4953
12318TIP3    H158445   4.987   1.402  15.741  0.8512 -1.2909  2.2408
12318TIP3    H258446   4.841   1.382  15.710  1.4153 -0.6723 -1.1531
12319TIP3   OH258447   0.929   4.485  13.533  0.5088  0.1230  0.4096
12319TIP3    H158448   0.972   4.468  13.449  0.2299  0.7761  0.1310
12319TIP3    H258449   0.952   4.409  13.587  0.2695 -0.5627 -0.4199
12320TIP3   OH258450   5.374   1.763  16.098  0.2645 -0.0108  0.0582
12320TIP3    H158451   5.389   1.857  16.092 -0.4396  0.1176  0.2483
12320TIP3    H258452   5.350   1.748  16.189  0.5422 -0.4023  0.0723
12321TIP3   OH258453   6.381   5.363  13.339  0.1203  0.0776 -0.0654
12321TIP3    H158454   6.370   5.435  13.401  1.8117  0.7974 -0.5259
12321TIP3    H258455   6.307   5.371  13.279 -0.4671  0.5717  0.7159
12322TIP3   OH258456   0.655   6.503  12.296 -0.4224 -1.0412 -0.4043
12322TIP3    H158457   0.595   6.559  12.246 -0.5444 -1.8562 -1.1992
12322TIP3    H258458   0.631   6.518  12.387 -0.5549  0.0768 -0.6137
12323TIP3   OH258459   4.813   5.248   2.934  0.4459  0.0824 -0.1747
12323TIP3    H158460   4.805   5.153   2.922 -0.0177 -0.1417  1.6412
12323TIP3    H258461   4.905   5.266   2.914  0.5196 -0.7267 -0.6406
12324TIP3   OH258462   4.702   2.497   6.456  0.3840 -0.2627 -0.2473
12324TIP3    H158463   4.789   2.477   6.420  0.8054 -0.0340  0.6068
12324TIP3    H258464   4.645   2.503   6.379  1.2735  0.3226 -0.8872
12325TIP3   OH258465   3.342   6.201  16.524 -0.0131 -0.6050 -0.2933
12325TIP3    H158466   3.303   6.139  16.585  1.0391 -0.3989  0.6170
12325TIP3    H258467   3.345   6.283  16.572  1.6564 -0.6517 -0.2711
12326TIP3   OH258468   6.343   3.152  15.635 -0.1915  0.2050  0.4271
12326TIP3    H158469   6.368   3.071  15.679 -0.8007 -0.0429  0.3240
12326TIP3    H258470   6.422   3.179  15.588 -0.0085 -0.3740  0.3925
12327TIP3   OH258471   6.439   2.669  10.769  0.0025 -0.4502  0.3514
12327TIP3    H158472   6.518   2.703  10.812  0.1112 -2.5705  2.0356
12327TIP3    H258473   6.418   2.734  10.703  0.9788  2.0920  2.3515
12328TIP3   OH258474   5.821   4.377   0.860 -0.3526 -0.4292 -0.5944
12328TIP3    H158475   5.906   4.374   0.904 -0.7792 -0.7323  0.2430
12328TIP3    H258476   5.800   4.286   0.841 -1.4637 -0.6096  1.2043
12329TIP3   OH258477   0.511   0.689   3.414  0.4852 -0.8496 -0.1142
12329TIP3    H158478   0.536   0.684   3.322  0.3261 -0.1159 -0.2053
12329TIP3    H258479   0.424   0.649   3.418 -0.6210  1.3146 -0.7474
12330TIP3   OH258480   5.986   1.572   4.929  0.3361  0.2224  0.0311
12330TIP3    H158481   6.065   1.619   4.956 -0.8945  0.5392  3.6742
12330TIP3    H258482   5.926   1.640   4.900  0.0624  0.4795  1.1431
12331TIP3   OH258483   6.636   1.359  13.921 -0.1383  0.5119  0.0730
12331TIP3    H158484   6.577   1.295  13.962 -0.0592 -0.3382 -1.1063
12331TIP3    H258485   6.633   1.435  13.980 -1.1759 -0.1101  0.8589
12332TIP3   OH258486   3.320   4.370   4.542 -0.3154 -0.0245 -0.1820
12332TIP3    H158487   3.415   4.385   4.538 -0.0911 -1.3211 -0.3160
12332TIP3    H258488   3.282   4.449   4.504  0.7730 -0.0135 -1.3398
12333TIP3   OH258489   2.637   3.375   0.332  0.2981  0.0901  0.0797
12333TIP3    H158490   2.652   3.316   0.258 -0.7045 -0.7116  0.4960
12333TIP3    H258491   2.666   3.326   0.409  1.0271  0.7942  0.2616
12334TIP3   OH258492   2.662   5.512   4.551 -0.0263 -0.1902 -0.0008
12334TIP3    H158493   2.591   5.486   4.492 -1.4362  1.2950  0.9433
12334TIP3    H258494   2.652   5.456   4.628 -1.1761  1.0156  0.7676
12335TIP3   OH258495   4.423   5.508   2.861 -0.8851 -1.0137 -0.7137
12335TIP3    H158496   4.414   5.535   2.769 -1.2871 -1.5564 -0.8422
12335TIP3    H258497   4.365   5.567   2.909  0.4935  0.2934 -0.5933
12336TIP3   OH258498   1.930   1.841  13.528 -0.1028  0.5822  0.0719
12336TIP3    H158499   1.948   1.835  13.434 -1.6025 -0.4345 -0.1845
12336TIP3    H258500   1.885   1.925  13.538 -0.1413  0.5913 -0.1585
12337TIP3   OH258501   0.040   3.244   4.532  0.1434 -0.3647  0.1880
12337TIP3    H158502   0.092   3.221   4.610  2.0098 -1.5809 -1.3190
12337TIP3    H258503  -0.035   3.185   4.535  0.9974 -1.4818  0.2990
12338TIP3   OH258504   4.660   5.692   4.755 -0.8469  0.2783 -0.3840
12338TIP3    H158505   4.747   5.732   4.755 -1.0975  1.0008  1.7932
12338TIP3    H258506   4.637   5.685   4.663  1.2286  0.6971 -0.9984
12339TIP3   OH258507   1.879   0.744  12.544  0.0199 -0.4930  0.2414
12339TIP3    H158508   1.969   0.754  12.513 -0.0762 -0.7068 -0.1164
12339TIP3    H258509   1.844   0.833  12.546 -0.3249 -0.5644 -1.3614
12340TIP3   OH258510   0.578   5.330   4.186  0.2033 -0.4091 -0.2300
12340TIP3    H158511   0.523   5.265   4.229  0.5044 -0.0855  0.6690
12340TIP3    H258512   0.531   5.413   4.196  0.7077 -0.1771  0.3085
12341TIP3   OH258513   2.331   3.795  13.899 -0.7135  0.1544 -0.6860
12341TIP3    H158514   2.325   3.777  13.805 -0.4605 -0.5794 -0.5684
12341TIP3    H258515   2.415   3.758  13.925  0.2062  2.1622 -0.5536
12342TIP3   OH258516   3.966   2.517   0.339  0.2974  0.2251  0.2873
12342TIP3    H158517   4.056   2.545   0.322 -0.2486  0.8871 -1.9234
12342TIP3    H258518   3.952   2.534   0.432  2.9344 -1.3921  1.0809
12343TIP3   OH258519   2.714   2.041   5.533 -0.3691 -0.0698  0.2199
12343TIP3    H158520   2.735   1.950   5.517  0.0070  0.0619 -0.0437
12343TIP3    H258521   2.623   2.050   5.504 -0.3424 -0.3102  0.0596
12344TIP3   OH258522   5.489   0.237   1.157 -0.1201  0.0356 -0.0396
12344TIP3    H158523   5.406   0.233   1.109 -0.3409  1.2284  0.2070
12344TIP3    H258524   5.507   0.146   1.181 -1.5995 -0.1981  0.3058
12345TIP3   OH258525   0.162   2.643   0.812 -0.0215  0.1376 -0.4121
12345TIP3    H158526   0.200   2.603   0.889 -1.0752 -1.2567 -0.5904
12345TIP3    H258527   0.221   2.717   0.792  1.0885 -0.3751  0.8216
12346TIP3   OH258528   3.356   1.653  15.711 -0.1682  0.3727 -0.0009
12346TIP3    H158529   3.338   1.562  15.686 -1.0573  0.4685  0.2660
12346TIP3    H258530   3.343   1.703  15.630 -0.7425  0.3904  0.0971
12347TIP3   OH258531   6.436   4.684  17.065  0.0452  0.2236  0.0835
12347TIP3    H158532   6.350   4.699  17.026  0.6831 -1.0987 -2.0021
12347TIP3    H258533   6.451   4.760  17.122 -2.6614  0.2578  0.8719
12348TIP3   OH258534   2.466   1.156   1.049 -0.0709  1.0896 -0.6213
12348TIP3    H158535   2.379   1.189   1.072 -0.6767 -0.4552 -0.6112
12348TIP3    H258536   2.449   1.073   1.004  1.4473 -0.4421  1.4558
12349TIP3   OH258537   2.976   2.577   1.675  0.3908  0.6924 -0.1813
12349TIP3    H158538   2.922   2.646   1.714 -0.4725  0.2331 -0.5357
12349TIP3    H258539   3.035   2.624   1.615  0.9306  1.2752  0.7878
12350TIP3   OH258540   5.096   1.181  13.393  0.4581 -0.1046  0.7037
12350TIP3    H158541   5.069   1.090  13.381 -0.7912  0.5768 -2.5762
12350TIP3    H258542   5.028   1.218  13.449 -0.4457 -0.6093 -0.0257
12351TIP3   OH258543   2.766   2.270   3.000 -0.2979 -0.5610  0.5022
12351TIP3    H158544   2.678   2.252   2.968 -0.3147 -0.2569  0.3786
12351TIP3    H258545   2.822   2.207   2.955 -0.0712  0.9059 -1.3907
12352TIP3   OH258546   2.771   0.395   4.456 -0.1937  0.6803 -0.0572
12352TIP3    H158547   2.781   0.371   4.548 -1.7162  1.5865  0.3699
12352TIP3    H258548   2.736   0.316   4.414  4.4056 -1.2911 -0.8584
12353TIP3   OH258549   2.096   2.039  12.411 -0.4809  0.6305  0.2776
12353TIP3    H158550   2.145   2.028  12.329  1.8233 -0.4590  1.6861
12353TIP3    H258551   2.106   2.132  12.432 -0.8594  0.8616 -0.5212
12354TIP3   OH258552   2.686   1.146   5.520 -0.3236 -0.4849  0.0578
12354TIP3    H158553   2.673   1.220   5.579  0.4068 -1.2035  1.1645
12354TIP3    H258554   2.704   1.186   5.435 -0.7246  0.5872  0.4605
12355TIP3   OH258555   6.800   3.555   6.167 -0.1666 -0.3985 -0.0274
12355TIP3    H158556   6.876   3.519   6.213  1.3035 -2.6286 -3.7073
12355TIP3    H258557   6.826   3.645   6.146  1.3173 -0.9312 -0.6910
12356TIP3   OH258558   2.461   1.064   5.006  0.4656  0.1073 -0.1476
12356TIP3    H158559   2.453   1.116   4.926 -0.6177  0.7366  0.3517
12356TIP3    H258560   2.450   0.974   4.976  1.0662  0.2514 -0.8412
12357TIP3   OH258561   6.719   0.135  14.169 -0.2915  0.1914  0.2915
12357TIP3    H158562   6.645   0.182  14.209 -0.2396  0.1241  0.4717
12357TIP3    H258563   6.732   0.059  14.227  1.1895  1.2513  1.4156
12358TIP3   OH258564   1.040   2.567  12.380  0.0972 -0.4637 -0.3922
12358TIP3    H158565   0.949   2.547  12.358  0.1547  0.2527 -1.3623
12358TIP3    H258566   1.046   2.662  12.369  0.4371 -0.1988  1.7094
12359TIP3   OH258567   3.749   2.245   5.718  0.9554 -0.4814 -0.1244
12359TIP3    H158568   3.762   2.264   5.811 -0.6896 -0.2831  0.1003
12359TIP3    H258569   3.779   2.324   5.673  0.1687  0.1233  0.3748
12360TIP3   OH258570   6.296   3.663  13.927  0.2208  0.5761  0.0316
12360TIP3    H158571   6.209   3.675  13.965  0.2482  2.0153 -0.2950
12360TIP3    H258572   6.285   3.591  13.865 -0.3028 -0.4383  1.2638
12361TIP3   OH258573   4.078   2.670  11.005  0.0418  0.3737 -0.4920
12361TIP3    H158574   4.118   2.650  10.921 -0.0793 -0.1714 -0.4283
12361TIP3    H258575   4.150   2.667  11.068 -0.1977 -1.4739 -0.2431
12362TIP3   OH258576   6.536   4.424   1.705  0.1788 -0.0544 -0.3542
12362TIP3    H158577   6.503   4.497   1.653 -0.0840 -0.6009 -0.9702
12362TIP3    H258578   6.501   4.440   1.793 -1.0651 -0.1765 -0.8011
12363TIP3   OH258579   2.481   4.627  14.249  0.2804  0.5600  0.2201
12363TIP3    H158580   2.464   4.651  14.158 -0.8604  0.9362  0.5142
12363TIP3    H258581   2.568   4.589  14.248 -0.0863 -0.3143 -1.1913
12364TIP3   OH258582   3.366   1.379  14.825  0.2172 -0.6552  0.0074
12364TIP3    H158583   3.383   1.466  14.861 -0.7114 -1.4051  2.4413
12364TIP3    H258584   3.372   1.320  14.900 -0.5684 -2.5217 -1.3168
12365TIP3   OH258585   0.641   0.497  16.711  0.0678  0.0827 -0.1353
12365TIP3    H158586   0.580   0.424  16.710 -0.7854  0.7589  0.2580
12365TIP3    H258587   0.620   0.544  16.792  0.9087  0.5007 -0.1498
12366TIP3   OH258588   1.700   5.140  14.771 -0.4723 -0.5332 -0.0505
12366TIP3    H158589   1.658   5.093  14.843 -0.0142  0.6019  0.9844
12366TIP3    H258590   1.776   5.086  14.748 -0.7548 -1.0202  0.1342
12367TIP3   OH258591   4.387   6.402  13.773 -0.0951 -0.4574 -0.2561
12367TIP3    H158592   4.469   6.362  13.802  1.7356  1.9343 -1.6946
12367TIP3    H258593   4.371   6.472  13.836  0.4500  0.7248 -1.3792
12368TIP3   OH258594   3.758   2.843   5.696  0.6372 -0.3239  0.6276
12368TIP3    H158595   3.818   2.893   5.642 -0.4181  0.6914  0.3499
12368TIP3    H258596   3.812   2.774   5.735  1.7780  0.0260 -0.2889
12369TIP3   OH258597   2.570   3.727  13.519 -0.0926 -0.2521  0.2809
12369TIP3    H158598   2.579   3.814  13.481 -1.6731 -0.3729 -0.4516
12369TIP3    H258599   2.483   3.697  13.492  0.5460 -2.2174  0.2029
12370TIP3   OH258600   2.937   1.116  17.164 -0.7756 -0.8473  0.1379
12370TIP3    H158601   2.970   1.034  17.200  0.1491 -1.0136 -1.0045
12370TIP3    H258602   3.003   1.141  17.098 -1.8321 -0.0099 -0.6379
12371TIP3   OH258603   6.142   2.765   2.977 -0.8107  0.0630 -0.3065
12371TIP3    H158604   6.069   2.806   2.931 -0.6771  1.0191  0.3122
12371TIP3    H258605   6.166   2.827   3.045 -1.5079 -1.6451  1.5824
12372TIP3   OH258606   3.146   6.337   3.737 -0.7342  0.3534  0.5876
12372TIP3    H158607   3.157   6.429   3.758 -0.2788  0.6334 -0.7950
12372TIP3    H258608   3.115   6.336   3.647  0.9311 -0.8603 -0.0431
12373TIP3   OH258609   1.721   2.653   1.525 -0.8569 -0.0886  0.4386
12373TIP3    H158610   1.711   2.582   1.589  3.1705 -0.7331  0.6216
12373TIP3    H258611   1.753   2.609   1.446 -1.4552  1.2091 -0.5600
12374TIP3   OH258612   5.006   0.774   0.652  0.2667 -0.3345 -0.1475
12374TIP3    H158613   4.971   0.744   0.736 -0.6947 -1.4877 -0.9136
12374TIP3    H258614   4.958   0.855   0.634  0.3917 -0.1470  0.3682
12375TIP3   OH258615   4.886   5.990   2.907  0.6311  0.0377 -0.2508
12375TIP3    H158616   4.939   5.912   2.922  0.1121 -0.3373 -0.3795
12375TIP3    H258617   4.846   6.009   2.992  0.7970  0.1982 -0.2065
12376TIP3   OH258618   0.647   0.508  12.278 -0.0027  0.6606 -0.1106
12376TIP3    H158619   0.617   0.426  12.239 -1.1609  0.7789  0.4879
12376TIP3    H258620   0.725   0.532  12.227  0.7598 -1.1422  0.1603
12377TIP3   OH258621   4.684   6.710  13.338 -0.7690 -0.0598 -0.0237
12377TIP3    H158622   4.765   6.663  13.317  1.3679  2.0063  2.7838
12377TIP3    H258623   4.685   6.786  13.280  0.5995  1.1636  1.5317
12378TIP3   OH258624   1.641   2.801  16.718 -0.1687  0.1709  0.0583
12378TIP3    H158625   1.717   2.813  16.660  1.7799 -4.4809  1.1905
12378TIP3    H258626   1.680   2.782  16.804 -2.7281 -0.0140  1.2538
12379TIP3   OH258627   2.225   0.748   1.542 -0.9139  0.4086  0.0874
12379TIP3    H158628   2.246   0.841   1.537 -0.9791  0.4229  0.0753
12379TIP3    H258629   2.132   0.743   1.519 -1.5181  0.5861  2.2726
12380TIP3   OH258630   0.430   2.472   2.489 -0.5893 -0.2833 -0.0965
12380TIP3    H158631   0.344   2.444   2.458 -0.8033  1.1185 -0.8600
12380TIP3    H258632   0.492   2.422   2.436 -0.9465 -0.4769 -0.3372
12381TIP3   OH258633   5.244   3.480   6.135 -0.6918 -0.2190 -0.7073
12381TIP3    H158634   5.294   3.512   6.060 -1.4959 -0.5224 -1.3789
12381TIP3    H258635   5.194   3.556   6.164 -0.4632 -0.1305 -0.5412
12382TIP3   OH258636   2.467   3.755  14.560 -0.3948 -0.3844  0.5189
12382TIP3    H158637   2.469   3.770  14.655 -1.4039  3.4750  0.1224
12382TIP3    H258638   2.374   3.741  14.541 -0.6872  2.0183 -0.1330
12383TIP3   OH258639   3.938   6.407  14.705 -0.7472 -0.3322  0.0469
12383TIP3    H158640   3.907   6.475  14.767 -1.4281 -0.0854 -0.5452
12383TIP3    H258641   3.940   6.327  14.757  1.5141  0.3675  1.1786
12384TIP3   OH258642   5.373   1.467   2.832 -0.2168 -0.1580  0.2952
12384TIP3    H158643   5.468   1.455   2.833 -0.3170 -0.9811  1.0630
12384TIP3    H258644   5.353   1.508   2.916 -0.3311  2.0037 -0.7229
12385TIP3   OH258645   4.609   2.441   3.740 -0.1300  0.3023  0.2464
12385TIP3    H158646   4.542   2.510   3.742  0.6064  1.0408  2.7284
12385TIP3    H258647   4.687   2.482   3.776  1.2867 -0.9744 -1.2132
12386TIP3   OH258648   2.734   1.760  11.646  0.2070 -0.2234 -0.0708
12386TIP3    H158649   2.680   1.832  11.615 -0.1008 -0.3759  0.1052
12386TIP3    H258650   2.774   1.792  11.727 -1.5495 -0.9533  1.1426
12387TIP3   OH258651   1.496   6.469  14.106 -0.1103 -0.2866 -0.0301
12387TIP3    H158652   1.557   6.419  14.052 -0.5870  0.0221 -0.8694
12387TIP3    H258653   1.415   6.417  14.106 -1.2804  1.3148 -2.5299
12388TIP3   OH258654   4.806   5.084  14.486  0.0075  0.5058 -0.2137
12388TIP3    H158655   4.798   5.069  14.580  1.1397  1.8617  0.1327
12388TIP3    H258656   4.731   5.038  14.448 -0.1799 -0.5073  1.2904
12389TIP3   OH258657   0.592   0.095  13.256  0.5736  0.1628  0.5788
12389TIP3    H158658   0.635   0.176  13.231 -1.5231  1.1072 -0.1940
12389TIP3    H258659   0.543   0.069  13.178 -1.3647 -0.0763  1.7988
12390TIP3   OH258660   6.744   5.163  12.542 -0.3879 -0.2138  0.1335
12390TIP3    H158661   6.797   5.218  12.485  0.1193 -0.7484  0.0802
12390TIP3    H258662   6.746   5.207  12.627 -0.7530  0.3304 -0.1332
12391TIP3   OH258663   1.222   6.068   3.468 -0.1217 -0.6069  0.1567
12391TIP3    H158664   1.209   6.036   3.378 -2.0018  0.0703  0.1381
12391TIP3    H258665   1.134   6.072   3.505  0.0074  3.3472  0.5131
12392TIP3   OH258666   2.078   0.846  12.368 -0.1977  0.2250  0.4815
12392TIP3    H158667   2.161   0.817  12.331 -0.7945  0.3464 -1.0503
12392TIP3    H258668   2.101   0.919  12.426  0.9188 -0.8298  1.4116
12393TIP3   OH258669   5.251   6.075   2.609  0.1180  0.1388 -0.4834
12393TIP3    H158670   5.162   6.099   2.637  0.3840  1.6126 -0.7906
12393TIP3    H258671   5.275   6.143   2.547  0.9761 -0.9882 -1.4189
12394TIP3   OH258672   1.580   0.849   3.131 -0.2851  0.4009  0.1188
12394TIP3    H158673   1.534   0.765   3.120 -1.3416  0.9918 -0.0350
12394TIP3    H258674   1.620   0.865   3.045 -1.0680  0.6348 -0.2020
12395TIP3   OH258675   1.717   0.684  16.488  0.3112 -0.3603 -0.1019
12395TIP3    H158676   1.765   0.604  16.511  0.0090 -0.2534  0.9860
12395TIP3    H258677   1.773   0.755  16.522  0.0453 -0.1722 -0.0566
12396TIP3   OH258678   3.291   2.248   5.589  0.3477  0.0288 -0.4335
12396TIP3    H158679   3.312   2.263   5.681  0.8320 -2.4186 -0.0712
12396TIP3    H258680   3.214   2.191   5.590 -1.1148  1.8625 -1.6372
12397TIP3   OH258681   4.306   1.073   2.015  0.6350  0.1736  0.0301
12397TIP3    H158682   4.282   1.161   2.042 -2.0752  0.0260 -1.5784
12397TIP3    H258683   4.232   1.018   2.043  0.7110 -0.9928 -1.8760
12398TIP3   OH258684   4.903   5.350   1.695  0.2540  0.7116 -0.2903
12398TIP3    H158685   4.877   5.270   1.649  2.4606 -0.4684  0.3643
12398TIP3    H258686   4.859   5.344   1.780 -1.8251  1.6492 -1.2460
12399TIP3   OH258687   6.349   3.562   4.104  0.0164  0.9519  0.4790
12399TIP3    H158688   6.342   3.560   4.009  0.3791 -0.0266  0.4643
12399TIP3    H258689   6.260   3.580   4.134 -1.0175 -2.7151  0.0535
12400TIP3   OH258690   2.558   3.029  14.963  0.1996 -0.1758 -0.4579
12400TIP3    H158691   2.632   3.089  14.960  0.7385 -0.8808 -1.7576
12400TIP3    H258692   2.549   2.996  14.874 -1.6954 -0.1077 -0.3372
12401TIP3   OH258693   2.157   1.110   6.738  0.3072 -0.0838 -0.5055
12401TIP3    H158694   2.250   1.119   6.758  0.7478 -0.8130 -2.0367
12401TIP3    H258695   2.118   1.193   6.764  0.9461 -0.5531  2.2402
12402TIP3   OH258696   4.587   6.391   4.628  0.3855  0.1578  0.2185
12402TIP3    H158697   4.505   6.400   4.676  0.9539 -1.2449  1.5216
12402TIP3    H258698   4.562   6.403   4.536 -1.1479  0.4250  0.6372
12403TIP3   OH258699   4.773   4.087  17.126 -0.4805  0.2565 -0.3162
12403TIP3    H158700   4.855   4.125  17.156  0.3565 -2.1338  0.6436
12403TIP3    H258701   4.722   4.161  17.094  1.5827  1.9413  0.1388
12404TIP3   OH258702   2.069   0.969   2.838  0.2256  0.5484 -0.1169
12404TIP3    H158703   2.096   0.893   2.889  1.3998 -0.0706 -1.6007
12404TIP3    H258704   2.007   1.015   2.895  0.8255 -0.5620  1.5066
12405TIP3   OH258705   2.615   5.184  13.012  0.7137  0.5837  0.0422
12405TIP3    H158706   2.690   5.125  13.000 -0.1257 -1.1562  2.5845
12405TIP3    H258707   2.565   5.176  12.930  1.5930 -0.8141 -0.3947
12406TIP3   OH258708   6.280   2.742  12.984 -0.4219  0.8366  0.0059
12406TIP3    H158709   6.374   2.739  12.973 -0.6371 -0.0152 -1.8667
12406TIP3    H258710   6.246   2.771  12.900 -1.7642  3.4961  1.3155
12407TIP3   OH258711   4.645   5.960  13.614  0.3536 -0.1450 -0.4094
12407TIP3    H158712   4.557   5.922  13.623  0.1391  0.4171 -0.1110
12407TIP3    H258713   4.629   6.047  13.579  0.4397  1.6203  3.4219
12408TIP3   OH258714   2.245   6.597  13.570  0.2499 -0.4551 -0.1870
12408TIP3    H158715   2.183   6.627  13.504  2.5423  2.7274 -1.1237
12408TIP3    H258716   2.244   6.665  13.637  2.0762 -0.7710  0.2098
12409TIP3   OH258717   4.708   5.863  10.916  0.0280  0.4134  0.3913
12409TIP3    H158718   4.685   5.915  10.839  2.3996  2.1410  0.7168
12409TIP3    H258719   4.667   5.909  10.989 -0.4633 -0.0155  0.3948
12410TIP3   OH258720   1.272   5.378  12.321 -0.4932 -0.1786 -0.4035
12410TIP3    H158721   1.355   5.412  12.291 -0.0911 -1.8575 -1.3429
12410TIP3    H258722   1.210   5.401  12.252 -0.4243 -0.4347 -0.5556
12411TIP3   OH258723   2.214   3.233  12.590  0.3463  0.2221  0.2669
12411TIP3    H158724   2.134   3.286  12.598  0.9441  1.1614  0.1670
12411TIP3    H258725   2.204   3.165  12.656 -1.6522 -1.1722 -1.3245
12412TIP3   OH258726   3.175   3.365   4.527 -0.5431  0.3834 -0.5910
12412TIP3    H158727   3.256   3.343   4.574 -0.3095  1.2737 -0.5754
12412TIP3    H258728   3.126   3.419   4.588 -1.4680 -0.7125 -0.3385
12413TIP3   OH258729   5.696   1.954   2.382 -0.6501 -0.3552 -0.3310
12413TIP3    H158730   5.769   2.008   2.411 -0.0565 -1.9104  1.3342
12413TIP3    H258731   5.737   1.884   2.331 -0.9206 -1.1897  0.5436
12414TIP3   OH258732   6.619   1.713  11.054  0.4726  0.2944  0.2948
12414TIP3    H158733   6.657   1.715  11.142 -0.6871  1.0348  0.8032
12414TIP3    H258734   6.690   1.682  10.998  1.5655  0.8650  1.3190
12415TIP3   OH258735   2.142   4.201  13.139  0.3485 -0.0795  0.0241
12415TIP3    H158736   2.070   4.264  13.143 -0.3592 -0.8326 -0.5951
12415TIP3    H258737   2.159   4.179  13.231 -0.1001  0.2243  0.1835
12416TIP3   OH258738   4.230   3.025   4.507  0.0283  0.4072 -0.1906
12416TIP3    H158739   4.264   3.080   4.436 -0.1683 -1.5290 -1.8787
12416TIP3    H258740   4.282   3.050   4.583  1.0451  1.7789 -1.2793
12417TIP3   OH258741   3.796   4.069   6.161  0.8577  0.4022 -0.1709
12417TIP3    H158742   3.795   4.039   6.070  0.4115  0.0563 -0.0553
12417TIP3    H258743   3.792   3.989   6.213 -0.6807  0.6608  0.1435
12418TIP3   OH258744   4.708   3.198   0.392 -0.3927 -0.0115 -0.7130
12418TIP3    H158745   4.801   3.215   0.407 -0.3277  0.4807 -1.5876
12418TIP3    H258746   4.684   3.132   0.458  0.3596  0.4890  0.0744
12419TIP3   OH258747   1.171   6.461  16.778 -0.1396  0.0666 -0.3998
12419TIP3    H158748   1.264   6.485  16.767  0.1136 -0.8917 -0.4425
12419TIP3    H258749   1.126   6.509  16.708  0.0685  1.8647  0.6388
12420TIP3   OH258750   6.370   0.758  11.244 -0.6539  0.3922 -0.2509
12420TIP3    H158751   6.405   0.676  11.279 -0.1307  1.2169  1.2447
12420TIP3    H258752   6.307   0.787  11.309 -0.5705  1.3556 -0.5813
12421TIP3   OH258753   2.099   0.855  17.128 -0.3861 -0.0312  0.4884
12421TIP3    H158754   2.019   0.872  17.079 -0.9956  0.5142  1.6220
12421TIP3    H258755   2.169   0.862  17.064 -1.1616  0.5104 -0.3165
12422TIP3   OH258756   6.347   0.153   2.722  0.7720 -0.4686 -0.2152
12422TIP3    H158757   6.380   0.241   2.741  1.8465 -0.6966 -0.9097
12422TIP3    H258758   6.263   0.148   2.767  0.7557  0.8679 -0.0748
12423TIP3   OH258759   3.818   6.156  17.199 -0.8238  0.0041  0.0255
12423TIP3    H158760   3.814   6.094  17.272 -0.5521 -1.6870 -1.3373
12423TIP3    H258761   3.888   6.217  17.223 -1.8384  0.5384  1.9023
12424TIP3   OH258762   4.753   3.567   1.004 -0.2816 -0.8611  0.3571
12424TIP3    H158763   4.826   3.586   0.945  0.0036 -0.5384  0.8141
12424TIP3    H258764   4.693   3.515   0.950 -1.5646  2.0754 -1.2272
12425TIP3   OH258765   4.419   6.143   4.324 -0.2036  0.1318  0.7742
12425TIP3    H158766   4.337   6.180   4.293 -0.1270 -0.8314 -0.6736
12425TIP3    H258767   4.471   6.220   4.350 -0.7896  0.9019 -0.2478
12426TIP3   OH258768   0.824   4.614   1.741 -0.0128 -0.0930  0.2029
12426TIP3    H158769   0.810   4.533   1.790  0.4841 -0.3623 -0.0891
12426TIP3    H258770   0.757   4.674   1.774  1.5966  0.4344  2.7440
12427TIP3   OH258771   2.655   6.653  13.914 -0.1185 -0.3827 -0.3253
12427TIP3    H158772   2.678   6.560  13.916  0.8843 -0.2300 -2.3660
12427TIP3    H258773   2.559   6.653  13.920 -0.0304 -1.3391  2.5573
12428TIP3   OH258774   5.659   5.497  17.285 -0.2340  0.1993 -0.2639
12428TIP3    H158775   5.701   5.413  17.269 -2.3886 -0.8539 -0.8014
12428TIP3    H258776   5.631   5.493  17.377  1.6069  1.3037  0.3956
12429TIP3   OH258777   3.501   3.934   5.448 -0.0067  0.3004 -0.3368
12429TIP3    H158778   3.456   3.934   5.363  0.7392 -0.8266 -0.7635
12429TIP3    H258779   3.444   3.883   5.505  0.7007 -1.1601 -0.8869
12430TIP3   OH258780   5.001   5.543   2.752  0.6345  0.5826  0.2497
12430TIP3    H158781   4.912   5.578   2.756 -0.3488 -1.1638 -2.9762
12430TIP3    H258782   5.048   5.604   2.695  0.6462 -0.0324 -0.4086
12431TIP3   OH258783   4.018   2.501  13.501 -0.5130 -0.7889  0.2371
12431TIP3    H158784   4.111   2.485  13.515 -0.5534 -1.3941 -0.1361
12431TIP3    H258785   3.974   2.445  13.565 -0.6152  1.5061  2.3386
12432TIP3   OH258786   0.746   3.610  16.414 -0.1000  0.5118  0.1812
12432TIP3    H158787   0.726   3.621  16.507  1.6397 -0.7260  0.7538
12432TIP3    H258788   0.831   3.565  16.413 -0.0250  0.6041 -2.0109
12433TIP3   OH258789   3.386   6.449  16.700 -0.2715  0.2582  0.5197
12433TIP3    H158790   3.479   6.466  16.681 -0.2574 -0.8493 -0.5065
12433TIP3    H258791   3.339   6.501  16.635 -0.3157 -0.6201 -0.1611
12434TIP3   OH258792   0.246   5.620   4.823  0.1639  0.5921 -0.1178
12434TIP3    H158793   0.299   5.552   4.781 -0.4549  0.2731 -0.3948
12434TIP3    H258794   0.174   5.635   4.762  0.3001  1.5162 -0.0672
12435TIP3   OH258795   4.455   2.969   6.095 -0.0510 -0.3334 -0.2643
12435TIP3    H158796   4.368   2.957   6.057 -0.3556 -3.5966  1.1239
12435TIP3    H258797   4.452   3.056   6.135 -2.1631  0.2102 -1.4897
12436TIP3   OH258798   2.783   2.903   4.630 -0.1523 -1.0205 -0.2176
12436TIP3    H158799   2.790   2.927   4.538 -0.4166 -2.1845 -0.5582
12436TIP3    H258800   2.868   2.864   4.651  0.1941 -0.0333  0.2632
12437TIP3   OH258801   0.647   0.405   1.790 -0.2384  0.2742  0.3155
12437TIP3    H158802   0.660   0.466   1.717  0.7649  0.5706  0.7185
12437TIP3    H258803   0.552   0.391   1.793 -0.4761  1.6300  0.0506
12438TIP3   OH258804   0.102   1.186   5.025  0.2567  0.1513  0.2204
12438TIP3    H158805   0.107   1.249   5.097 -2.2611  1.9744 -1.0360
12438TIP3    H258806   0.102   1.101   5.068 -0.1268  1.1398  2.3135
12439TIP3   OH258807   2.279   3.288   2.868 -0.4001 -0.2035  1.4245
12439TIP3    H158808   2.364   3.264   2.905 -0.0697  0.2670  1.0025
12439TIP3    H258809   2.244   3.207   2.833 -1.7093 -1.1160  4.6176
12440TIP3   OH258810   6.426   0.072   2.034  0.0858  0.9103 -0.2254
12440TIP3    H158811   6.336   0.087   2.005  0.1740  0.6802 -0.6139
12440TIP3    H258812   6.445   0.147   2.091  0.1714  1.7612 -1.3414
12441TIP3   OH258813   6.721   0.460  14.555  0.5507 -0.7260 -0.1965
12441TIP3    H158814   6.739   0.367  14.541 -0.7196 -1.3389  1.7277
12441TIP3    H258815   6.629   0.462  14.582  0.4483  1.1431 -0.5847
12442TIP3   OH258816   4.191   5.601  10.991  0.0435  0.3858 -0.4609
12442TIP3    H158817   4.286   5.594  10.980 -0.1222 -1.5884 -1.0406
12442TIP3    H258818   4.155   5.564  10.911 -1.2572  2.2385 -0.7946
12443TIP3   OH258819   0.170   0.051  17.300 -0.6082  0.1410  0.2285
12443TIP3    H158820   0.167  -0.016  17.368 -0.9333  1.1467  1.2463
12443TIP3    H258821   0.198   0.005  17.221  1.9780 -0.6765  1.5220
12444TIP3   OH258822   2.734   2.463  12.941 -0.0749  0.5912 -0.1954
12444TIP3    H158823   2.807   2.408  12.913 -1.1280 -1.2911  0.5478
12444TIP3    H258824   2.656   2.414  12.914 -1.0683  1.6205  0.7211
12445TIP3   OH258825   4.998   0.761   1.607  0.7591 -0.1815 -0.1531
12445TIP3    H158826   5.067   0.718   1.557  0.5717 -1.7853  0.9023
12445TIP3    H258827   4.918   0.715   1.582  0.3621  0.3520  0.1199
12446TIP3   OH258828   0.450   4.034  15.664  0.5092 -0.0936  0.4987
12446TIP3    H158829   0.368   4.055  15.708 -0.7013 -1.4721 -0.9615
12446TIP3    H258830   0.470   3.944  15.690 -0.3674 -1.0437 -1.7856
12447TIP3   OH258831   6.035   6.641   0.371  0.6192 -0.0273 -0.4375
12447TIP3    H158832   6.069   6.552   0.369 -0.2562 -0.3996  0.3119
12447TIP3    H258833   5.986   6.646   0.454  0.6423  1.1395 -0.4779
12448TIP3   OH258834   5.160   5.021  15.055  0.7424  0.3392  0.1732
12448TIP3    H158835   5.104   4.943  15.054  0.0671  0.5827  4.1144
12448TIP3    H258836   5.233   4.999  14.998  1.1632 -3.7233  1.9676
12449TIP3   OH258837   0.679   6.314   1.873 -0.7072  0.3782 -0.0279
12449TIP3    H158838   0.679   6.320   1.969  0.9709 -1.6835  0.1687
12449TIP3    H258839   0.652   6.224   1.855  2.3842 -0.4111 -1.2929
12450TIP3   OH258840   5.331   5.003   3.385  0.7243 -0.2274  0.0447
12450TIP3    H158841   5.301   5.081   3.340 -4.8487 -0.8307  1.9452
12450TIP3    H258842   5.337   4.936   3.316 -1.0982  0.3803 -0.7570
12451TIP3   OH258843   2.439   0.072   1.340  0.1430 -0.1255 -0.2119
12451TIP3    H158844   2.493   0.148   1.361 -2.6403  1.7588  0.7670
12451TIP3    H258845   2.375   0.106   1.277 -0.0705 -2.1726 -1.1661
12452TIP3   OH258846   3.671   4.169  12.433 -0.5233 -0.3192 -0.7363
12452TIP3    H158847   3.583   4.204  12.421 -0.3304  0.8191  0.8732
12452TIP3    H258848   3.666   4.118  12.514  0.4206  0.2285 -0.3185
12453TIP3   OH258849   5.733   1.538  16.316  0.6941  0.1438  0.4538
12453TIP3    H158850   5.693   1.500  16.238 -0.5911  0.0704  1.1233
12453TIP3    H258851   5.767   1.464  16.366  0.3400  0.0723  0.5918
12454TIP3   OH258852   6.441   2.218  13.331  0.3792  0.4856 -0.2122
12454TIP3    H158853   6.374   2.281  13.357 -1.9350 -0.6601 -2.8526
12454TIP3    H258854   6.437   2.149  13.397  1.1387  1.7665  1.2636
12455TIP3   OH258855   2.185   0.160   6.226 -0.1395  0.7594 -0.0050
12455TIP3    H158856   2.128   0.178   6.301  0.9198  0.8553  0.7931
12455TIP3    H258857   2.243   0.091   6.255 -0.4540 -0.0239 -1.1484
12456TIP3   OH258858   3.881   5.485  16.618 -0.3122 -0.8255  0.0733
12456TIP3    H158859   3.932   5.450  16.691  0.9496  0.3773 -0.1857
12456TIP3    H258860   3.929   5.456  16.540  0.8135  1.4006 -0.1474
12457TIP3   OH258861   1.715   4.996  13.978  0.4974  0.0391 -0.0711
12457TIP3    H158862   1.782   5.052  14.017  1.1172  0.3429 -1.5034
12457TIP3    H258863   1.632   5.036  14.005  0.9030  0.3497  0.7462
12458TIP3   OH258864   5.503   2.696  10.410 -0.0566 -0.0869 -0.0604
12458TIP3    H158865   5.541   2.640  10.478 -0.9998 -0.8373 -0.1220
12458TIP3    H258866   5.578   2.741  10.371  0.4841  0.6073  1.6652
12459TIP3   OH258867   5.104   4.368   4.279 -0.5374  0.1878 -0.0753
12459TIP3    H158868   5.159   4.445   4.271 -0.4333  0.2333  0.9164
12459TIP3    H258869   5.165   4.294   4.273 -0.5137  0.2057 -0.0509
12460TIP3   OH258870   6.529   4.240   5.602  0.0972 -0.3166  0.1485
12460TIP3    H158871   6.510   4.329   5.572  0.3267 -0.8032 -1.5827
12460TIP3    H258872   6.624   4.237   5.611 -0.0560  0.2606  2.5394
12461TIP3   OH258873   5.998   5.065  11.208 -0.1772  0.0410 -0.0172
12461TIP3    H158874   6.013   4.986  11.261 -0.5304 -0.2649 -0.3677
12461TIP3    H258875   5.993   5.136  11.273  0.1907 -0.2146  0.2966
12462TIP3   OH258876   1.789   6.611   6.214  0.1154 -0.7911  0.3445
12462TIP3    H158877   1.708   6.562   6.201 -0.2307 -0.5030  1.3254
12462TIP3    H258878   1.761   6.700   6.232  0.6004 -0.8708  1.6037
12463TIP3   OH258879   1.098   5.263   4.331 -0.0806 -0.2547  0.3805
12463TIP3    H158880   1.122   5.345   4.287  0.4653 -0.7254 -0.2134
12463TIP3    H258881   1.075   5.203   4.261 -1.3574 -0.3514  0.8611
12464TIP3   OH258882   4.303   0.030  14.420 -0.0006 -0.0877 -0.1565
12464TIP3    H158883   4.359   0.061  14.349 -0.3735  1.0982  0.0451
12464TIP3    H258884   4.215   0.057  14.396 -0.2332 -0.3423  0.3853
12465TIP3   OH258885   0.258   1.815   3.529  0.2927 -0.4429  0.1519
12465TIP3    H158886   0.256   1.819   3.624  2.2661 -2.4960  0.3636
12465TIP3    H258887   0.295   1.729   3.509 -0.0286 -0.0534 -2.4780
12466TIP3   OH258888   4.746   2.779   5.112  0.5980 -0.2468  0.0264
12466TIP3    H158889   4.688   2.779   5.188  0.1541  0.0154 -0.3070
12466TIP3    H258890   4.744   2.869   5.080  1.9479  0.0019  0.5749
12467TIP3   OH258891   4.675   2.126   2.596  0.2229  0.0201  0.2411
12467TIP3    H158892   4.709   2.048   2.552 -2.6194 -1.3772  0.3126
12467TIP3    H258893   4.730   2.197   2.564  1.8980 -1.7451 -1.0796
12468TIP3   OH258894   2.057   6.350   0.268 -0.1476  0.8176 -0.5493
12468TIP3    H158895   2.066   6.445   0.257  2.1271  0.7368  0.0445
12468TIP3    H258896   2.120   6.312   0.207  0.0419 -0.2355  0.2656
12469TIP3   OH258897   4.708   5.493   0.330  0.1431  0.1751 -0.0446
12469TIP3    H158898   4.733   5.403   0.310  1.3523  0.8256 -1.6255
12469TIP3    H258899   4.617   5.501   0.300  0.0626 -0.4744  0.0260
12470TIP3   OH258900   5.947   6.081   4.054  0.4465 -0.1245 -0.2096
12470TIP3    H158901   6.020   6.031   4.016 -0.6853 -3.0472  1.1874
12470TIP3    H258902   5.934   6.043   4.140 -2.1307  0.9505 -0.0416
12471TIP3   OH258903   5.861   4.260  14.133  0.0215  0.4304 -0.2135
12471TIP3    H158904   5.895   4.267  14.044  1.7265 -0.8237  0.2842
12471TIP3    H258905   5.770   4.233  14.122 -0.0640  1.2025 -1.5740
12472TIP3   OH258906   2.480   5.440   3.840  0.3138  0.8063 -0.2076
12472TIP3    H158907   2.468   5.502   3.912  0.4034 -1.2910  1.7031
12472TIP3    H258908   2.574   5.421   3.840  0.2058  0.2575 -0.4015
12473TIP3   OH258909   3.195   4.129   4.601 -0.3934  0.6045  0.4843
12473TIP3    H158910   3.125   4.159   4.659 -1.1765  0.0514 -0.1464
12473TIP3    H258911   3.234   4.209   4.566 -0.2709  0.9308  1.3464
12474TIP3   OH258912   2.335   6.591   2.256 -0.3939 -0.3063 -0.4912
12474TIP3    H158913   2.394   6.659   2.223 -0.6462 -0.4060 -1.1815
12474TIP3    H258914   2.385   6.546   2.323  1.0546 -1.5991 -2.3221
12475TIP3   OH258915   3.149   5.898   3.939  0.6631 -0.3756  0.2181
12475TIP3    H158916   3.110   5.968   3.887  0.7388 -0.5399 -0.0622
12475TIP3    H258917   3.086   5.882   4.009 -0.1953 -1.2355 -0.7274
12476TIP3   OH258918   2.294   5.685  13.240 -0.5472  0.1527  0.3159
12476TIP3    H158919   2.303   5.754  13.174  2.9716  0.0294  0.5255
12476TIP3    H258920   2.328   5.724  13.321 -2.1999 -0.6175  1.4605
12477TIP3   OH258921   0.688   4.726  10.705  0.0570  0.1385  0.0184
12477TIP3    H158922   0.763   4.712  10.762 -0.8752 -0.1848  1.1958
12477TIP3    H258923   0.718   4.696  10.619  1.8444  1.6527  0.0565
12478TIP3   OH258924   0.999   1.368  14.807  0.0878 -0.0579 -0.6934
12478TIP3    H158925   0.965   1.338  14.722  0.2920  1.3326 -1.2939
12478TIP3    H258926   1.030   1.457  14.790 -2.1258  1.2323  1.3835
12479TIP3   OH258927   5.947   5.642   3.905  0.2690  0.2913 -0.0994
12479TIP3    H158928   5.913   5.568   3.954 -2.2682  1.6628  0.3455
12479TIP3    H258929   5.942   5.716   3.965  2.4092  0.9796 -0.6484
12480TIP3   OH258930   6.224   3.515   5.101 -0.5035  0.5815 -0.2478
12480TIP3    H158931   6.251   3.434   5.145 -0.8146  0.5419 -0.1277
12480TIP3    H258932   6.136   3.533   5.135 -0.5464  0.8204 -0.4792
12481TIP3   OH258933   5.056   0.147   1.225 -0.5739  0.3646 -0.4906
12481TIP3    H158934   5.045   0.158   1.319 -0.9705  0.3179 -0.5266
12481TIP3    H258935   5.023   0.059   1.207 -0.3741  0.3221 -0.6529
12482TIP3   OH258936   6.293   3.978  13.122  0.2333 -0.6827  0.4120
12482TIP3    H158937   6.287   3.883  13.111 -0.1598 -0.3395 -4.6441
12482TIP3    H258938   6.381   3.993  13.156  0.9623 -2.8117 -0.4188
12483TIP3   OH258939   3.671   1.353  11.994  0.8491  0.4589 -0.3402
12483TIP3    H158940   3.630   1.284  11.942  2.9055  0.4564 -2.0874
12483TIP3    H258941   3.668   1.430  11.938  1.4619  0.9661  0.3050
12484TIP3   OH258942   3.583   3.207   2.739  0.0178  0.0182 -0.0615
12484TIP3    H158943   3.593   3.139   2.673 -2.3889 -0.3534 -0.1236
12484TIP3    H258944   3.506   3.257   2.712  1.5967  2.7234  0.0771
12485TIP3   OH258945   0.982   3.901  16.573  0.3133  0.2005 -0.4027
12485TIP3    H158946   1.004   3.890  16.481 -0.1648 -0.2262 -0.4739
12485TIP3    H258947   0.995   3.814  16.612 -0.3328  0.1551 -0.2631
12486TIP3   OH258948   1.088   6.048  12.039 -0.5134  0.0549  0.2117
12486TIP3    H158949   1.069   6.052  12.132 -0.4940 -0.4758  0.2412
12486TIP3    H258950   1.023   6.105  11.998 -0.0393  0.8925  0.6191
12487TIP3   OH258951   6.090   1.591   3.268 -0.8484  0.3037 -0.0610
12487TIP3    H158952   6.067   1.641   3.346 -1.9687  1.4533 -1.1002
12487TIP3    H258953   6.034   1.513   3.273 -0.1440 -0.1745  0.8047
12488TIP3   OH258954   6.238   4.590   4.510  0.1727  0.2834  0.2615
12488TIP3    H158955   6.295   4.589   4.587  0.2136  0.2089  0.2306
12488TIP3    H258956   6.277   4.655   4.452 -0.8566  1.6926  1.0585
12489TIP3   OH258957   6.732   4.501  16.777  0.0460 -0.2701  0.4004
12489TIP3    H158958   6.745   4.513  16.871  0.7446 -0.6904  0.3607
12489TIP3    H258959   6.796   4.559  16.736 -0.3278 -0.0072  0.1732
12490TIP3   OH258960   4.515   1.871  12.420  0.8758  0.4336 -0.4062
12490TIP3    H158961   4.524   1.892  12.327 -0.6921  1.2107 -0.4258
12490TIP3    H258962   4.557   1.786  12.431  3.3597  1.4748 -1.2897
12491TIP3   OH258963   6.752   6.681  13.969  0.4073  0.0867 -0.7123
12491TIP3    H158964   6.845   6.677  13.947  0.3110  1.0447 -1.3408
12491TIP3    H258965   6.726   6.771  13.949 -0.0074  0.6812  2.1425
12492TIP3   OH258966   5.399   4.051   1.303  0.3059 -0.0030 -0.3646
12492TIP3    H158967   5.477   4.103   1.281  0.1091  0.7531  0.6297
12492TIP3    H258968   5.417   3.964   1.267  2.6518 -0.5366  1.7628
12493TIP3   OH258969   5.653   0.303  11.959  0.0135  1.0047  0.6742
12493TIP3    H158970   5.598   0.225  11.955 -0.7096  1.3843  2.3215
12493TIP3    H258971   5.616   0.362  11.892 -1.1698  0.9828  1.2867
12494TIP3   OH258972   5.181   3.445  13.931 -0.5959  0.0667  0.1254
12494TIP3    H158973   5.115   3.498  13.886 -2.6811 -0.6742  2.0847
12494TIP3    H258974   5.251   3.507  13.953 -1.6473  1.3742 -0.1006
12495TIP3   OH258975   1.033   6.432   2.111 -0.2577  0.2212 -0.1456
12495TIP3    H158976   1.020   6.351   2.063 -0.9165  0.5494 -0.5316
12495TIP3    H258977   0.973   6.495   2.071  0.7892  1.1250 -0.3664
12496TIP3   OH258978   6.449   5.510  11.709  0.0054  1.0268  0.4743
12496TIP3    H158979   6.440   5.597  11.670  0.5699  0.8532 -0.0716
12496TIP3    H258980   6.543   5.495  11.710 -0.1317  0.0024 -0.4097
12497TIP3   OH258981   5.862   1.323  16.464  0.0057  0.0305 -0.3358
12497TIP3    H158982   5.860   1.274  16.546  1.6311  1.1981  0.4702
12497TIP3    H258983   5.953   1.318  16.435 -0.2821  0.6647 -1.4130
12498TIP3   OH258984   2.379   6.210  13.138  0.2323  1.0619  0.1006
12498TIP3    H158985   2.462   6.190  13.182  1.2866  0.4959 -2.0056
12498TIP3    H258986   2.405   6.246  13.053 -1.6177 -0.6278 -1.2961
12499TIP3   OH258987   2.059   2.122  15.363  0.2429  0.3416 -0.0634
12499TIP3    H158988   1.988   2.068  15.328 -0.7640  1.2308  0.5224
12499TIP3    H258989   2.110   2.147  15.287  1.0820 -1.8625 -0.2968
12500TIP3   OH258990   1.859   1.309   3.352 -0.4556 -0.0241 -0.5210
12500TIP3    H158991   1.861   1.326   3.258  0.3516  1.4977 -0.2593
12500TIP3    H258992   1.883   1.392   3.392  1.3828 -1.1818  0.9626
12501TIP3   OH258993   2.422   6.004  15.819 -0.5256 -0.4834  0.4273
12501TIP3    H158994   2.427   5.972  15.729  0.8442 -2.3912  1.1088
12501TIP3    H258995   2.447   6.097  15.813 -0.1348 -0.6547 -1.1116
12502TIP3   OH258996   2.440   6.312   0.415  0.0802 -0.4172  0.0550
12502TIP3    H158997   2.399   6.350   0.337  1.8407 -1.0226 -1.2304
12502TIP3    H258998   2.473   6.227   0.385  0.0862 -1.0111  1.6928
12503TIP3   OH258999   3.986   4.483   2.563  0.1822 -0.0878 -0.0642
12503TIP3    H159000   3.948   4.397   2.547 -1.3582 -0.1160  3.0315
12503TIP3    H259001   4.030   4.475   2.647  1.0311  1.8517 -0.2767
12504TIP3   OH259002   4.755   5.190   1.875  0.3384 -0.1154 -0.1076
12504TIP3    H159003   4.662   5.189   1.896  0.6910 -0.6509  1.6398
12504TIP3    H259004   4.765   5.125   1.806 -0.3779 -1.3550  0.8960
12505TIP3   OH259005   4.637   3.899   0.421 -0.1174  0.9031  0.3414
12505TIP3    H159006   4.647   3.962   0.493 -1.8549  0.8465  0.6640
12505TIP3    H259007   4.720   3.851   0.420 -0.7499 -0.5296  3.6826
12506TIP3   OH259008   3.854   4.995   0.331  0.4398 -0.3480  0.5722
12506TIP3    H159009   3.874   4.925   0.269 -2.1966 -0.3446 -0.4143
12506TIP3    H259010   3.938   5.019   0.369  1.8731 -1.7186 -1.5609
12507TIP3   OH259011   3.770   3.639  12.717  0.4099  0.8819 -0.1609
12507TIP3    H159012   3.675   3.649  12.721  0.5572  2.6891 -0.4125
12507TIP3    H259013   3.804   3.727  12.734  2.0754  0.0929  0.8616
12508TIP3   OH259014   3.873   4.729   4.568  0.7969  0.1880  0.0680
12508TIP3    H159015   3.848   4.808   4.521  1.8785 -0.1157 -1.0847
12508TIP3    H259016   3.944   4.691   4.515  0.2755 -1.5695  0.5651
12509TIP3   OH259017   0.369   5.890  14.583  0.4942 -0.1872 -0.0727
12509TIP3    H159018   0.327   5.815  14.540  0.0740 -0.1626  0.2820
12509TIP3    H259019   0.461   5.884  14.558  0.9365 -2.1007  1.6588
12510TIP3   OH259020   2.169   1.663   4.195  0.4653  0.6340 -0.1620
12510TIP3    H159021   2.130   1.730   4.138  2.6279  0.3614 -2.1394
12510TIP3    H259022   2.119   1.584   4.176 -1.1949  1.3145  1.1330
12511TIP3   OH259023   6.663   3.412   4.039  0.2987  0.1349  0.3808
12511TIP3    H159024   6.743   3.451   4.004 -0.4812  1.5035  0.0693
12511TIP3    H259025   6.692   3.329   4.078  1.5017 -0.4982 -1.7327
12512TIP3   OH259026   6.628   1.723  16.782  0.0221  0.1462  0.3875
12512TIP3    H159027   6.621   1.636  16.821 -0.8008 -0.3656 -0.8328
12512TIP3    H259028   6.567   1.778  16.831 -0.1695 -0.2070  0.5435
12513TIP3   OH259029   0.087   0.846  12.962  0.5964  0.0678 -0.6043
12513TIP3    H159030   0.172   0.866  13.000 -0.9658  3.4330  1.6520
12513TIP3    H259031   0.071   0.916  12.899 -0.8691  0.0747 -0.2678
12514TIP3   OH259032   0.465   0.769   1.713 -0.0076 -0.2318 -0.0107
12514TIP3    H159033   0.448   0.754   1.806  1.6250  0.0919  0.3773
12514TIP3    H259034   0.379   0.769   1.672 -0.8648  0.8430  1.6806
12515TIP3   OH259035   2.550   3.534  15.964 -0.5706  0.0854 -0.0343
12515TIP3    H159036   2.618   3.602  15.958 -1.2087  0.6401 -1.4119
12515TIP3    H259037   2.520   3.538  16.054 -1.1494  2.2328 -0.2521
12516TIP3   OH259038   3.314   5.497   2.174 -0.4067 -0.1261 -0.3139
12516TIP3    H159039   3.379   5.567   2.180 -0.9356  0.5961 -2.2145
12516TIP3    H259040   3.233   5.537   2.203 -0.1434 -0.8886  1.5905
12517TIP3   OH259041   5.983   2.230  16.366  0.4308 -0.0212 -0.4760
12517TIP3    H159042   5.911   2.177  16.333  0.5694  0.4256 -1.5656
12517TIP3    H259043   5.966   2.240  16.459  0.6100 -2.2884 -0.1459
12518TIP3   OH259044   4.818   3.475   6.559 -1.0473 -0.1651 -0.0363
12518TIP3    H159045   4.898   3.502   6.515 -1.8147 -0.5991 -1.7889
12518TIP3    H259046   4.817   3.525   6.640  0.1117  1.1534 -0.8019
12519TIP3   OH259047   0.277   2.959   0.493  0.5338 -0.0178 -0.4338
12519TIP3    H159048   0.291   2.877   0.444 -1.2736 -0.8147  0.2717
12519TIP3    H259049   0.278   2.932   0.585 -0.0770  0.7524 -0.1916
12520TIP3   OH259050   2.854   3.130  11.840  0.0815  0.1803 -0.1646
12520TIP3    H159051   2.806   3.212  11.856  1.0120  1.0166 -1.5253
12520TIP3    H259052   2.807   3.065  11.893 -0.0447  1.7655  1.8146
12521TIP3   OH259053   4.012   1.318   3.663 -0.3553  0.4837 -0.3300
12521TIP3    H159054   3.937   1.345   3.610 -1.6098  0.6591  1.4693
12521TIP3    H259055   3.979   1.315   3.752  1.4719 -0.6817  0.3569
12522TIP3   OH259056   4.273   4.088   4.926  0.4941  0.1029  0.1341
12522TIP3    H159057   4.310   4.058   5.009  0.7997 -1.8529 -0.6580
12522TIP3    H259058   4.186   4.122   4.950  0.6441 -0.2486  1.2745
12523TIP3   OH259059   2.301   2.003   0.525  0.0529 -0.2662  0.4105
12523TIP3    H159060   2.324   1.952   0.447 -2.0648 -0.3958 -0.1957
12523TIP3    H259061   2.297   2.094   0.494 -1.3393 -0.3765  0.1706
12524TIP3   OH259062   6.494   5.101   5.802 -0.3218 -0.5237 -0.0121
12524TIP3    H159063   6.473   5.062   5.717  2.6783 -0.1253 -1.0291
12524TIP3    H259064   6.523   5.027   5.855  0.7975 -0.3684 -0.3868
12525TIP3   OH259065   4.367   3.351   3.134  0.2193  0.2458 -0.1184
12525TIP3    H159066   4.289   3.350   3.079  2.4465 -0.9212 -3.5651
12525TIP3    H259067   4.391   3.259   3.143  1.3457  0.5999  0.6821
12526TIP3   OH259068   3.085   1.773   4.896  0.4085 -0.3812 -0.4372
12526TIP3    H159069   3.033   1.738   4.823 -0.0597  1.3484 -1.0061
12526TIP3    H259070   3.161   1.715   4.902 -0.5072 -1.6829 -1.0384
12527TIP3   OH259071   2.169   5.511  14.044  0.0263 -0.5273  0.3731
12527TIP3    H159072   2.126   5.565  14.111  1.6088  1.7717 -0.3272
12527TIP3    H259073   2.114   5.434  14.037  0.0887 -1.2748  4.8049
12528TIP3   OH259074   0.142   3.556  15.605  0.0342  0.2183  0.0049
12528TIP3    H159075   0.082   3.603  15.548 -0.7630 -0.8260 -0.0552
12528TIP3    H259076   0.229   3.579  15.573 -0.3398  1.3734 -0.2166
12529TIP3   OH259077   6.370   6.756  12.196  0.4708 -0.0059 -0.1144
12529TIP3    H159078   6.448   6.740  12.143  1.2640  0.4666  0.8916
12529TIP3    H259079   6.384   6.704  12.275  1.0375  2.1171  1.2654
12530TIP3   OH259080   1.135   0.582   0.840  0.6150  0.0952 -0.7632
12530TIP3    H159081   1.142   0.551   0.930 -0.5947  1.2356 -0.2482
12530TIP3    H259082   1.210   0.543   0.795  2.2775  0.9428  1.1421
12531TIP3   OH259083   5.377   0.712  17.008  0.2522  0.6260  0.0705
12531TIP3    H159084   5.323   0.678  17.079  1.2755  0.7736  0.9414
12531TIP3    H259085   5.360   0.653  16.935 -0.7219  0.3944  0.4665
12532TIP3   OH259086   0.444   5.620  16.233 -0.0244 -0.2345  0.8740
12532TIP3    H159087   0.515   5.648  16.290 -0.4081  1.2751  0.6632
12532TIP3    H259088   0.432   5.693  16.172 -1.1978 -0.8030  0.3874
12533TIP3   OH259089   4.124   1.770  12.259  0.1173 -0.0488  0.3152
12533TIP3    H159090   4.219   1.772  12.270 -0.0589  1.3215  2.1360
12533TIP3    H259091   4.108   1.698  12.198  2.2492 -0.9702  0.7581
12534TIP3   OH259092   6.252   3.910  13.425  0.1063  0.5939  0.1184
12534TIP3    H159093   6.193   3.847  13.383  0.5716 -0.1896  0.6081
12534TIP3    H259094   6.195   3.961  13.482 -0.4523  1.3425 -1.0578
12535TIP3   OH259095   6.631   0.074  12.385 -0.0435  0.0109 -0.0168
12535TIP3    H159096   6.545   0.112  12.402 -0.0110  0.8617 -1.5468
12535TIP3    H259097   6.672   0.134  12.323  0.7340 -1.5583 -1.1047
12536TIP3   OH259098   2.726   1.901   5.885 -0.3491  0.8122 -0.0873
12536TIP3    H159099   2.766   1.985   5.866  0.3600  0.2834 -1.0402
12536TIP3    H259100   2.799   1.839   5.884 -0.9531  0.0857 -0.0855
12537TIP3   OH259101   4.733   5.618   6.050  0.6603  0.4141  0.2943
12537TIP3    H159102   4.751   5.593   6.141 -2.0066  0.4394  0.8924
12537TIP3    H259103   4.655   5.569   6.027 -0.4171  2.5993 -0.9839
12538TIP3   OH259104   5.318   0.531   2.755  0.6347 -0.2640  0.2143
12538TIP3    H159105   5.323   0.461   2.820 -0.2135 -1.4380 -0.9461
12538TIP3    H259106   5.409   0.559   2.743  0.6979  1.3708  3.2869
12539TIP3   OH259107   5.573   3.580   5.625  0.2418 -0.3747  0.1445
12539TIP3    H159108   5.573   3.647   5.557  0.6686 -2.5886 -2.2283
12539TIP3    H259109   5.652   3.596   5.675  0.6137  0.5635 -0.7052
12540TIP3   OH259110   4.824   2.160   5.620 -0.5020  0.0280  0.2507
12540TIP3    H159111   4.846   2.232   5.679 -0.3761 -0.6318  1.0204
12540TIP3    H259112   4.900   2.152   5.562 -0.2404  0.0849  0.5892
12541TIP3   OH259113   2.769   4.613   3.030  0.1733  0.0864 -0.3842
12541TIP3    H159114   2.721   4.673   3.088  0.1742 -0.0706 -0.2211
12541TIP3    H259115   2.717   4.533   3.030 -1.0690  0.8127 -2.3858
12542TIP3   OH259116   0.062   6.008   2.818 -0.4294 -0.1096  0.4370
12542TIP3    H159117   0.088   5.980   2.905  0.9736 -0.3015 -0.0105
12542TIP3    H259118   0.018   5.931   2.780  2.9471 -1.7227 -0.6030
12543TIP3   OH259119   6.059   2.445  13.191  0.0284 -0.3966  0.6267
12543TIP3    H159120   6.060   2.461  13.096  0.0909  0.0387  0.6985
12543TIP3    H259121   6.002   2.369  13.201  0.8118 -1.0640  0.1484
12544TIP3   OH259122   1.016   3.943  16.929 -0.8688 -0.3240  0.5571
12544TIP3    H159123   1.069   3.874  16.890  2.3758  0.9504  2.2772
12544TIP3    H259124   0.949   3.897  16.979  0.8202 -2.2641  1.1514
12545TIP3   OH259125   1.047   1.823  16.785  0.2092 -0.1142  0.6219
12545TIP3    H159126   0.991   1.748  16.806 -1.2695  0.5205 -0.8206
12545TIP3    H259127   1.085   1.849  16.869  0.1329 -1.9562  1.2779
12546TIP3   OH259128   3.614   4.021   5.861 -0.3194  0.5588 -0.3872
12546TIP3    H159129   3.601   3.928   5.879  0.8916  0.4158 -0.1957
12546TIP3    H259130   3.561   4.066   5.927  0.5141  0.0141  0.6805
12547TIP3   OH259131   0.317   1.610  14.952 -0.5698 -0.7683  0.0497
12547TIP3    H159132   0.265   1.588  15.029  2.7032 -0.4308  2.5646
12547TIP3    H259133   0.318   1.530  14.900 -2.7906 -1.0363  0.3071
12548TIP3   OH259134   2.497   2.940  14.147  0.0840 -0.3161 -0.7770
12548TIP3    H159135   2.430   2.876  14.125 -0.1974  0.1993 -1.4728
12548TIP3    H259136   2.469   2.975  14.232 -2.0779  1.8079 -2.2070
12549TIP3   OH259137   4.810   5.487  15.082 -0.2420  0.0199  0.2070
12549TIP3    H159138   4.800   5.415  15.145 -1.3932 -0.3413 -0.3581
12549TIP3    H259139   4.766   5.561  15.124 -2.0759 -0.5378 -0.6360
12550TIP3   OH259140   4.255   1.625   4.104  0.3485 -0.9157 -0.1909
12550TIP3    H159141   4.326   1.567   4.073 -0.0376 -1.9009  0.6991
12550TIP3    H259142   4.195   1.631   4.029  0.2307 -1.9546 -0.2066
12551TIP3   OH259143   2.349   0.798  12.300  0.1698 -0.3874 -0.0126
12551TIP3    H159144   2.430   0.754  12.325  0.2575  0.8046  1.9858
12551TIP3    H259145   2.377   0.872  12.247  0.2076 -1.1572 -1.0995
12552TIP3   OH259146   6.347   2.226   5.797 -0.5303  0.3636  1.4454
12552TIP3    H159147   6.435   2.225   5.835 -0.9653  1.9987  2.5827
12552TIP3    H259148   6.289   2.206   5.871 -1.1744  0.2362  0.9087
12553TIP3   OH259149   0.791   1.997  14.565 -0.4857 -0.0220 -0.9147
12553TIP3    H159150   0.706   1.969  14.597 -0.3851 -0.5483 -1.1048
12553TIP3    H259151   0.787   1.984  14.470  0.0988 -0.8512 -0.8367
12554TIP3   OH259152   6.333   2.052   3.712 -0.2446  0.3913  0.1733
12554TIP3    H159153   6.333   2.007   3.628 -0.8774  0.8391 -0.0729
12554TIP3    H259154   6.416   2.027   3.752 -0.4110 -0.6919 -0.1131
12555TIP3   OH259155   5.333   3.456   4.759 -0.2115  0.1427 -0.0384
12555TIP3    H159156   5.382   3.379   4.728  2.6211  1.7011  0.1756
12555TIP3    H259157   5.337   3.451   4.854 -0.0244  0.5260 -0.0226
12556TIP3   OH259158   5.265   4.203  13.643  0.1760  0.5501 -0.1102
12556TIP3    H159159   5.180   4.212  13.685  0.2233  0.2953  0.0421
12556TIP3    H259160   5.295   4.293  13.628 -0.1417  0.6385 -0.2142
12557TIP3   OH259161   1.230   2.782   1.914 -0.0616 -0.9119  0.0437
12557TIP3    H159162   1.218   2.858   1.971  1.6100 -0.6623  0.0852
12557TIP3    H259163   1.176   2.802   1.837 -0.1291  0.0306  0.3220
12558TIP3   OH259164   5.585   1.936   3.054 -0.1624  0.5879 -0.2024
12558TIP3    H159165   5.583   2.011   2.994  0.7747  0.7175 -0.0782
12558TIP3    H259166   5.535   1.868   3.008 -0.5260  1.0944 -0.5732
12559TIP3   OH259167   1.052   6.010  11.351  0.3268 -0.0377  0.8130
12559TIP3    H159168   1.087   5.947  11.288 -0.9361  1.1674 -1.2010
12559TIP3    H259169   0.988   5.959  11.402  0.4911 -0.7470  0.3222
12560TIP3   OH259170   0.604   0.020  12.664 -0.0745  0.1398 -0.0509
12560TIP3    H159171   0.571  -0.060  12.704  0.8962 -0.9653 -1.3552
12560TIP3    H259172   0.652   0.064  12.734 -0.0443 -0.7577  0.5049
12561TIP3   OH259173   1.233   3.781   2.418  0.4254 -0.6891  0.5993
12561TIP3    H159174   1.257   3.842   2.348 -0.5545 -0.6074  0.3146
12561TIP3    H259175   1.312   3.730   2.433  1.4266  0.9672  1.1960
12562TIP3   OH259176   5.030   1.592  10.699 -0.3875  0.0188  0.7318
12562TIP3    H159177   5.000   1.682  10.714  0.8943  0.6538 -0.2574
12562TIP3    H259178   5.125   1.600  10.689 -0.1707 -1.5498  1.2496
12563TIP3   OH259179   1.527   6.156  16.419 -0.0858 -0.4920  0.5506
12563TIP3    H159180   1.555   6.204  16.497 -0.4878  0.6758  0.0042
12563TIP3    H259181   1.462   6.094  16.451 -1.0773  0.7294  1.0145
12564TIP3   OH259182   4.872   1.255  13.609 -0.2059  0.2044  0.1835
12564TIP3    H159183   4.908   1.223  13.692  1.7736  0.2362 -0.6203
12564TIP3    H259184   4.838   1.176  13.567 -0.8078  0.1175  0.8034
12565TIP3   OH259185   2.744   3.526   1.039  0.0596  0.2332  0.3415
12565TIP3    H159186   2.777   3.576   0.964 -0.5642 -0.1489 -0.2006
12565TIP3    H259187   2.703   3.592   1.096  1.4808  0.6690  0.8837
12566TIP3   OH259188   0.423   0.670   0.856 -0.2914 -0.5011  0.3278
12566TIP3    H159189   0.423   0.629   0.943  0.0635 -0.8532  0.1664
12566TIP3    H259190   0.397   0.599   0.796  0.0052 -0.4066  0.0833
12567TIP3   OH259191   1.755   1.726  17.181  0.8933  0.2323  0.1228
12567TIP3    H159192   1.687   1.661  17.197  1.0632 -0.2479 -1.0660
12567TIP3    H259193   1.837   1.683  17.206  1.3771 -1.1522 -3.3894
12568TIP3   OH259194   6.709   5.359  14.002 -0.1838  0.4172  0.3053
12568TIP3    H159195   6.615   5.366  14.013 -0.4552 -1.2458 -0.5112
12568TIP3    H259196   6.725   5.382  13.911  0.5925  3.2837  1.0725
12569TIP3   OH259197   1.543   0.755  15.774  0.0738  0.3029  0.3283
12569TIP3    H159198   1.555   0.763  15.869  0.3250 -1.3885  0.4856
12569TIP3    H259199   1.472   0.691  15.765 -1.3831  1.9881 -0.6455
12570TIP3   OH259200   2.381   5.345   1.197  0.4415 -0.9724  0.1916
12570TIP3    H159201   2.445   5.296   1.249  0.0204 -1.7956 -0.0459
12570TIP3    H259202   2.346   5.411   1.258 -0.8040 -2.5782  1.3007
12571TIP3   OH259203   2.252   6.267  12.441  0.2203  0.0321  0.2502
12571TIP3    H159204   2.322   6.225  12.391  0.0637  0.6533 -0.5214
12571TIP3    H259205   2.174   6.258  12.386  0.2462  1.5669 -0.1008
12572TIP3   OH259206   1.891   3.294  12.188 -0.4336  0.5089  0.4625
12572TIP3    H159207   1.925   3.223  12.242 -1.3322 -1.2278 -1.1256
12572TIP3    H259208   1.802   3.265  12.166 -0.0661  1.0893 -1.9708
12573TIP3   OH259209   4.166   5.800  14.016  0.6546  0.4991 -0.6266
12573TIP3    H159210   4.156   5.893  13.996 -0.0986  1.2418  2.7001
12573TIP3    H259211   4.254   5.792  14.053 -0.7574  0.9142  3.2689
12574TIP3   OH259212   6.370   1.073   4.291 -0.0130 -0.0345 -0.4823
12574TIP3    H159213   6.294   1.129   4.307 -1.2373 -2.0003  0.9734
12574TIP3    H259214   6.362   1.047   4.199 -1.6527 -0.9693 -0.0934
12575TIP3   OH259215   5.293   3.672  15.988  0.8260  0.7714 -0.4361
12575TIP3    H159216   5.374   3.694  16.034  0.2839 -0.1678  1.0269
12575TIP3    H259217   5.282   3.578  16.003 -0.4443  0.8560 -0.7662
12576TIP3   OH259218   4.038   0.257  16.940 -0.1392 -0.2044  0.4200
12576TIP3    H159219   4.017   0.178  16.889 -0.4110  1.1936 -1.8026
12576TIP3    H259220   4.070   0.224  17.023  0.0491 -2.6701 -0.5356
12577TIP3   OH259221   1.502   5.082   3.425  0.2161  0.5451  0.0776
12577TIP3    H159222   1.537   5.166   3.455  0.1969 -0.1885  2.3482
12577TIP3    H259223   1.556   5.016   3.469 -0.4427 -0.6375 -0.8118
12578TIP3   OH259224   6.050   5.464   5.722 -0.1202 -0.3928  0.3629
12578TIP3    H159225   6.117   5.410   5.764 -0.0793 -0.1763  0.5787
12578TIP3    H259226   5.968   5.418   5.739 -0.2277  0.1835  1.5248
12579TIP3   OH259227   3.007   4.658   1.373  0.2090  0.5321 -0.0485
12579TIP3    H159228   3.041   4.744   1.352  0.9726 -0.1246 -1.6924
12579TIP3    H259229   2.915   4.673   1.397 -0.1732  1.6567 -1.9828
12580TIP3   OH259230   6.546   2.356  14.487 -0.3933 -0.7959 -0.5395
12580TIP3    H159231   6.616   2.322  14.542 -2.5241 -0.6510  2.4795
12580TIP3    H259232   6.469   2.304  14.511 -1.4632 -0.8129 -3.5470
12581TIP3   OH259233   4.761   4.828  15.034 -0.3482  0.4775 -0.0560
12581TIP3    H159234   4.708   4.871  14.967 -0.2533  2.1072  0.8498
12581TIP3    H259235   4.706   4.829  15.113 -0.2217 -0.8365  0.0665
12582TIP3   OH259236   6.745   4.076  15.650 -0.1611 -0.1682 -0.7448
12582TIP3    H159237   6.774   4.070  15.559  0.7567  0.1515 -0.4814
12582TIP3    H259238   6.690   4.155  15.652 -1.6988 -1.1672 -1.3987
12583TIP3   OH259239   4.516   5.404  14.246  0.1789 -0.1817  0.0315
12583TIP3    H159240   4.555   5.413  14.159  0.5885  2.8594  0.4275
12583TIP3    H259241   4.448   5.338  14.235  3.0757 -3.1931 -1.4932
12584TIP3   OH259242   3.683   3.958   1.092 -0.3286  0.2009 -0.5642
12584TIP3    H159243   3.643   3.939   1.177 -0.4117  0.1352 -0.6177
12584TIP3    H259244   3.712   4.049   1.099 -0.8319  0.3709 -0.6616
12585TIP3   OH259245   5.517   2.266   5.262  0.6927  0.8982 -0.7178
12585TIP3    H159246   5.469   2.348   5.273  0.0097  0.4243 -0.0303
12585TIP3    H259247   5.576   2.263   5.338 -0.7949 -0.2332  0.4446
12586TIP3   OH259248   4.686   1.148  11.523  0.4712  0.3662 -0.2272
12586TIP3    H159249   4.775   1.113  11.528 -0.4449 -2.3581 -1.2168
12586TIP3    H259250   4.641   1.110  11.598 -0.0941  1.0241 -0.2221
12587TIP3   OH259251   0.656   4.578   4.672  0.3633  0.3138 -0.1805
12587TIP3    H159252   0.608   4.560   4.753  0.7548  0.2397  0.0367
12587TIP3    H259253   0.626   4.665   4.645 -0.7657 -0.2060 -0.6806
12588TIP3   OH259254   6.622   2.989  16.423  0.0060  0.2386  0.1353
12588TIP3    H159255   6.661   2.906  16.451  1.3252  1.1590  1.1825
12588TIP3    H259256   6.571   3.019  16.499 -0.2508  0.5050 -0.1387
12589TIP3   OH259257   3.238   0.048  12.909 -0.3748  0.0985  0.1092
12589TIP3    H159258   3.254   0.018  12.820  1.7232  1.1965  0.0511
12589TIP3    H259259   3.155   0.095  12.904  0.5748  1.7309 -1.7308
12590TIP3   OH259260   2.950   2.760   2.300  0.1904 -0.2033 -0.0850
12590TIP3    H159261   3.001   2.832   2.338  0.4646 -0.6200  0.3482
12590TIP3    H259262   2.931   2.703   2.374 -0.6512 -0.2074 -0.3011
12591TIP3   OH259263   1.695   2.175   0.680  0.5183 -0.1228  0.1281
12591TIP3    H159264   1.645   2.097   0.701  0.2269  0.8288  3.5989
12591TIP3    H259265   1.781   2.160   0.719  0.3146  1.4026  1.2828
12592TIP3   OH259266   4.378   5.766   2.705  0.4860  0.2725  0.8208
12592TIP3    H159267   4.461   5.764   2.656  1.0896  2.0432  1.6841
12592TIP3    H259268   4.345   5.855   2.692 -0.7486 -0.0828  1.3888
12593TIP3   OH259269   3.071   6.234   4.437  0.1662 -0.6954  0.0815
12593TIP3    H159270   3.028   6.301   4.384  1.8040  0.8650  0.6272
12593TIP3    H259271   3.016   6.228   4.516 -0.5962 -0.8250 -0.4459
12594TIP3   OH259272   0.348   6.697  13.647  0.0859  0.0797 -0.5397
12594TIP3    H159273   0.435   6.657  13.653  0.5791  1.3243  2.0825
12594TIP3    H259274   0.302   6.642  13.584  1.3494 -3.4320  1.2670
12595TIP3   OH259275   3.750   0.803   0.825 -0.5991 -0.3830 -0.2317
12595TIP3    H159276   3.738   0.879   0.883 -1.6212  0.1769 -1.1308
12595TIP3    H259277   3.744   0.727   0.883  0.6431  0.2181  0.7201
12596TIP3   OH259278   0.345   2.297   3.277 -0.2886  0.1940  0.2448
12596TIP3    H159279   0.303   2.364   3.332  1.1080  1.8646 -0.6053
12596TIP3    H259280   0.278   2.270   3.215 -0.9044  0.7784  0.6487
12597TIP3   OH259281   1.845   3.955   3.004 -0.3998 -1.0579 -0.4353
12597TIP3    H159282   1.773   3.912   2.959  0.6590 -0.6058 -2.7206
12597TIP3    H259283   1.918   3.893   2.998 -0.2829 -1.0914  0.9369
12598TIP3   OH259284   5.895   1.675   0.652 -0.0180 -0.2721 -0.6717
12598TIP3    H159285   5.889   1.648   0.743  1.4129  2.4812  0.3583
12598TIP3    H259286   5.807   1.707   0.630 -0.2120 -0.3759 -0.0546
12599TIP3   OH259287   4.256   5.919   0.135  0.1920 -0.4029 -0.2218
12599TIP3    H159288   4.324   5.956   0.192  0.2132  0.9761 -1.0841
12599TIP3    H259289   4.304   5.886   0.059 -0.0767  0.5337 -0.8116
12600TIP3   OH259290   5.672   0.754  16.746  0.2558  0.2969  0.0091
12600TIP3    H159291   5.680   0.760  16.651 -0.2388 -1.0268 -0.1402
12600TIP3    H259292   5.699   0.665  16.766  0.8492  0.7215  1.1792
12601TIP3   OH259293   3.418   2.311   4.132 -0.0324  0.6401  0.2818
12601TIP3    H159294   3.415   2.375   4.061 -1.4940 -1.2551 -1.4965
12601TIP3    H259295   3.327   2.303   4.161  0.1441 -0.5048  0.5755
12602TIP3   OH259296   3.450   0.062  11.184 -0.7171 -0.2519  0.1558
12602TIP3    H159297   3.432   0.155  11.196  0.1101 -0.1911  1.0132
12602TIP3    H259298   3.448   0.025  11.273 -3.7403 -1.6075 -0.3270
12603TIP3   OH259299   2.626   0.659   0.041  0.3798  0.1513  0.2890
12603TIP3    H159300   2.599   0.636  -0.048  0.5580 -0.6562  0.4271
12603TIP3    H259301   2.708   0.705   0.030 -1.0462  2.7682 -0.1478
12604TIP3   OH259302   6.749   1.470   4.052  0.0459  0.4546 -0.0927
12604TIP3    H159303   6.658   1.441   4.050 -0.4876  2.0588 -0.6168
12604TIP3    H259304   6.751   1.538   4.120  1.1002 -0.2614  0.6318
12605TIP3   OH259305   3.799   3.232   6.193  0.2142  0.2830  0.0917
12605TIP3    H159306   3.761   3.319   6.185 -0.2055  0.0145 -0.9478
12605TIP3    H259307   3.835   3.214   6.106  0.2188 -0.6166  0.2743
12606TIP3   OH259308   0.065   0.432   5.228 -0.6424  0.4012 -0.0795
12606TIP3    H159309   0.095   0.521   5.246 -1.1523  0.7433 -0.8443
12606TIP3    H259310   0.066   0.389   5.313  1.8769  0.4045 -0.0343
12607TIP3   OH259311   0.283   4.825   2.196  0.1983  0.0775 -0.1239
12607TIP3    H159312   0.300   4.738   2.159 -3.5307 -0.7220 -0.3453
12607TIP3    H259313   0.317   4.885   2.130 -2.3431 -1.3291 -3.0290
12608TIP3   OH259314   3.875   2.247  11.677  0.1712 -0.5359  0.1712
12608TIP3    H159315   3.876   2.283  11.765  1.6441 -0.9654  0.3595
12608TIP3    H259316   3.813   2.174  11.681  0.0002 -0.3595  0.7658
12609TIP3   OH259317   5.785   3.613   5.800  0.0747 -0.1467  0.3833
12609TIP3    H159318   5.750   3.576   5.880 -0.5342  1.8782  1.1118
12609TIP3    H259319   5.880   3.614   5.813  0.2030 -2.2706 -0.0788
12610TIP3   OH259320   4.859   4.013   3.535 -0.6941 -0.2184 -0.2835
12610TIP3    H159321   4.799   4.053   3.472 -1.3574 -0.2661  0.3094
12610TIP3    H259322   4.940   4.000   3.485  0.1838  3.4301 -0.1166
12611TIP3   OH259323   3.549   6.484   4.652  0.3175  0.4968  0.2057
12611TIP3    H159324   3.523   6.538   4.577  2.0410  0.1413 -0.6794
12611TIP3    H259325   3.486   6.412   4.651 -1.8591  2.2530  1.2492
12612TIP3   OH259326   3.286   3.310   3.744  0.5456 -0.8028 -0.1496
12612TIP3    H159327   3.287   3.366   3.667  0.2511 -0.7437 -0.1137
12612TIP3    H259328   3.277   3.370   3.818 -2.0187 -0.9548 -0.2219
12613TIP3   OH259329   2.424   4.131  14.645  0.6993 -0.2533  0.7278
12613TIP3    H159330   2.335   4.130  14.611  1.1541  0.9424 -0.6282
12613TIP3    H259331   2.434   4.217  14.685  0.9863 -0.7051  1.6586
12614TIP3   OH259332   3.547   3.177  11.662 -0.2035 -0.1147 -0.3436
12614TIP3    H159333   3.480   3.215  11.719  0.0277 -0.9978  0.5482
12614TIP3    H259334   3.614   3.245  11.656  0.4085 -0.4777  1.5719
12615TIP3   OH259335   0.039   4.225  11.063  0.5749  0.2832 -0.2905
12615TIP3    H159336   0.100   4.285  11.019  3.1478 -1.6220  0.4305
12615TIP3    H259337   0.053   4.141  11.019 -1.3270 -0.3177  0.1618
12616TIP3   OH259338   6.128   4.013  17.099 -0.3970 -0.3601 -0.2847
12616TIP3    H159339   6.223   4.017  17.100 -0.4213  0.9563  1.8745
12616TIP3    H259340   6.106   3.934  17.148 -0.4838 -2.1214 -2.9261
12617TIP3   OH259341   2.355   3.060  13.248 -0.2970 -0.0548 -0.6669
12617TIP3    H159342   2.438   3.032  13.286 -0.6503 -0.9520 -0.5226
12617TIP3    H259343   2.344   3.005  13.170 -1.8607 -1.6529  0.5940
12618TIP3   OH259344   3.554   5.723  15.626  0.1686 -0.3831  0.1517
12618TIP3    H159345   3.544   5.760  15.539  2.0954 -1.5487 -0.6254
12618TIP3    H259346   3.562   5.799  15.684  1.1556  0.4357 -1.0022
12619TIP3   OH259347   6.419   5.866  12.368  0.6105  0.2675  0.5906
12619TIP3    H159348   6.478   5.856  12.443  0.4687  2.1278  1.0006
12619TIP3    H259349   6.477   5.893  12.297  0.6933 -1.1629  0.0765
12620TIP3   OH259350   2.305   0.457  14.473  1.1097 -0.5564  0.9066
12620TIP3    H159351   2.211   0.463  14.454  1.5246  3.6499 -0.8153
12620TIP3    H259352   2.309   0.455  14.569 -0.7371 -0.5015  1.0315
12621TIP3   OH259353   4.756   1.494   2.410  1.0553 -0.4879 -0.9648
12621TIP3    H159354   4.810   1.566   2.379 -0.5369  0.2672 -2.1551
12621TIP3    H259355   4.707   1.466   2.332 -1.6980  0.2118  0.3863
12622TIP3   OH259356   3.074   2.150  16.705 -0.2385 -0.1269 -0.2449
12622TIP3    H159357   3.094   2.202  16.627  1.3188 -0.4209 -0.0886
12622TIP3    H259358   3.101   2.205  16.779 -0.7191 -0.2589  0.0347
12623TIP3   OH259359   3.048   3.700  13.513 -0.3308 -0.9858 -0.1388
12623TIP3    H159360   2.986   3.753  13.565  0.5332 -0.3400  0.2567
12623TIP3    H259361   3.095   3.764  13.460 -1.7620 -1.7024 -2.3965
12624TIP3   OH259362   5.835   3.798  11.476  0.5081  0.4982 -0.1516
12624TIP3    H159363   5.786   3.724  11.511 -0.0399  1.0317  0.2201
12624TIP3    H259364   5.886   3.831  11.550  0.4217  0.7582 -0.2078
12625TIP3   OH259365   0.505   5.212  12.883  0.8413  0.1992 -0.1161
12625TIP3    H159366   0.580   5.224  12.824 -0.3079  1.7948 -1.3575
12625TIP3    H259367   0.523   5.272  12.956  0.4522  1.1405 -0.7755
12626TIP3   OH259368   1.579   5.927   3.752  0.2219  0.0238 -0.4180
12626TIP3    H159369   1.493   5.908   3.714  1.7137 -0.5235 -3.9521
12626TIP3    H259370   1.618   5.840   3.767  0.5839  0.2730  0.1408
12627TIP3   OH259371   4.202   4.292  15.452 -0.1870 -0.3513  0.1232
12627TIP3    H159372   4.290   4.259  15.470 -0.1421  0.5288  1.6334
12627TIP3    H259373   4.154   4.280  15.534 -1.3914 -0.5273 -0.5837
12628TIP3   OH259374   0.463   0.133   5.862  0.0062  0.1785 -0.2549
12628TIP3    H159375   0.483   0.055   5.913 -0.7919 -0.2773 -0.6297
12628TIP3    H259376   0.392   0.176   5.909  0.3376  0.6136 -0.1323
12629TIP3   OH259377   4.431   0.773  12.029  0.1264  0.4272 -0.2278
12629TIP3    H159378   4.506   0.833  12.020  0.4775 -0.0028 -0.2117
12629TIP3    H259379   4.443   0.709  11.960  0.1054  0.0039  0.1565
12630TIP3   OH259380   5.288   5.806   2.881  0.2274 -0.0284  0.4473
12630TIP3    H159381   5.365   5.748   2.888  0.1571 -0.2393 -0.4181
12630TIP3    H259382   5.318   5.890   2.915  1.0012  0.0324 -0.3527
12631TIP3   OH259383   1.280   3.402   1.466 -0.6520  0.0932  0.2474
12631TIP3    H159384   1.321   3.485   1.490  1.2926 -0.4901 -0.8624
12631TIP3    H259385   1.275   3.405   1.371  0.4325 -1.4713  0.1144
12632TIP3   OH259386   1.944   5.240   0.263  0.7769  0.2544 -0.0307
12632TIP3    H159387   1.906   5.296   0.195  2.2291  0.2647 -0.8801
12632TIP3    H259388   1.870   5.187   0.294  0.0802  0.1518 -1.7188
12633TIP3   OH259389   6.650   1.807  14.553 -0.2516 -0.5033 -0.6899
12633TIP3    H159390   6.591   1.860  14.499  1.4127 -0.2534 -2.3446
12633TIP3    H259391   6.699   1.755  14.490  0.8895 -1.1342  0.6817
12634TIP3   OH259392   1.865   3.862  11.109  0.2553 -0.7973 -0.6587
12634TIP3    H159393   1.859   3.813  11.027  1.3943  0.1187 -1.3212
12634TIP3    H259394   1.880   3.795  11.176  0.4501 -1.4663 -1.3561
12635TIP3   OH259395   3.877   3.951   5.714 -0.1541  0.3231  0.1633
12635TIP3    H159396   3.786   3.945   5.742 -0.0765  2.9497  1.2530
12635TIP3    H259397   3.927   3.914   5.787 -0.2976 -2.3295 -0.9644
12636TIP3   OH259398   2.398   6.063  14.603  0.2969 -0.4443 -0.5144
12636TIP3    H159399   2.432   6.097  14.521  1.4341  1.0805  0.5349
12636TIP3    H259400   2.459   5.994  14.628  1.2503  0.5775  0.0996
12637TIP3   OH259401   3.484   3.563  12.690  0.2006  0.1026  0.6059
12637TIP3    H159402   3.495   3.530  12.601  0.5960  0.7168  0.4239
12637TIP3    H259403   3.532   3.501  12.745 -1.6524 -1.4030  0.6334
12638TIP3   OH259404   3.208   2.037  13.378  0.1966  0.5566  0.1254
12638TIP3    H159405   3.166   1.979  13.314  0.8519 -0.4876  0.6018
12638TIP3    H259406   3.144   2.105  13.396 -0.4651  0.1672 -0.7151
12639TIP3   OH259407   1.189   4.898   1.317  0.3127 -0.5715 -0.0235
12639TIP3    H159408   1.133   4.937   1.384 -1.3911 -2.7322 -0.0908
12639TIP3    H259409   1.278   4.912   1.349 -0.3167  1.1833  1.0949
12640TIP3   OH259410   0.431   0.750   0.194  0.3187 -0.4710 -0.5086
12640TIP3    H159411   0.392   0.679   0.142  0.9356 -1.3983  0.2578
12640TIP3    H259412   0.419   0.722   0.285  1.3608 -0.0120 -0.2192
12641TIP3   OH259413   0.224   2.240  15.048  0.8510  0.1450 -0.0722
12641TIP3    H159414   0.266   2.216  15.131 -0.4063  1.3053  0.9558
12641TIP3    H259415   0.166   2.313  15.071 -1.2931 -0.9831 -1.4765
12642TIP3   OH259416   2.579   0.584   5.643  0.0000 -0.4086 -0.1007
12642TIP3    H159417   2.564   0.521   5.714 -1.6724 -1.2105 -1.1019
12642TIP3    H259418   2.497   0.633   5.637  0.3787  0.1359 -0.9962
12643TIP3   OH259419   0.250   2.151  12.965  0.1606  0.0926  0.0366
12643TIP3    H159420   0.277   2.163  12.874 -0.4530 -0.0773 -0.1759
12643TIP3    H259421   0.223   2.059  12.970  0.0392  0.1430  0.3441
12644TIP3   OH259422   3.958   1.704   6.538  0.4243  0.2494  0.0823
12644TIP3    H159423   4.033   1.682   6.593  1.2724 -0.4931 -1.3116
12644TIP3    H259424   3.986   1.782   6.490  0.5734 -0.3840 -0.8926
12645TIP3   OH259425   3.768   3.914  16.514  0.3232  0.0436 -0.0855
12645TIP3    H159426   3.800   3.988  16.463 -1.8784  0.3231 -1.1922
12645TIP3    H259427   3.778   3.941  16.605  3.2047  0.0397 -0.3239
12646TIP3   OH259428   0.780   3.068  15.744  0.1326  0.0261  0.1745
12646TIP3    H159429   0.745   3.156  15.728 -0.4532 -0.2722 -0.2601
12646TIP3    H259430   0.709   3.022  15.789  0.3704 -0.2770  0.2423
12647TIP3   OH259431   0.908   2.908  13.259  0.3623  0.3747 -0.3876
12647TIP3    H159432   0.896   2.821  13.221 -2.4693  1.1544 -1.5375
12647TIP3    H259433   0.857   2.905  13.341 -0.6593  1.2115 -0.9652
12648TIP3   OH259434   2.355   0.789  13.767 -0.6071  0.4037 -0.0903
12648TIP3    H159435   2.270   0.826  13.744 -1.3734  0.2006  2.0976
12648TIP3    H259436   2.418   0.834  13.711 -1.8126  2.8475  0.3887
12649TIP3   OH259437   4.993   6.773  10.808 -0.6292 -0.5680 -0.0900
12649TIP3    H159438   5.050   6.806  10.739 -0.8599 -0.2101 -0.1135
12649TIP3    H259439   5.009   6.832  10.882 -2.2721  0.6460 -0.6637
12650TIP3   OH259440   3.030   5.149   0.402 -0.1501 -0.0885 -0.5772
12650TIP3    H159441   2.941   5.153   0.438 -1.1881  0.5788 -3.0639
12650TIP3    H259442   3.031   5.070   0.349  0.0151  0.9867 -2.2452
12651TIP3   OH259443   3.745   0.956   1.062 -0.5500  0.0407  0.3433
12651TIP3    H159444   3.716   1.046   1.046  2.2522  1.2686  1.5912
12651TIP3    H259445   3.751   0.949   1.157  0.8467 -0.9100  0.2091
12652TIP3   OH259446   3.636   6.581  11.241  0.6773 -0.1616  0.2287
12652TIP3    H159447   3.635   6.505  11.300  0.6338 -0.4539 -0.1510
12652TIP3    H259448   3.716   6.628  11.266  1.3451 -0.9624 -0.3359
12653TIP3   OH259449   2.671   6.357  13.504 -0.9845  0.2735  0.1164
12653TIP3    H159450   2.626   6.274  13.520 -0.3669 -0.1742 -0.3823
12653TIP3    H259451   2.606   6.413  13.462 -1.3288 -0.0597  0.2058
12654TIP3   OH259452   4.944   2.904   4.033  0.4629 -0.2273 -0.2357
12654TIP3    H159453   4.912   2.823   4.073  0.0579  0.2280  0.3674
12654TIP3    H259454   4.992   2.949   4.103 -2.0426  1.5957  0.4624
12655TIP3   OH259455   0.645   3.892  10.870  0.4896 -0.5193  0.2534
12655TIP3    H159456   0.655   3.805  10.832 -1.2632 -0.0477 -1.4453
12655TIP3    H259457   0.720   3.941  10.836  0.4515 -0.8677 -0.3606
12656TIP3   OH259458   2.009   6.291   1.759  0.3582 -0.1980  0.1743
12656TIP3    H159459   1.915   6.277   1.750  0.7113 -2.7038 -0.2269
12656TIP3    H259460   2.044   6.207   1.789  2.4642  0.6989  0.4458
12657TIP3   OH259461   1.637   4.589  13.961 -0.0037  0.0169 -0.4964
12657TIP3    H159462   1.583   4.664  13.982 -0.5696 -0.1899 -1.1854
12657TIP3    H259463   1.578   4.528  13.917  0.0420 -1.5191  1.4319
12658TIP3   OH259464   0.443   0.472  15.068 -0.6823 -0.0639 -0.2710
12658TIP3    H159465   0.381   0.526  15.118 -1.2901 -1.7637  0.9283
12658TIP3    H259466   0.432   0.500  14.978  0.9212  3.6061  0.4929
12659TIP3   OH259467   3.277   2.223  11.864  0.5644  0.0251  0.8001
12659TIP3    H159468   3.352   2.231  11.805  2.3476 -0.0231  2.9401
12659TIP3    H259469   3.250   2.132  11.857  2.0825 -0.5067  1.5342
12660TIP3   OH259470   0.149   2.004  11.061  0.6500 -0.1415  0.0474
12660TIP3    H159471   0.242   2.003  11.041  0.7510 -1.7685  0.4907
12660TIP3    H259472   0.123   1.912  11.062 -1.2528  0.3117 -1.3882
12661TIP3   OH259473   1.547   4.025   0.732  0.0490  0.4591 -0.0104
12661TIP3    H159474   1.482   3.991   0.670 -0.4786  1.7826 -0.2122
12661TIP3    H259475   1.619   4.057   0.677 -1.3630  3.6793 -0.1910
12662TIP3   OH259476   4.283   4.959  13.546 -0.0450 -0.4772  0.4270
12662TIP3    H159477   4.327   4.879  13.575  0.5566 -0.6740 -0.9258
12662TIP3    H259478   4.336   5.030  13.582 -0.3981 -0.6825  1.3674
12663TIP3   OH259479   0.665   3.498   4.729 -0.0029 -0.0650  0.4847
12663TIP3    H159480   0.595   3.445   4.691  0.6569 -0.0834 -0.7538
12663TIP3    H259481   0.727   3.434   4.763  0.3537 -0.0862 -0.1918
12664TIP3   OH259482   1.767   3.012   5.421 -0.4775  0.1667  0.2174
12664TIP3    H159483   1.833   3.026   5.489 -1.7690 -1.7063  1.9612
12664TIP3    H259484   1.789   2.926   5.384 -2.1715 -0.7233  1.1835
12665TIP3   OH259485   5.727   3.683  14.820  0.0927 -0.3814 -0.3992
12665TIP3    H159486   5.764   3.595  14.821 -0.1038 -0.4657 -0.5294
12665TIP3    H259487   5.708   3.702  14.912 -1.3832 -1.1212 -0.5203
12666TIP3   OH259488   0.270   0.424   0.976  0.2422 -0.1112 -0.6324
12666TIP3    H159489   0.293   0.453   1.065 -0.4997 -1.2828 -0.0364
12666TIP3    H259490   0.350   0.382   0.944  0.1204 -0.8521 -0.0021
12667TIP3   OH259491   6.524   6.413  12.711 -0.6699 -0.0273 -0.4039
12667TIP3    H159492   6.596   6.432  12.651  0.3107  0.3089  0.8378
12667TIP3    H259493   6.486   6.499  12.731 -1.1845 -0.1669 -0.7676
12668TIP3   OH259494   2.839   2.534   2.967  0.1093  0.3854  0.0857
12668TIP3    H159495   2.927   2.556   3.000  1.1027 -0.3761 -1.8798
12668TIP3    H259496   2.835   2.438   2.972 -0.0268  0.3102 -1.1320
12669TIP3   OH259497   2.071   1.077  11.374  0.2162  0.6562 -0.4391
12669TIP3    H159498   2.067   0.984  11.397 -1.3349  0.7051 -0.3659
12669TIP3    H259499   2.103   1.078  11.284 -2.6300 -0.2238 -1.5985
12670TIP3   OH259500   2.255   3.676  15.478 -0.2204 -0.2098  0.0805
12670TIP3    H159501   2.161   3.661  15.485 -0.4587  1.3794  0.5539
12670TIP3    H259502   2.286   3.678  15.568  0.4468 -1.6223 -0.0913
12671TIP3   OH259503   6.209   3.015  16.958  0.6712 -0.7980  0.4105
12671TIP3    H159504   6.163   2.936  16.985 -0.8731 -0.2809 -0.6380
12671TIP3    H259505   6.161   3.047  16.883  1.7089  0.7537  0.3625
12672TIP3   OH259506   1.138   6.792   5.309  0.0974 -0.1364  0.7421
12672TIP3    H159507   1.227   6.826   5.299  0.0404 -0.6454 -2.2554
12672TIP3    H259508   1.093   6.859   5.362  1.7981  0.9558  0.8864
12673TIP3   OH259509   1.816   4.836  16.484 -0.2502 -0.0029  0.3839
12673TIP3    H159510   1.886   4.771  16.493 -0.2876 -0.0017  0.6745
12673TIP3    H259511   1.736   4.790  16.507 -0.4068 -0.1224 -0.3709
12674TIP3   OH259512   6.460   6.002   5.502  0.2723  0.3174  0.0976
12674TIP3    H159513   6.384   5.948   5.481  1.0538  0.2001 -2.8198
12674TIP3    H259514   6.443   6.035   5.590 -2.0178 -1.5902  0.4488
12675TIP3   OH259515   1.981   3.448   1.499 -0.3572 -0.0409  0.4371
12675TIP3    H159516   1.935   3.368   1.527  0.7853 -0.7549  0.3465
12675TIP3    H259517   1.967   3.451   1.404  0.6835 -0.8848  0.2314
12676TIP3   OH259518   6.436   2.254  17.160  0.1161  0.2331 -0.1345
12676TIP3    H159519   6.522   2.218  17.179 -0.0822 -1.3928 -1.9835
12676TIP3    H259520   6.453   2.327  17.101  0.2584  0.2601 -0.0596
12677TIP3   OH259521   2.274   2.809  12.034 -0.0939  0.1190  0.0800
12677TIP3    H159522   2.258   2.789  11.941 -0.6561  0.9938 -0.0153
12677TIP3    H259523   2.201   2.768  12.080 -0.8419  1.2796 -0.0473
12678TIP3   OH259524   4.139   2.505  11.907  0.0866  0.0429 -0.4988
12678TIP3    H159525   4.198   2.430  11.895  2.1052  1.5111 -0.3285
12678TIP3    H259526   4.113   2.530  11.818 -0.6278 -0.8435 -0.5542
12679TIP3   OH259527   3.329   4.555  12.766  0.6374 -0.2717 -0.5034
12679TIP3    H159528   3.282   4.519  12.690 -0.0393  0.4941 -0.4646
12679TIP3    H259529   3.396   4.611  12.728  0.2025  0.2283 -0.5391
12680TIP3   OH259530   1.628   2.290  16.736  0.1156  0.1909 -0.1240
12680TIP3    H159531   1.701   2.266  16.792 -1.2115 -1.7892  0.8725
12680TIP3    H259532   1.664   2.288  16.647  1.3299 -0.4750  0.3597
12681TIP3   OH259533   1.433   0.959  14.482  0.2354 -0.2409 -0.2664
12681TIP3    H159534   1.486   1.010  14.544 -2.3779  1.5187  0.6667
12681TIP3    H259535   1.434   1.010  14.401 -1.0724  0.5396  0.1779
12682TIP3   OH259536   0.581   3.469  15.310  0.1016  0.7368  0.1977
12682TIP3    H159537   0.495   3.512  15.310 -0.0967  0.7031 -4.0246
12682TIP3    H259538   0.572   3.395  15.250  2.9447  0.3934  0.0376
12683TIP3   OH259539   0.996   4.437  15.677 -0.0845 -0.3423  0.0136
12683TIP3    H159540   1.025   4.353  15.714 -0.9925 -0.2364  1.0369
12683TIP3    H259541   1.032   4.438  15.589  0.8173 -1.3446  0.3439
12684TIP3   OH259542   1.224   6.581  15.853 -0.0622  0.5549 -0.2610
12684TIP3    H159543   1.218   6.662  15.903 -0.4643 -0.1915  0.9176
12684TIP3    H259544   1.273   6.521  15.910 -1.4878 -0.6656 -0.2730
12685TIP3   OH259545   1.775   2.264  12.412 -0.5016  0.4869  0.2635
12685TIP3    H159546   1.799   2.184  12.458 -0.6250  0.3809  0.1445
12685TIP3    H259547   1.692   2.290  12.452 -1.8625 -0.9070 -1.4890
12686TIP3   OH259548   4.857   1.233  12.763 -0.2821  0.1717 -0.0328
12686TIP3    H159549   4.880   1.221  12.855 -0.5541 -4.0360 -0.3188
12686TIP3    H259550   4.762   1.219  12.761 -0.4167  1.1422 -0.8655
12687TIP3   OH259551   4.420   4.377   4.364  0.3519  0.5381  0.0405
12687TIP3    H159552   4.429   4.387   4.269  1.4000  0.8242  0.1621
12687TIP3    H259553   4.377   4.292   4.375  1.9963 -0.4190 -0.6460
12688TIP3   OH259554   0.351   4.606   3.660  0.1885  0.4742  0.8138
12688TIP3    H159555   0.364   4.669   3.589 -0.2807  0.7588  0.9686
12688TIP3    H259556   0.307   4.657   3.729  0.7000  0.2231  1.3367
12689TIP3   OH259557   5.322   4.706   3.789  0.4959  0.6737  0.1890
12689TIP3    H159558   5.325   4.702   3.694 -0.8063  1.1824  0.1108
12689TIP3    H259559   5.380   4.779   3.812  1.2336  0.2096 -0.1666
12690TIP3   OH259560   1.788   5.178  16.955  0.2740 -0.2076 -0.1005
12690TIP3    H159561   1.797   5.264  16.916 -0.2634  0.0635  0.3529
12690TIP3    H259562   1.701   5.179  16.995  0.5067 -0.7414  0.4384
12691TIP3   OH259563   4.860   1.278   0.752 -0.1808  0.4061  0.1648
12691TIP3    H159564   4.823   1.352   0.800  0.2213  1.6412 -1.3435
12691TIP3    H259565   4.784   1.233   0.714 -0.2885  2.1648 -1.8401
12692TIP3   OH259566   2.899   3.226   0.466 -0.1560  0.0144  0.2169
12692TIP3    H159567   2.954   3.294   0.504 -1.4485  1.6270 -0.6372
12692TIP3    H259568   2.904   3.242   0.371 -1.4484 -0.2723  0.0819
12693TIP3   OH259569   4.984   5.285  11.511  0.5426  0.2463 -0.0157
12693TIP3    H159570   4.969   5.266  11.418  2.3833  1.8570 -0.7202
12693TIP3    H259571   5.079   5.281  11.520  0.4776  1.4525  1.4836
12694TIP3   OH259572   3.264   4.153   0.156 -0.8626  0.0383 -0.0638
12694TIP3    H159573   3.335   4.089   0.151  0.1076  0.9789  0.9786
12694TIP3    H259574   3.219   4.134   0.238 -0.9375  0.3191 -0.0374
12695TIP3   OH259575   6.287   1.702   4.649 -0.1579  1.0110 -0.4372
12695TIP3    H159576   6.341   1.753   4.589 -1.0806  1.3202 -1.0260
12695TIP3    H259577   6.200   1.741   4.643 -1.0544 -0.9345 -1.3340
12696TIP3   OH259578   1.169   0.915  12.360  0.3289  0.6410 -0.1962
12696TIP3    H159579   1.131   0.901  12.447 -1.4101  1.3684 -0.8005
12696TIP3    H259580   1.167   1.010  12.348  2.4407  0.7204 -0.2526
12697TIP3   OH259581   4.300   0.478  16.686  0.3992 -0.2395 -0.2427
12697TIP3    H159582   4.313   0.424  16.608  0.8132 -0.4763 -0.0146
12697TIP3    H259583   4.353   0.556  16.669 -1.3371  0.8021 -1.2201
12698TIP3   OH259584   0.864   3.748  14.341 -0.4642  0.0870  0.2531
12698TIP3    H159585   0.829   3.837  14.349  1.1243  0.5939  2.5717
12698TIP3    H259586   0.830   3.702  14.417  0.1961 -0.7625  0.0480
12699TIP3   OH259587   0.869   1.797  16.102  0.1073 -0.4135 -0.0577
12699TIP3    H159588   0.796   1.843  16.062 -0.1518  0.5865  1.4838
12699TIP3    H259589   0.885   1.722  16.044  0.0587  1.1641 -2.2337
12700TIP3   OH259590   2.203   5.852  15.532 -0.0478 -0.1897  0.4000
12700TIP3    H159591   2.141   5.876  15.464 -2.2459 -0.8094  2.0828
12700TIP3    H259592   2.248   5.774  15.497 -1.0273 -0.4148 -0.3989
12701TIP3   OH259593   5.952   1.894  16.187  0.0791 -0.1941 -0.0320
12701TIP3    H159594   5.937   1.985  16.212  0.3286 -0.1889  0.0945
12701TIP3    H259595   5.889   1.844  16.241 -2.1423  0.1260 -2.1580
12702TIP3   OH259596   2.406   3.609  15.719 -0.2168  0.3546  0.3697
12702TIP3    H159597   2.448   3.558  15.650  0.2824  2.2086 -0.7804
12702TIP3    H259598   2.451   3.585  15.799 -0.3950 -1.3993 -0.0198
12703TIP3   OH259599   1.062   4.305  15.240 -0.2263 -0.0088  0.3611
12703TIP3    H159600   1.003   4.236  15.270  0.2298 -0.3675  0.4412
12703TIP3    H259601   1.012   4.352  15.174 -0.7039 -0.1342  0.6341
12704TIP3   OH259602   2.854   1.655  13.090 -0.2771  0.2156  0.1790
12704TIP3    H159603   2.867   1.595  13.016  2.8032  1.0669 -0.1469
12704TIP3    H259604   2.902   1.614  13.162 -2.3420 -0.0768  1.4377
12705TIP3   OH259605   1.606   1.917   1.272  0.4867 -0.2625 -0.0364
12705TIP3    H159606   1.634   1.966   1.194  1.5811 -0.5446  0.1619
12705TIP3    H259607   1.585   1.830   1.240  1.5895 -0.5773  0.0742
12706TIP3   OH259608   3.561   0.600   1.279  0.1950  0.1417  0.4155
12706TIP3    H159609   3.466   0.605   1.280  0.1935  0.1285  0.3284
12706TIP3    H259610   3.581   0.519   1.327  0.0151 -1.8459 -2.5848
12707TIP3   OH259611   0.591   0.102  11.627 -0.0039  0.2468  0.1320
12707TIP3    H159612   0.600   0.009  11.644  1.4892 -0.0868 -2.0748
12707TIP3    H259613   0.497   0.119  11.632 -0.3706 -1.5537 -0.2589
12708TIP3   OH259614   1.976   0.380   3.847 -0.3555  0.1560  0.9949
12708TIP3    H159615   1.983   0.287   3.825 -1.7071 -0.4012  2.7933
12708TIP3    H259616   2.024   0.424   3.776 -0.7334 -1.7993 -0.5740
12709TIP3   OH259617   1.098   1.976  13.028 -0.5459  0.6294  0.7728
12709TIP3    H159618   1.052   1.993  13.110 -3.2077 -0.8028 -0.2968
12709TIP3    H259619   1.035   2.001  12.960  0.0618 -1.8075 -0.8006
12710TIP3   OH259620   4.844   0.680   3.421 -0.0859  0.2098  0.3254
12710TIP3    H159621   4.775   0.745   3.438  0.7240  0.5538  2.6796
12710TIP3    H259622   4.849   0.628   3.501  0.8721 -1.2945 -0.6508
12711TIP3   OH259623   2.507   5.817  13.877 -0.5073 -0.3004  0.3893
12711TIP3    H159624   2.501   5.787  13.967  0.2004  0.6133  0.7556
12711TIP3    H259625   2.430   5.873  13.864  0.1745  0.7951  0.9229
12712TIP3   OH259626   6.636   6.353  11.465 -0.3449  0.7567  0.9649
12712TIP3    H159627   6.549   6.329  11.432 -0.0517  0.3456  0.4936
12712TIP3    H259628   6.650   6.295  11.540  0.2635 -0.4178 -0.0267
12713TIP3   OH259629   1.540   1.257  15.468 -0.1436 -0.6233 -0.0553
12713TIP3    H159630   1.465   1.216  15.509 -1.9581  0.4368 -2.1209
12713TIP3    H259631   1.511   1.346  15.448  1.8654  0.0160 -0.4251
12714TIP3   OH259632   4.071   4.962  15.280  0.2917 -0.1954 -0.3953
12714TIP3    H159633   3.996   5.010  15.244 -0.9606  0.4340  2.7438
12714TIP3    H259634   4.037   4.875  15.300  0.7229 -0.2860 -0.0264
12715TIP3   OH259635   2.319   3.761  12.110  0.4846 -0.0531  0.3412
12715TIP3    H159636   2.234   3.803  12.123  0.2309 -0.6269  0.5638
12715TIP3    H259637   2.340   3.723  12.195  0.0478 -1.5781 -0.2119
12716TIP3   OH259638   2.559   6.064  17.060 -0.0979  0.2052  0.2361
12716TIP3    H159639   2.599   6.150  17.060 -0.8481  0.5704 -0.8573
12716TIP3    H259640   2.589   6.022  16.980 -1.5792  0.3577 -0.4287
12717TIP3   OH259641   5.881   3.205   6.519 -0.3122  0.3419 -0.0711
12717TIP3    H159642   5.845   3.175   6.602  0.1951 -0.5823 -0.1713
12717TIP3    H259643   5.925   3.129   6.483  0.7088  1.1228 -0.5186
12718TIP3   OH259644   4.506   5.778  14.464  0.1682 -0.3772  0.0848
12718TIP3    H159645   4.494   5.821  14.549  0.0852  0.4981 -0.3615
12718TIP3    H259646   4.432   5.718  14.457  0.6998 -1.1765  1.0498
12719TIP3   OH259647   5.762   4.647  12.417  0.8217 -0.6189 -0.3887
12719TIP3    H159648   5.777   4.702  12.494  1.4041 -2.7985  1.1603
12719TIP3    H259649   5.838   4.661  12.361  1.6166 -0.8280  0.6176
12720TIP3   OH259650   5.949   0.667  14.164  0.2162  0.0603 -0.6264
12720TIP3    H159651   5.930   0.590  14.110 -0.8442 -0.0586 -0.1091
12720TIP3    H259652   5.895   0.737  14.127  2.2088  0.9690 -1.9684
12721TIP3   OH259653   2.354   5.732   4.492 -0.5646 -0.0554  0.9222
12721TIP3    H159654   2.388   5.644   4.502 -1.7207 -0.6244  0.0955
12721TIP3    H259655   2.259   5.721   4.488 -0.7207  1.2007  0.5663
12722TIP3   OH259656   6.021   2.851   4.721  0.0423  0.9067  0.0142
12722TIP3    H159657   6.099   2.907   4.731 -0.4981  1.5392  0.8006
12722TIP3    H259658   5.984   2.846   4.809 -1.2011  1.1991 -0.4759
12723TIP3   OH259659   1.898   1.487   0.774 -0.3519 -0.1130 -0.1246
12723TIP3    H159660   1.865   1.496   0.864  1.4090  0.7227  0.4846
12723TIP3    H259661   1.836   1.538   0.721 -1.0409 -0.0744  0.6941
12724TIP3   OH259662   4.062   0.862  11.332  0.5939  0.1396  0.6295
12724TIP3    H159663   4.056   0.939  11.276  0.7227 -0.9950 -1.0079
12724TIP3    H259664   4.130   0.808  11.292  1.3237 -0.3406  2.3961
12725TIP3   OH259665   5.107   2.201   3.879 -0.0015  0.3334  0.1118
12725TIP3    H159666   5.154   2.207   3.795  2.4956  0.9633  1.4528
12725TIP3    H259667   5.091   2.108   3.891  1.8248 -0.0260  0.0299
12726TIP3   OH259668   6.232   1.751   4.939  0.5726 -0.3103  0.1808
12726TIP3    H159669   6.245   1.725   4.848  2.2565 -1.7363  0.7619
12726TIP3    H259670   6.203   1.842   4.934 -2.5968 -1.2516 -1.8713
12727TIP3   OH259671   6.176   1.852  12.444  0.0245 -0.0013  0.6059
12727TIP3    H159672   6.138   1.920  12.501 -0.8618 -0.5798  0.7275
12727TIP3    H259673   6.127   1.773  12.465 -0.7502 -0.1145 -1.3742
12728TIP3   OH259674   6.216   0.370   0.368  0.0414  0.2569 -0.2797
12728TIP3    H159675   6.166   0.338   0.293  1.9788 -1.1510 -1.0780
12728TIP3    H259676   6.291   0.416   0.328  1.4374 -1.0524  0.7133
12729TIP3   OH259677   6.461   1.125   3.102 -0.3408 -0.1308  0.5353
12729TIP3    H159678   6.374   1.164   3.105  0.9192  2.9986 -0.0302
12729TIP3    H259679   6.485   1.127   3.010  0.7093  0.0268  0.7972
12730TIP3   OH259680   3.015   5.405   4.283  0.3239 -0.2766 -0.2442
12730TIP3    H159681   2.933   5.370   4.249  0.3720 -1.0905  0.4478
12730TIP3    H259682   3.069   5.328   4.301  0.2346  0.0864  1.8125
12731TIP3   OH259683   5.000   6.355   5.208 -0.6039  0.4272 -0.5657
12731TIP3    H159684   4.957   6.345   5.293 -0.1868  0.1942 -0.3792
12731TIP3    H259685   4.948   6.421   5.162 -0.7793  0.6176 -0.0949
12732TIP3   OH259686   0.328   4.286  14.043  0.5447 -0.0113 -0.1849
12732TIP3    H159687   0.285   4.292  14.129 -1.0366 -0.2410 -0.9276
12732TIP3    H259688   0.358   4.195  14.037  0.2663 -0.1114 -0.0590
12733TIP3   OH259689   4.677   2.682  15.354 -0.4437 -0.0244  0.2489
12733TIP3    H159690   4.715   2.697  15.441  1.2803 -1.4968 -0.1969
12733TIP3    H259691   4.732   2.734  15.295 -0.0997 -0.9093 -0.2247
12734TIP3   OH259692   1.322   5.551  16.593  0.2306  0.4654  0.3379
12734TIP3    H159693   1.389   5.608  16.555  0.4123 -0.1168 -0.2309
12734TIP3    H259694   1.309   5.585  16.681  0.9536  0.8624  0.3001
12735TIP3   OH259695   4.439   1.042   3.595  0.8526 -0.2269 -0.2974
12735TIP3    H159696   4.369   1.087   3.549 -0.8151  0.6616  2.7982
12735TIP3    H259697   4.519   1.084   3.564  0.0189 -0.4791 -3.0765
12736TIP3   OH259698   2.785   1.129   0.249 -0.1144  0.0893  0.3353
12736TIP3    H159699   2.771   1.078   0.169  2.9041  1.3833 -1.2167
12736TIP3    H259700   2.702   1.124   0.296 -1.7342 -1.5278 -2.4126
12737TIP3   OH259701   3.249   1.891  11.827 -0.4299  0.3980 -0.5472
12737TIP3    H159702   3.312   1.828  11.792 -0.5402 -0.1393  0.1810
12737TIP3    H259703   3.215   1.848  11.906  1.6196  2.5751  1.6559
12738TIP3   OH259704   3.070   2.978   5.141 -0.1708  0.3083  0.2927
12738TIP3    H159705   3.137   2.952   5.204 -0.5417 -2.5605 -0.3657
12738TIP3    H259706   2.987   2.967   5.188 -0.4236 -1.4599 -0.4700
12739TIP3   OH259707   6.422   0.632  12.183  0.0942  0.1449  0.0325
12739TIP3    H159708   6.471   0.571  12.238  0.6982 -0.7683 -1.4468
12739TIP3    H259709   6.395   0.701  12.243  1.9490 -0.0593  1.2066
12740TIP3   OH259710   1.857   5.045  15.104  0.9096 -0.7229 -0.0838
12740TIP3    H159711   1.844   4.953  15.080 -1.0463 -0.8573  1.2748
12740TIP3    H259712   1.951   5.053  15.120  1.3782 -2.0401 -1.8557
12741TIP3   OH259713   6.278   1.818  10.414  0.0022  0.6047  0.1347
12741TIP3    H159714   6.245   1.869  10.487  0.5948  2.3485 -0.7579
12741TIP3    H259715   6.373   1.827  10.419  0.2258 -1.5089  0.6793
12742TIP3   OH259716   2.625   4.195   5.220  0.0064  0.1843  0.6577
12742TIP3    H159717   2.590   4.182   5.132 -1.3157 -0.1856  1.2005
12742TIP3    H259718   2.595   4.283   5.244  1.1059  0.6336  0.4226
12743TIP3   OH259719   0.202   3.664  14.501  0.2273 -0.6453  0.5859
12743TIP3    H159720   0.112   3.687  14.478  0.6043  1.3819  0.9566
12743TIP3    H259721   0.212   3.693  14.592  1.5660  0.1933  0.1968
12744TIP3   OH259722   1.164   5.537  11.873 -0.3964  0.0626 -0.1498
12744TIP3    H159723   1.216   5.498  11.803  1.0663  0.7991  0.4747
12744TIP3    H259724   1.218   5.610  11.905 -1.8135  0.8467  0.5564
12745TIP3   OH259725   0.978   4.175   4.337 -0.3361  0.4999 -0.2270
12745TIP3    H159726   0.903   4.142   4.386  0.6191 -0.1780  0.8318
12745TIP3    H259727   0.985   4.267   4.364  0.4697  0.0174  1.3533
12746TIP3   OH259728   5.670   1.328   3.434  0.0543 -0.2282  0.4951
12746TIP3    H159729   5.591   1.283   3.404 -0.1403  1.2962 -1.5185
12746TIP3    H259730   5.688   1.393   3.366  2.3500  0.3129  1.5034
12747TIP3   OH259731   6.403   3.118  15.150 -0.4833  0.7772 -0.5692
12747TIP3    H159732   6.315   3.156  15.152  0.5728  3.4131 -0.1860
12747TIP3    H259733   6.454   3.174  15.208  0.8528 -2.4898  1.7172
12748TIP3   OH259734   2.345   2.818   2.465 -0.2971  0.0190 -0.2094
12748TIP3    H159735   2.329   2.833   2.558 -0.8345  1.0759 -0.4542
12748TIP3    H259736   2.421   2.872   2.444 -1.5925  1.7019 -0.8627
12749TIP3   OH259737   4.149   2.912  17.104  0.0537  0.4495  0.3223
12749TIP3    H159738   4.224   2.966  17.126  0.0784  0.5403  0.0164
12749TIP3    H259739   4.187   2.833  17.065 -0.0235  0.6621 -0.1890
12750TIP3   OH259740   3.778   1.101   3.518  0.4292 -1.0399 -0.1119
12750TIP3    H159741   3.798   1.194   3.508  1.3686 -1.1544  0.5735
12750TIP3    H259742   3.734   1.095   3.603  3.4001 -1.6049  1.5300
12751TIP3   OH259743   3.020   1.931   0.436  0.1847 -0.1560  0.3861
12751TIP3    H159744   3.116   1.925   0.441  0.3834  0.1195 -1.9209
12751TIP3    H259745   3.001   1.923   0.342 -2.0465 -0.0330  0.7919
12752TIP3   OH259746   1.222   6.209   0.381  0.2903  0.4553  0.2554
12752TIP3    H159747   1.160   6.264   0.335  0.0533  0.6668  0.8153
12752TIP3    H259748   1.263   6.156   0.313 -1.3499 -0.5336 -0.0069
12753TIP3   OH259749   3.640   2.230   4.925 -0.1100  0.7317 -0.4828
12753TIP3    H159750   3.718   2.187   4.961  0.0755  1.5207  0.0772
12753TIP3    H259751   3.578   2.158   4.910  0.7123  0.0953 -0.9248
12754TIP3   OH259752   6.789   6.360  14.824 -0.0264 -0.1092 -0.2354
12754TIP3    H159753   6.705   6.342  14.867 -0.1955 -1.2625 -0.9912
12754TIP3    H259754   6.814   6.447  14.855  0.2224 -1.1365  2.7822
12755TIP3   OH259755   1.806   4.645  11.521  0.1540 -0.2790 -0.1780
12755TIP3    H159756   1.885   4.658  11.572  0.4477 -0.7557 -0.5009
12755TIP3    H259757   1.740   4.620  11.585  1.1308 -3.4779 -0.2252
12756TIP3   OH259758   1.137   4.255   2.017 -0.1075 -0.7660 -0.2200
12756TIP3    H159759   1.202   4.237   2.085 -0.0405 -0.0962 -0.0980
12756TIP3    H259760   1.182   4.311   1.954  0.2303 -2.4024 -1.5068
12757TIP3   OH259761   1.053   4.959   0.040  0.0663  0.2063  0.4954
12757TIP3    H159762   1.002   4.878   0.036 -0.2507  0.4015  0.4944
12757TIP3    H259763   1.108   4.956  -0.038 -0.7642  0.5190 -0.1250
12758TIP3   OH259764   1.996   4.769   1.286  0.4434  0.0571 -0.0798
12758TIP3    H159765   1.942   4.847   1.279 -0.3337 -0.6458 -3.9986
12758TIP3    H259766   2.057   4.775   1.212  0.6007 -2.8484 -0.2913
12759TIP3   OH259767   3.211   4.843   1.052 -0.0903 -0.0320 -0.4814
12759TIP3    H159768   3.260   4.922   1.034 -1.1865  1.0491  1.0063
12759TIP3    H259769   3.252   4.805   1.130 -1.9285  1.2771  1.2268
12760TIP3   OH259770   0.781   0.185   0.410  0.0071 -0.2845 -0.1398
12760TIP3    H159771   0.718   0.230   0.466  0.0396 -0.5758  0.1351
12760TIP3    H259772   0.799   0.247   0.339  0.4981  0.3760  0.5393
12761TIP3   OH259773   3.619   4.278   0.694  0.4066  0.0621  0.3825
12761TIP3    H159774   3.576   4.289   0.779 -0.9846 -0.2579 -0.2610
12761TIP3    H259775   3.700   4.231   0.714 -1.0163 -2.1346  1.2841
12762TIP3   OH259776   4.162   1.162  15.486  0.4523 -0.6135  0.0900
12762TIP3    H159777   4.160   1.068  15.504 -0.3110 -0.5658  0.2912
12762TIP3    H259778   4.120   1.172  15.401  0.0543 -0.4131  0.3025
12763TIP3   OH259779   1.885   6.597  15.562  0.0287  0.0324  0.3014
12763TIP3    H159780   1.896   6.604  15.657 -1.1729 -1.6642  0.6086
12763TIP3    H259781   1.863   6.506  15.546  1.0344  0.0770 -1.7382
12764TIP3   OH259782   6.021   5.357  16.449 -0.0855  0.3743 -0.3900
12764TIP3    H159783   6.054   5.341  16.361  0.6169  1.0652 -0.2684
12764TIP3    H259784   5.984   5.273  16.477  2.3794 -0.7262 -0.2054
12765TIP3   OH259785   2.566   0.348   1.338  0.4473  0.3454  0.0274
12765TIP3    H159786   2.630   0.412   1.371 -1.6669  2.7853 -0.2390
12765TIP3    H259787   2.486   0.400   1.325 -1.0557 -2.1624 -1.4144
12766TIP3   OH259788   6.039   2.170   2.967  0.1984  0.2493 -0.1778
12766TIP3    H159789   5.989   2.110   2.912 -0.0301  0.9518 -0.7477
12766TIP3    H259790   6.129   2.160   2.938  0.2671 -0.3432  0.2240
12767TIP3   OH259791   5.358   3.426  15.546  0.0359  0.2716  0.5821
12767TIP3    H159792   5.436   3.412  15.600  0.2205 -1.0474  0.0133
12767TIP3    H259793   5.374   3.508  15.501  0.6325  0.5272  1.2397
12768TIP3   OH259794   0.202   2.081   1.338  0.4765  0.5533 -0.1917
12768TIP3    H159795   0.268   2.116   1.398  0.8912  2.1329 -1.4940
12768TIP3    H259796   0.148   2.024   1.392  1.3859  1.1958  1.4587
12769TIP3   OH259797   2.983   5.368  15.210 -0.0723 -0.2200  0.0252
12769TIP3    H159798   2.998   5.361  15.304 -2.0176  0.4185  0.4255
12769TIP3    H259799   3.058   5.419  15.178 -0.2005  0.9626  1.5002
12770TIP3   OH259800   4.422   1.577   5.723 -0.3529  0.1072 -0.1298
12770TIP3    H159801   4.445   1.485   5.728  0.5627  0.2310 -1.7220
12770TIP3    H259802   4.459   1.615   5.803 -0.2705 -0.7847  0.2705
12771TIP3   OH259803   0.180   5.811   3.054 -0.1661 -0.1749  0.7457
12771TIP3    H159804   0.261   5.853   3.083 -0.2317  1.4445 -1.1794
12771TIP3    H259805   0.128   5.801   3.133  0.3684  2.3553  1.4905
12772TIP3   OH259806   4.176   3.700   2.601 -0.0097 -0.4195  0.4550
12772TIP3    H159807   4.261   3.730   2.634 -0.7351  1.4484  0.7452
12772TIP3    H259808   4.190   3.689   2.507  0.4093  0.5001  0.3936
12773TIP3   OH259809   2.763   3.972   4.311  0.6268 -0.6312 -0.4012
12773TIP3    H159810   2.736   4.041   4.372  0.2101  0.0937 -1.3662
12773TIP3    H259811   2.833   3.925   4.357 -0.7298 -1.1242  1.2603
12774TIP3   OH259812   4.193   2.191   0.466 -0.1291  0.5926 -0.2245
12774TIP3    H159813   4.143   2.154   0.393  1.4503  1.1984 -1.6806
12774TIP3    H259814   4.149   2.275   0.484 -1.6689 -0.3729  0.8636
12775TIP3   OH259815   4.607   3.714  16.416 -0.1039  0.0024  0.3122
12775TIP3    H159816   4.659   3.636  16.394  0.4397  0.4335  0.0123
12775TIP3    H259817   4.516   3.685  16.410  0.0810 -1.1209  2.1312
12776TIP3   OH259818   5.836   6.742  17.340  0.1146 -0.0717  0.1368
12776TIP3    H159819   5.790   6.664  17.371  1.7542 -1.5216 -0.8458
12776TIP3    H259820   5.822   6.742  17.245  0.6681  0.4597  0.0512
12777TIP3   OH259821   6.389   2.765   3.628 -0.7659  0.2558  0.2748
12777TIP3    H159822   6.350   2.688   3.670  0.4990 -1.5392 -1.6961
12777TIP3    H259823   6.441   2.805   3.697  1.1145 -2.4948  0.6076
12778TIP3   OH259824   2.971   2.326   4.627  0.1222 -0.2612  0.2492
12778TIP3    H159825   2.975   2.290   4.716 -1.7151 -1.7413 -0.1894
12778TIP3    H259826   3.024   2.266   4.575 -0.2974 -0.4870  0.0688
12779TIP3   OH259827   3.015   2.004  11.758  0.0238  0.3704  0.0438
12779TIP3    H159828   3.095   1.953  11.767 -0.4657 -0.8422 -1.8231
12779TIP3    H259829   3.015   2.032  11.666 -1.2215  1.1953  0.2698
12780TIP3   OH259830   5.424   1.791   2.817 -0.2404  0.3721 -0.1151
12780TIP3    H159831   5.398   1.700   2.801 -0.5219  0.5153 -0.5123
12780TIP3    H259832   5.447   1.824   2.730  1.9464  0.0610  0.2994
12781TIP3   OH259833   2.635   3.442  14.845  0.3310 -0.5754  0.0614
12781TIP3    H159834   2.711   3.451  14.903  0.9134 -2.2339 -0.3738
12781TIP3    H259835   2.673   3.418  14.760 -0.6530 -1.0957 -0.2506
12782TIP3   OH259836   1.921   0.857  13.225 -0.2663 -0.0534 -0.2770
12782TIP3    H159837   1.885   0.806  13.152 -0.8710 -0.3834  0.2305
12782TIP3    H259838   1.905   0.801  13.302  0.7143  0.1108  0.0591
12783TIP3   OH259839   2.417   3.553   3.379 -0.0587  0.2984  0.0374
12783TIP3    H159840   2.382   3.574   3.465 -0.0836 -0.5731  0.2419
12783TIP3    H259841   2.456   3.636   3.349 -2.1338  1.2620 -0.1569
12784TIP3   OH259842   1.008   5.503  14.406 -0.1003  0.5836 -0.6526
12784TIP3    H159843   0.935   5.524  14.348 -1.5437 -0.1139  0.8178
12784TIP3    H259844   1.035   5.415  14.379 -0.2297  0.5867 -0.7949
12785TIP3   OH259845   5.659   4.490  14.110  0.1434  0.0637  0.8555
12785TIP3    H159846   5.612   4.560  14.156  2.4892  3.2911 -1.2751
12785TIP3    H259847   5.741   4.479  14.158  1.2544  1.2733 -0.6665
12786TIP3   OH259848   0.378   3.590   0.006 -0.0928 -0.3926 -0.3088
12786TIP3    H159849   0.319   3.589   0.081  0.6973 -0.1610  0.3257
12786TIP3    H259850   0.334   3.647  -0.058 -0.4141  0.0218  0.2682
12787TIP3   OH259851   3.597   1.802  14.540 -0.2755  0.6419 -0.3903
12787TIP3    H159852   3.638   1.739  14.480  1.0493 -0.3034  1.4237
12787TIP3    H259853   3.600   1.885  14.493  3.1844  0.5068 -0.6837
12788TIP3   OH259854   3.465   0.438  13.100  0.0706  0.3763  0.3349
12788TIP3    H159855   3.508   0.502  13.043 -0.0440 -1.7552 -2.3563
12788TIP3    H259856   3.375   0.469  13.108  0.1360  0.8355 -0.5576
12789TIP3   OH259857   4.986   1.641   4.061  0.3816 -0.0394  0.5316
12789TIP3    H159858   4.983   1.547   4.081  0.7231 -0.3358 -0.7610
12789TIP3    H259859   4.895   1.670   4.073  0.4362 -0.3282  1.8176
12790TIP3   OH259860   3.316   1.411   5.309 -0.8858 -0.5103 -0.5480
12790TIP3    H159861   3.365   1.381   5.232  1.0932  1.0331  0.0274
12790TIP3    H259862   3.364   1.375   5.383 -2.5371 -1.6340  0.0168
12791TIP3   OH259863   0.635   0.116   2.911 -0.1002 -0.9224  0.4073
12791TIP3    H159864   0.626   0.166   2.992  0.5507  0.5671 -0.3908
12791TIP3    H259865   0.612   0.178   2.842 -1.3266 -2.3640 -0.5422
12792TIP3   OH259866   0.755   1.502  15.106 -0.7442  0.2866  0.0150
12792TIP3    H159867   0.835   1.486  15.056 -0.8057  1.3899 -0.4629
12792TIP3    H259868   0.767   1.589  15.144 -1.9615  0.7335 -0.5723
12793TIP3   OH259869   5.109   6.418   2.890  0.7658 -0.0534 -0.1103
12793TIP3    H159870   5.165   6.411   2.967  3.7065 -1.4717 -2.2034
12793TIP3    H259871   5.078   6.509   2.891  2.9356  0.7541  1.2837
12794TIP3   OH259872   5.665   2.921  11.129 -0.0598  0.3046  0.1703
12794TIP3    H159873   5.715   2.956  11.055  1.4202  0.0240  1.0173
12794TIP3    H259874   5.719   2.851  11.165 -1.6084 -0.8261  0.3998
12795TIP3   OH259875   5.124   3.602   3.654  0.0175  0.2404  0.3565
12795TIP3    H159876   5.124   3.549   3.733  1.2018 -0.6422 -0.2123
12795TIP3    H259877   5.057   3.562   3.598 -0.2576  0.3784  0.5832
12796TIP3   OH259878   6.015   1.635  12.427  0.1433  0.2516  0.1056
12796TIP3    H159879   6.038   1.543  12.416 -1.3354 -0.2724  1.1475
12796TIP3    H259880   5.968   1.639  12.510  1.0025  2.1223  0.5773
12797TIP3   OH259881   4.393   4.671   3.914  0.2875 -0.1665  0.3793
12797TIP3    H159882   4.300   4.687   3.898 -0.3031 -2.2113  1.3762
12797TIP3    H259883   4.438   4.745   3.874 -1.8951  2.3557  2.2365
12798TIP3   OH259884   0.923   1.572  12.713  0.3393  0.2416  0.2386
12798TIP3    H159885   0.929   1.660  12.750  0.6296  0.3366 -0.0269
12798TIP3    H259886   0.997   1.525  12.752  1.4123  0.6969 -1.1466
12799TIP3   OH259887   3.183   0.722   5.972 -0.1006 -0.3905  0.4621
12799TIP3    H159888   3.131   0.795   5.941  0.7064 -0.0945 -0.2217
12799TIP3    H259889   3.251   0.762   6.027 -0.0253 -0.6783  0.5831
12800TIP3   OH259890   3.415   5.617   5.369  0.0733 -0.1961 -0.4737
12800TIP3    H159891   3.427   5.535   5.416 -1.8764 -0.1196  0.2405
12800TIP3    H259892   3.337   5.602   5.315 -0.3044  1.1573 -0.3447
12801TIP3   OH259893   4.501   3.186   1.056  0.0121 -0.6337 -0.2644
12801TIP3    H159894   4.437   3.125   1.020 -0.1736 -0.3763 -0.3727
12801TIP3    H259895   4.450   3.242   1.115  0.0502 -0.1364 -0.6955
12802TIP3   OH259896   0.720   6.020   4.254  0.1657  0.4321  0.3371
12802TIP3    H159897   0.626   6.005   4.248  0.5215 -1.6194 -3.1158
12802TIP3    H259898   0.753   5.946   4.305  0.2412 -1.8398 -2.7167
12803TIP3   OH259899   5.798   6.561  13.136  0.5112  0.0169  0.8028
12803TIP3    H159900   5.774   6.607  13.216  0.5460 -1.5469  1.7451
12803TIP3    H259901   5.723   6.504  13.118  0.7447 -0.0596  0.0397
12804TIP3   OH259902   2.617   5.811   1.490  0.4383  0.2449  0.5307
12804TIP3    H159903   2.643   5.750   1.559  1.8165  0.4190  0.1763
12804TIP3    H259904   2.695   5.862   1.471 -0.5865  1.9069  0.5562
12805TIP3   OH259905   3.907   6.599  13.141  0.3870  0.7309 -0.9499
12805TIP3    H159906   3.902   6.601  13.237  0.7361  0.3428 -0.9193
12805TIP3    H259907   3.829   6.646  13.112  1.8257  3.7386 -0.4422
12806TIP3   OH259908   1.674   5.260  16.346  0.1139 -0.1160  0.1478
12806TIP3    H159909   1.658   5.301  16.431 -0.8265 -0.7484  0.2878
12806TIP3    H259910   1.753   5.207  16.359 -0.4024 -0.7313  0.8239
12807TIP3   OH259911   2.324   5.166  14.078 -0.6981 -0.2138 -0.0905
12807TIP3    H159912   2.306   5.199  14.166  1.6605 -1.0284  0.7621
12807TIP3    H259913   2.367   5.239  14.033  3.4909 -1.4468  1.4390
12808TIP3   OH259914   4.220   4.694   3.351  0.0439 -0.2068 -1.1147
12808TIP3    H159915   4.275   4.762   3.390 -1.1708  0.4261 -0.4502
12808TIP3    H259916   4.134   4.708   3.389 -0.6977 -0.9061 -2.4505
12809TIP3   OH259917   0.112   0.402   3.154 -0.6320  0.7303 -0.4384
12809TIP3    H159918   0.085   0.458   3.227 -1.7873  0.0151 -0.3010
12809TIP3    H259919   0.039   0.404   3.093 -0.5747 -0.4050 -0.5658
12810TIP3   OH259920   5.371   3.243   6.182  0.5974  0.2646 -0.3366
12810TIP3    H159921   5.446   3.248   6.122  2.7167 -0.1065  2.1052
12810TIP3    H259922   5.320   3.322   6.163  1.1528  0.1777 -2.5626
12811TIP3   OH259923   5.010   2.027  14.590  0.4595  0.4951 -0.2298
12811TIP3    H159924   5.041   1.973  14.517  2.5060  0.0631  0.8869
12811TIP3    H259925   5.074   2.098  14.595 -0.1111  0.9487  0.6523
12812TIP3   OH259926   0.719   5.889  14.888 -0.2672 -0.1556 -0.0034
12812TIP3    H159927   0.703   5.810  14.836 -0.8289 -0.1168  0.1070
12812TIP3    H259928   0.644   5.945  14.871 -0.8271 -0.4246  1.3711
12813TIP3   OH259929   0.798   5.205  11.889  0.1573 -0.1378  0.5548
12813TIP3    H159930   0.818   5.197  11.982 -1.3365  0.6433  0.9752
12813TIP3    H259931   0.703   5.195  11.883  0.1922  0.0888 -0.8551
12814TIP3   OH259932   6.196   5.775   5.268  0.3274 -0.0950 -0.6638
12814TIP3    H159933   6.231   5.782   5.357 -0.3512  0.8800 -0.4629
12814TIP3    H259934   6.145   5.694   5.270  0.2267 -0.0240 -0.1331
12815TIP3   OH259935   2.338   0.377  13.143 -0.2029  0.1507 -0.0954
12815TIP3    H159936   2.429   0.400  13.160 -0.1709 -0.8115  1.0676
12815TIP3    H259937   2.318   0.306  13.203 -1.5095 -0.1644 -0.8486
12816TIP3   OH259938   2.990   1.849  12.922 -0.1938 -0.2883  0.1649
12816TIP3    H159939   2.924   1.875  12.857 -1.1978  0.6886  1.5303
12816TIP3    H259940   2.940   1.810  12.993  0.5985  1.1710  1.5850
12817TIP3   OH259941   4.857   2.938   5.646  0.2486  0.7660 -0.5377
12817TIP3    H159942   4.819   2.905   5.727 -1.5104  0.0212 -1.5833
12817TIP3    H259943   4.939   2.890   5.636 -0.2373 -0.2339  0.0858
12818TIP3   OH259944   6.484   5.039   3.459  0.0012 -0.1147  0.5317
12818TIP3    H159945   6.565   5.030   3.410 -0.1163 -1.6787  0.5766
12818TIP3    H259946   6.418   5.062   3.394  0.0101 -1.3555  0.0598
12819TIP3   OH259947   4.380   2.683  13.719  0.0961  1.3551  0.0446
12819TIP3    H159948   4.451   2.746  13.730 -0.3726  1.8641  0.1890
12819TIP3    H259949   4.318   2.702  13.790 -0.1754  0.9036 -0.0621
12820TIP3   OH259950   5.940   3.260   3.597 -0.3752  0.6799  0.1895
12820TIP3    H159951   5.897   3.225   3.675  0.1744  1.6442  0.9572
12820TIP3    H259952   5.919   3.354   3.598  1.3423  1.1105  0.3635
12821TIP3   OH259953   4.424   0.271  12.829  0.4382  0.2282 -0.3047
12821TIP3    H159954   4.432   0.216  12.751  0.7897  2.2539 -1.7978
12821TIP3    H259955   4.336   0.252  12.863  0.9327 -1.9381 -0.1604
12822TIP3   OH259956   4.082   0.056  12.885  0.8140  0.1759  0.0229
12822TIP3    H159957   4.062   0.035  12.794 -0.5215  1.3937 -0.0023
12822TIP3    H259958   4.102  -0.029  12.926 -1.3650 -0.7861 -0.7589
12823TIP3   OH259959   0.526   6.603   3.248 -0.0606 -0.1073 -0.1907
12823TIP3    H159960   0.433   6.624   3.250 -0.4022 -1.5880  0.8582
12823TIP3    H259961   0.537   6.549   3.170 -0.9441 -3.3714  1.7796
12824TIP3   OH259962   1.071   2.184   0.695  0.0992  0.0878 -0.2322
12824TIP3    H159963   1.099   2.272   0.669  1.7017 -1.0098 -2.6270
12824TIP3    H259964   1.078   2.133   0.614  1.1001 -2.6679  1.4631
12825TIP3   OH259965   4.618   2.034  12.205 -0.5571 -0.0480  0.4744
12825TIP3    H159966   4.688   2.064  12.263 -0.2039 -1.1908  0.6653
12825TIP3    H259967   4.658   2.031  12.118 -1.1517  1.8938  0.0666
12826TIP3   OH259968   0.905   1.261  12.691 -0.0324 -0.4820  0.0816
12826TIP3    H159969   1.000   1.271  12.694 -0.1732  0.8353  1.0374
12826TIP3    H259970   0.873   1.346  12.662 -0.9731 -0.6399  0.6359
12827TIP3   OH259971   1.776   3.453   2.322  0.2739  0.5906 -0.2576
12827TIP3    H159972   1.764   3.531   2.377  0.5402  0.3431  0.1631
12827TIP3    H259973   1.745   3.381   2.376  0.8987  0.2980 -0.2772
12828TIP3   OH259974   5.004   4.144  12.988  0.2203  0.0870 -0.2524
12828TIP3    H159975   4.996   4.049  12.995  0.9315 -0.1487 -2.0597
12828TIP3    H259976   5.095   4.162  13.012  0.5731  0.0887 -1.5215
12829TIP3   OH259977   5.403   0.539   4.621 -0.2516 -0.2439  0.2384
12829TIP3    H159978   5.374   0.493   4.700  1.7276 -0.7706  0.7175
12829TIP3    H259979   5.475   0.486   4.587  2.2897  2.4523  0.9203
12830TIP3   OH259980   4.403   6.216  17.286 -0.0146 -0.0824  0.2521
12830TIP3    H159981   4.463   6.213  17.360  2.3051  1.3086 -1.3925
12830TIP3    H259982   4.390   6.309  17.270  1.1900 -0.2474 -2.2086
12831TIP3   OH259983   1.178   4.137  15.527 -0.5353 -0.1646  0.7662
12831TIP3    H159984   1.225   4.220  15.539 -0.4215 -0.3619  1.8732
12831TIP3    H259985   1.245   4.077  15.495 -1.1935  0.7755 -2.7395
12832TIP3   OH259986   1.148   4.078  16.320 -0.3425 -0.1189  0.0398
12832TIP3    H159987   1.095   4.142  16.368  0.7906  0.4337  0.5824
12832TIP3    H259988   1.088   4.005  16.304 -0.4191 -0.9817  3.5561
12833TIP3   OH259989   4.573   0.494  11.628  0.9812 -0.2542 -0.0334
12833TIP3    H159990   4.639   0.440  11.670  0.7639 -0.4699  0.0294
12833TIP3    H259991   4.523   0.434  11.573  0.0691 -0.3152  0.8367
12834TIP3   OH259992   0.617   2.234   0.759  0.8138  0.6016  0.7610
12834TIP3    H159993   0.643   2.282   0.681 -0.8787 -0.0531 -0.2854
12834TIP3    H259994   0.684   2.168   0.770  0.7126  0.2251 -0.6258
12835TIP3   OH259995   0.788   5.566   3.627  0.0885 -0.5263 -0.0352
12835TIP3    H159996   0.864   5.539   3.575  0.3193 -2.3015  1.1500
12835TIP3    H259997   0.713   5.540   3.574  0.2382  1.2351 -1.2140
12836TIP3   OH259998   6.174   5.239  14.374 -0.1314 -0.3540  0.0760
12836TIP3    H159999   6.258   5.218  14.334 -0.7900 -0.1528 -1.4804
12836TIP3    H260000   6.153   5.163  14.429  1.3214 -0.1489  0.9860
12837TIP3   OH260001   6.131   1.159  11.370 -0.5488  0.3267 -0.5789
12837TIP3    H160002   6.188   1.106  11.426 -3.0871 -1.8758  0.1348
12837TIP3    H260003   6.085   1.217  11.430 -0.6863  0.5120 -0.8611
12838TIP3   OH260004   3.309   5.404  16.063  0.1857  0.0344 -0.1498
12838TIP3    H160005   3.335   5.496  16.058 -2.3702  0.8824  0.5495
12838TIP3    H260006   3.287   5.390  16.155  0.9836 -1.4491 -0.1573
12839TIP3   OH260007   6.019   6.554   1.996 -0.0553  0.2682 -0.0408
12839TIP3    H160008   6.026   6.648   2.010  1.2445  0.2026 -0.1400
12839TIP3    H260009   5.925   6.539   1.979 -0.3195  1.4900  0.2456
12840TIP3   OH260010   6.656   3.992   2.096  0.2599 -0.1182  0.3195
12840TIP3    H160011   6.590   4.061   2.105 -0.1993 -0.0593 -2.5943
12840TIP3    H260012   6.616   3.928   2.037  0.9418 -2.6100  2.4092
12841TIP3   OH260013   2.136   3.863   0.428  0.2283  0.4001 -0.2648
12841TIP3    H160014   2.158   3.895   0.516  0.4196 -3.1256  1.1479
12841TIP3    H260015   2.140   3.941   0.372  0.7358  2.6912  2.7011
12842TIP3   OH260016   4.746   1.901   1.985  0.2242  0.2563  0.2543
12842TIP3    H160017   4.791   1.855   2.056  2.2671 -1.2302 -1.8815
12842TIP3    H260018   4.717   1.833   1.926  1.1164  1.5347 -1.7649
12843TIP3   OH260019   2.398   2.658   0.006 -0.3995 -0.2636 -1.0327
12843TIP3    H160020   2.419   2.682  -0.084  0.4080  1.3018 -0.4644
12843TIP3    H260021   2.344   2.730   0.038  0.5428 -0.0525  0.1653
12844TIP3   OH260022   5.650   5.925   5.029  0.1850  0.3011  0.3368
12844TIP3    H160023   5.658   5.953   5.120  0.5332 -1.2184  0.7950
12844TIP3    H260024   5.568   5.876   5.026 -0.3309  1.1569 -0.4167
12845TIP3   OH260025   4.794   0.590   1.483 -0.0424 -0.2472  0.5764
12845TIP3    H160026   4.837   0.544   1.412 -0.4654  1.8431 -1.1304
12845TIP3    H260027   4.701   0.568   1.473 -0.3477  1.4628 -0.7098
12846TIP3   OH260028   1.972   6.027  12.494  0.0610 -0.0061 -0.8823
12846TIP3    H160029   2.010   6.025  12.582  1.1017 -0.9932 -1.3254
12846TIP3    H260030   1.942   5.938  12.479 -1.0034  0.3913 -1.1680
12847TIP3   OH260031   2.336   4.387   1.706  0.5714 -0.1442  0.6949
12847TIP3    H160032   2.248   4.425   1.705 -0.4110 -2.2262 -0.8892
12847TIP3    H260033   2.333   4.322   1.776 -0.1165 -2.0659 -1.0069
12848TIP3   OH260034   5.643   0.691  16.480 -0.2807 -0.6412  0.1291
12848TIP3    H160035   5.735   0.686  16.454 -0.0211  0.1486  0.8538
12848TIP3    H260036   5.604   0.752  16.416  0.4445  1.6100  1.6991
12849TIP3   OH260037   6.601   3.765  13.261  0.2502  0.2966 -0.6941
12849TIP3    H160038   6.561   3.835  13.312  0.5461 -0.6838  0.9771
12849TIP3    H260039   6.534   3.741  13.197 -1.7931 -0.9797  1.7061
12850TIP3   OH260040   2.688   2.861   0.785  0.6520  0.8907  0.0253
12850TIP3    H160041   2.752   2.875   0.855  1.6062 -1.0050 -0.3940
12850TIP3    H260042   2.722   2.911   0.711 -0.1057  2.5141  0.7295
12851TIP3   OH260043   0.835   1.338   4.279  0.1946 -0.4850 -0.0918
12851TIP3    H160044   0.928   1.323   4.296  0.3305  0.2452 -0.1518
12851TIP3    H260045   0.790   1.268   4.326  0.6991  0.0475  1.2275
12852TIP3   OH260046   3.957   4.761  14.851  0.2985 -0.2555 -0.0089
12852TIP3    H160047   3.965   4.683  14.905 -0.5428 -0.9283 -0.8207
12852TIP3    H260048   3.864   4.783  14.854  0.6313  1.1820  0.8156
12853TIP3   OH260049   4.445   2.484  16.944  0.1532  0.5979 -0.0327
12853TIP3    H160050   4.395   2.408  16.975  0.2733  0.3055 -0.5428
12853TIP3    H260051   4.442   2.478  16.848  1.4818  0.3667 -0.0793
12854TIP3   OH260052   0.628   2.284   0.489  0.4489 -0.0611  0.2643
12854TIP3    H160053   0.540   2.321   0.477  0.3845 -0.9280 -3.1507
12854TIP3    H260054   0.687   2.352   0.457  0.7880 -0.5557 -0.1719
12855TIP3   OH260055   4.866   6.282   4.434 -0.2112 -0.2699 -0.0826
12855TIP3    H160056   4.852   6.372   4.464 -2.0460  0.0838 -1.8100
12855TIP3    H260057   4.778   6.245   4.426  0.4006 -1.5255 -1.4047
12856TIP3   OH260058   3.348   4.795   5.170  0.1199  0.4147 -0.1185
12856TIP3    H160059   3.326   4.801   5.077 -0.4463  0.9993  0.0423
12856TIP3    H260060   3.314   4.710   5.197  0.3095  0.2313 -0.4519
12857TIP3   OH260061   4.170   6.039  11.123  0.2493  0.4781 -0.3941
12857TIP3    H160062   4.216   5.955  11.115  0.4278  0.5264  0.1020
12857TIP3    H260063   4.085   6.024  11.081 -1.0392 -0.9686  2.4232
12858TIP3   OH260064   0.183   6.387   1.220  0.0325 -0.6079 -0.4937
12858TIP3    H160065   0.098   6.345   1.215  0.4602 -1.4128 -1.4450
12858TIP3    H260066   0.245   6.315   1.227  0.5493  0.0130  2.3890
12859TIP3   OH260067   6.501   1.059   2.328 -0.5499 -0.3960 -0.0502
12859TIP3    H160068   6.596   1.044   2.325 -0.3445  0.7700 -0.0973
12859TIP3    H260069   6.481   1.069   2.421 -0.1956  1.6329 -0.1382
12860TIP3   OH260070   5.463   0.611  13.821 -0.0240 -0.0566 -0.0683
12860TIP3    H160071   5.394   0.597  13.886 -0.0771  0.0663 -0.0972
12860TIP3    H260072   5.545   0.596  13.869 -0.0918 -1.5948 -0.3677
12861TIP3   OH260073   5.182   0.205  15.154 -0.2681 -0.3682 -0.4956
12861TIP3    H160074   5.236   0.167  15.224 -0.5504  0.8036  0.3911
12861TIP3    H260075   5.137   0.130  15.115 -1.8061 -0.8897  2.0316
12862TIP3   OH260076   2.761   0.242   0.556 -0.3223 -0.0131 -0.2309
12862TIP3    H160077   2.687   0.240   0.617 -0.3596  0.0483 -0.2739
12862TIP3    H260078   2.834   0.275   0.609 -0.1736 -0.6596 -0.0267
12863TIP3   OH260079   5.938   0.251   0.372 -0.0048 -0.4410 -0.2609
12863TIP3    H160080   5.858   0.212   0.338  0.1803 -0.1830 -1.0292
12863TIP3    H260081   6.000   0.244   0.299  0.4766 -0.0761  0.1090
12864TIP3   OH260082   4.830   4.364  15.251 -0.0070 -0.7475  0.2788
12864TIP3    H160083   4.917   4.403  15.262 -0.1530  0.2569 -1.7875
12864TIP3    H260084   4.769   4.435  15.273 -0.3391 -1.3558  1.4106
12865TIP3   OH260085   6.583   6.488   5.584  0.5218  0.8162  0.4725
12865TIP3    H160086   6.489   6.505   5.582  0.3431 -0.0565 -1.7250
12865TIP3    H260087   6.596   6.421   5.517  2.6997  0.8300  0.8297
12866TIP3   OH260088   0.123   0.293   0.515  0.2563  0.3517 -0.2059
12866TIP3    H160089   0.122   0.261   0.606 -0.6510  1.5869  0.2456
12866TIP3    H260090   0.035   0.276   0.482 -0.0838  1.8245 -0.1263
12867TIP3   OH260091   6.096   0.241  16.305  0.0463  0.7258  0.2251
12867TIP3    H160092   6.177   0.266  16.350  2.0390 -0.8951 -2.1673
12867TIP3    H260093   6.072   0.318  16.254  1.6449  0.4386 -1.0493
12868TIP3   OH260094   6.466   5.792  16.650 -0.3333  0.6419 -0.3139
12868TIP3    H160095   6.402   5.861  16.668  1.6722  2.0845  1.8898
12868TIP3    H260096   6.460   5.777  16.556 -2.6631  1.9032 -0.4440
12869TIP3   OH260097   3.297   6.474  12.177  0.6814 -0.2045  0.0986
12869TIP3    H160098   3.235   6.496  12.247 -0.2356  1.4852 -1.1535
12869TIP3    H260099   3.349   6.403  12.212  1.9292  2.1449  3.5117
12870TIP3   OH260100   1.324   3.286  13.194 -0.2907  0.0866 -0.5124
12870TIP3    H160101   1.257   3.353  13.181 -0.1193  0.3808  0.0671
12870TIP3    H260102   1.353   3.263  13.106 -1.1309 -0.0263 -0.7695
12871TIP3   OH260103   0.362   4.527   6.039 -0.5286  0.3372 -0.6101
12871TIP3    H160104   0.430   4.535   6.106 -0.9620  0.3019 -0.1631
12871TIP3    H260105   0.323   4.441   6.054  0.0824 -0.1288 -1.5900
12872TIP3   OH260106   3.606   4.284  14.780 -0.0183  0.1718 -0.1643
12872TIP3    H160107   3.612   4.207  14.836 -2.7138 -0.1686 -0.2286
12872TIP3    H260108   3.539   4.339  14.820  2.6002  3.1522  0.5258
12873TIP3   OH260109   6.079   3.832  15.695  0.0229 -0.0773  0.1761
12873TIP3    H160110   6.101   3.896  15.761 -1.3062  0.7548 -0.1462
12873TIP3    H260111   6.014   3.875  15.640  1.6323 -0.4425 -2.1673
12874TIP3   OH260112   5.827   4.229  12.384  0.7505 -0.7733  0.5812
12874TIP3    H160113   5.880   4.264  12.311 -0.7423  0.7052  0.1357
12874TIP3    H260114   5.846   4.136  12.385  1.9361 -0.5800 -0.7620
12875TIP3   OH260115   1.809   4.220  14.855 -0.3246  0.3327 -0.1431
12875TIP3    H160116   1.844   4.209  14.766  0.2804  0.7685  0.0343
12875TIP3    H260117   1.723   4.261  14.842 -0.5945 -0.3630 -0.5644
12876TIP3   OH260118   1.049   1.829  12.138 -0.8508 -0.4973  0.1801
12876TIP3    H160119   0.995   1.830  12.217 -0.9019 -4.3587  0.3695
12876TIP3    H260120   0.987   1.811  12.067 -0.4587  0.4397 -0.4262
12877TIP3   OH260121   4.563   4.482  15.404  0.7452 -0.0025 -0.1958
12877TIP3    H160122   4.606   4.439  15.478  0.9657  1.1854  0.3796
12877TIP3    H260123   4.472   4.493  15.432  0.4091 -1.0613 -0.7862
12878TIP3   OH260124   0.274   4.831   3.842  0.1640 -0.5692  0.3465
12878TIP3    H160125   0.226   4.887   3.782  0.7576  0.1591  0.5341
12878TIP3    H260126   0.213   4.814   3.914  0.4964  1.2310  1.1205
12879TIP3   OH260127   3.409   3.209   4.316  0.2405  0.2793  0.1580
12879TIP3    H160128   3.378   3.297   4.339 -1.1468  0.3296 -1.6380
12879TIP3    H260129   3.414   3.163   4.400 -2.3755  1.0619  0.8567
12880TIP3   OH260130   1.505   3.858   4.279  0.2134 -0.0280 -0.2206
12880TIP3    H160131   1.586   3.867   4.330  0.9624  0.1772 -1.4165
12880TIP3    H260132   1.508   3.929   4.215 -2.4439  1.9603  1.6374
12881TIP3   OH260133   1.408   1.534   0.421  0.2559 -0.1553 -0.0827
12881TIP3    H160134   1.407   1.495   0.334 -0.2079  0.5816 -0.4228
12881TIP3    H260135   1.323   1.512   0.458  0.6230 -0.8401  0.3586
12882TIP3   OH260136   2.164   6.534  14.264  0.2219 -0.3326 -0.5141
12882TIP3    H160137   2.244   6.515  14.215  0.3128  1.2531 -1.0292
12882TIP3    H260138   2.093   6.502  14.208  0.4470 -0.7625 -0.5539
12883TIP3   OH260139   4.860   2.555   3.107  0.8033  0.4063  0.2165
12883TIP3    H160140   4.825   2.470   3.133  1.1954  0.2291  0.1840
12883TIP3    H260141   4.955   2.543   3.108  0.9032  1.1224  1.1715
12884TIP3   OH260142   0.605   1.089   0.353 -0.4865 -0.5269  0.3567
12884TIP3    H160143   0.512   1.070   0.362 -0.5756 -0.5218 -0.4781
12884TIP3    H260144   0.609   1.167   0.298  0.0470 -1.7250 -1.4085
12885TIP3   OH260145   1.209   4.687  14.396 -0.0754 -0.6322 -0.2775
12885TIP3    H160146   1.217   4.779  14.369  1.3663  0.2139  2.6758
12885TIP3    H260147   1.159   4.690  14.477  0.3423 -2.4257  0.0775
12886TIP3   OH260148   5.978   0.007  12.277 -0.2629 -0.2387  0.0833
12886TIP3    H160149   5.953  -0.055  12.345  0.4977 -0.1603  0.4372
12886TIP3    H260150   5.971  -0.044  12.196  0.6165 -0.8840  0.3950
12887TIP3   OH260151   0.265   0.454  13.226  0.1188  0.1804 -0.2804
12887TIP3    H160152   0.175   0.426  13.244  0.3063  0.3796  1.0729
12887TIP3    H260153   0.294   0.397  13.154 -0.9949 -0.0480 -0.5678
12888TIP3   OH260154   5.923   6.516   5.472  0.6940  0.2756  0.0959
12888TIP3    H160155   5.968   6.550   5.394  0.4242  1.9249  0.6162
12888TIP3    H260156   5.846   6.471   5.438  1.0815  0.1594 -0.6396
12889TIP3   OH260157   2.367   6.265  15.491  0.4030  0.4956 -0.0877
12889TIP3    H160158   2.275   6.290  15.478  0.2014 -0.4967 -0.6859
12889TIP3    H260159   2.417   6.340  15.457 -0.1725 -0.1701 -2.5983
12890TIP3   OH260160   1.728   4.630  12.292 -0.0482  0.4059  0.1277
12890TIP3    H160161   1.749   4.693  12.223  1.6164  0.3028  0.4856
12890TIP3    H260162   1.698   4.552  12.245  0.5796  0.5148 -0.4736
12891TIP3   OH260163   3.195   2.823   3.330 -0.2123  0.0648  0.2712
12891TIP3    H160164   3.259   2.792   3.266  0.1847  1.8459 -0.2519
12891TIP3    H260165   3.198   2.758   3.401 -1.1107 -2.3115 -1.7132
12892TIP3   OH260166   2.595   2.911  11.399  0.1509 -0.0559  0.3882
12892TIP3    H160167   2.562   2.997  11.375 -1.8070 -0.9660 -0.4199
12892TIP3    H260168   2.525   2.850  11.373  2.0022 -2.0288 -0.2828
12893TIP3   OH260169   3.467   3.858  10.806  0.3492  0.1317  0.1674
12893TIP3    H160170   3.389   3.899  10.843  0.5089 -0.1883  0.8625
12893TIP3    H260171   3.493   3.917  10.735 -1.7115 -0.7697 -1.4819
12894TIP3   OH260172   4.686   6.306  11.944 -0.2828  0.1779  0.1769
12894TIP3    H160173   4.684   6.281  12.037  0.2506  0.3258  0.2340
12894TIP3    H260174   4.597   6.291  11.913  0.3230 -3.4391 -0.2486
12895TIP3   OH260175   4.106   2.635   2.762  0.1433 -0.3622 -0.3408
12895TIP3    H160176   4.138   2.714   2.806 -1.3083  0.8793 -1.3837
12895TIP3    H260177   4.168   2.567   2.787  0.9588  0.9003  1.3073
12896TIP3   OH260178   3.454   3.055  16.191 -0.4222  0.1743 -0.6434
12896TIP3    H160179   3.500   3.013  16.264  0.6810  0.4810 -1.1520
12896TIP3    H260180   3.509   3.129  16.167  0.0992 -0.8493 -2.8332
12897TIP3   OH260181   0.583   3.772   1.062  0.3282 -0.4056  0.7524
12897TIP3    H160182   0.517   3.715   1.025  1.4507 -0.3330 -1.5188
12897TIP3    H260183   0.546   3.860   1.053  0.1554 -0.4722  0.8057
12898TIP3   OH260184   2.787   2.934  15.483 -0.2597 -0.0706  0.2631
12898TIP3    H160185   2.701   2.899  15.505  0.3664 -1.3863  0.7481
12898TIP3    H260186   2.846   2.895  15.548  0.9248 -0.4226 -0.9796
12899TIP3   OH260187   2.958   0.173   4.082  0.1706 -0.1960 -0.5494
12899TIP3    H160188   3.040   0.189   4.035  1.3820 -2.3271  0.6498
12899TIP3    H260189   2.948   0.247   4.141  2.3195 -0.7635  0.6368
12900TIP3   OH260190   5.112   1.846  15.212 -0.1095  0.6720  0.3538
12900TIP3    H160191   5.034   1.891  15.244 -0.1328 -0.0383  1.3536
12900TIP3    H260192   5.168   1.915  15.177 -1.3740  1.1490 -0.8251
12901TIP3   OH260193   3.128   0.434   2.548  0.0675 -0.0257 -0.6306
12901TIP3    H160194   3.033   0.441   2.534 -0.1544  0.7490  1.0484
12901TIP3    H260195   3.166   0.472   2.469 -1.0466  1.0770 -0.6709
12902TIP3   OH260196   3.223   2.048   4.974 -0.7683 -0.0041 -0.2694
12902TIP3    H160197   3.151   2.102   4.940  0.3326  2.0875  0.5373
12902TIP3    H260198   3.179   1.982   5.027 -2.1443  1.1733  0.1342
12903TIP3   OH260199   6.485   5.699   1.226  0.1562 -0.3704  0.2539
12903TIP3    H160200   6.440   5.783   1.216 -1.0403 -0.6227  2.7541
12903TIP3    H260201   6.565   5.721   1.275 -0.9697 -0.8098  2.4099
12904TIP3   OH260202   1.826   4.744  10.460 -0.0769 -0.4521 -0.1922
12904TIP3    H160203   1.804   4.697  10.380 -1.0313 -0.3502 -0.0051
12904TIP3    H260204   1.743   4.750  10.508  0.3500  0.0405  0.5129
12905TIP3   OH260205   2.563   0.263   2.498 -0.2241  0.1309 -1.0402
12905TIP3    H160206   2.648   0.226   2.522 -0.0647  1.3347  0.4107
12905TIP3    H260207   2.529   0.204   2.431  1.9919 -0.0803 -2.0701
12906TIP3   OH260208   5.017   1.808  11.673  0.2787 -0.1418 -0.4909
12906TIP3    H160209   4.938   1.764  11.640  0.3881  1.3203 -3.0126
12906TIP3    H260210   5.053   1.748  11.738 -1.5025 -2.0346 -1.1329
12907TIP3   OH260211   2.092   6.256  16.018  0.5509  0.2088  0.7341
12907TIP3    H160212   2.177   6.222  16.047 -0.2154 -0.4557  2.3493
12907TIP3    H260213   2.029   6.193  16.053 -0.6458  1.0604  0.1383
12908TIP3   OH260214   4.760   3.139  15.294  0.1836 -0.2080 -0.4039
12908TIP3    H160215   4.685   3.117  15.239 -0.7020 -1.2083  1.1522
12908TIP3    H260216   4.723   3.175  15.374  1.3653 -0.4046  0.2617
12909TIP3   OH260217   4.952   1.564  16.418 -0.4490 -0.2875  0.2332
12909TIP3    H160218   5.022   1.527  16.364  0.2133 -1.7430  1.9901
12909TIP3    H260219   4.879   1.503  16.406 -0.5278 -0.2316  0.4454
12910TIP3   OH260220   2.724   1.368  14.416  0.2023 -0.2013 -0.5975
12910TIP3    H160221   2.689   1.280  14.425  1.5525 -0.8739 -1.6384
12910TIP3    H260222   2.800   1.370  14.475  0.4730  0.0900 -0.9515
12911TIP3   OH260223   1.237   2.298  15.138 -0.2645 -0.3673  0.2361
12911TIP3    H160224   1.166   2.359  15.118 -0.2893 -0.3095  0.4941
12911TIP3    H260225   1.251   2.308  15.232 -0.3231 -0.8191  0.2937
12912TIP3   OH260226   1.102   3.545   4.361 -0.5897  0.2758  0.0937
12912TIP3    H160227   1.072   3.543   4.452  1.1280 -0.5590  0.6887
12912TIP3    H260228   1.191   3.581   4.365  0.0970 -1.1547 -1.0354
12913TIP3   OH260229   1.243   2.330  13.868  0.6295 -0.1110 -0.5789
12913TIP3    H160230   1.300   2.369  13.803  0.6936 -1.9279 -1.6618
12913TIP3    H260231   1.196   2.261  13.822  0.7013 -1.5045  1.2840
12914TIP3   OH260232   5.598   0.020   4.629 -0.1579  0.1223  0.1018
12914TIP3    H160233   5.669   0.072   4.667  0.2804 -0.6095  0.3105
12914TIP3    H260234   5.617   0.020   4.535  0.9439 -1.2336  0.2920
12915TIP3   OH260235   6.046   0.961   0.792  0.5367  0.0204 -0.2807
12915TIP3    H160236   6.089   1.045   0.806 -0.7077  0.3545  1.9761
12915TIP3    H260237   6.021   0.961   0.700  0.0161  2.3828 -0.1757
12916TIP3   OH260238   3.604   2.491   3.249  0.4492  0.4794  0.3176
12916TIP3    H160239   3.578   2.399   3.243 -2.7830  1.3192 -0.5568
12916TIP3    H260240   3.659   2.506   3.172  1.0619 -0.7007  0.5044
12917TIP3   OH260241   3.667   2.643   0.110 -0.5984  0.0511  0.3955
12917TIP3    H160242   3.747   2.695   0.103 -0.6250 -0.0391 -0.7537
12917TIP3    H260243   3.672   2.602   0.197  0.5363  0.1497  0.3898
12918TIP3   OH260244   6.561   6.616  15.716  0.2906 -0.4307 -0.0795
12918TIP3    H160245   6.615   6.545  15.683  0.5633 -0.3543  0.1926
12918TIP3    H260246   6.472   6.582  15.716  0.6521 -1.5362  2.0274
12919TIP3   OH260247   4.536   2.423  13.351 -0.1533 -0.7327 -0.3504
12919TIP3    H160248   4.619   2.454  13.387 -1.4593  1.5370  0.9604
12919TIP3    H260249   4.475   2.494  13.368 -2.5383 -2.5828 -0.6524
12920TIP3   OH260250   1.526   4.748   3.034  0.4006  0.5592 -0.4835
12920TIP3    H160251   1.478   4.669   3.008  0.6151 -0.0102  0.7507
12920TIP3    H260252   1.610   4.741   2.989  1.1106 -0.8597  0.9492
12921TIP3   OH260253   5.439   4.073  11.829 -0.3984  0.5797 -0.4995
12921TIP3    H160254   5.368   4.039  11.884  0.3548  1.6885  1.2585
12921TIP3    H260255   5.512   4.012  11.844 -0.6082  0.0857 -1.4133
12922TIP3   OH260256   2.029   0.682  14.146  0.4242 -0.3213 -0.3860
12922TIP3    H160257   2.039   0.768  14.105  1.3233  0.5342  1.4845
12922TIP3    H260258   2.115   0.664  14.184 -0.3383 -1.0751  1.0359
12923TIP3   OH260259   4.142   6.279  12.838  0.2379 -0.2661  0.3156
12923TIP3    H160260   4.061   6.233  12.817  1.2125 -1.8773 -0.0472
12923TIP3    H260261   4.116   6.343  12.905 -1.4294 -0.3250 -0.2162
12924TIP3   OH260262   4.354   4.540  16.923  0.0777  0.1884 -0.0629
12924TIP3    H160263   4.410   4.462  16.919 -0.5457 -0.2660 -0.1502
12924TIP3    H260264   4.413   4.613  16.906  0.5465 -0.3322 -0.7496
12925TIP3   OH260265   6.625   1.346  11.452  0.7811 -0.3324 -0.7033
12925TIP3    H160266   6.572   1.404  11.507  0.2254 -0.1793 -1.3954
12925TIP3    H260267   6.594   1.362  11.363  0.1639 -2.1610 -0.8467
12926TIP3   OH260268   6.501   2.421   1.338 -0.0181  0.0794 -0.1066
12926TIP3    H160269   6.588   2.399   1.306 -0.5459 -0.6091 -1.1305
12926TIP3    H260270   6.471   2.492   1.281 -0.4476 -0.2391 -0.2791
12927TIP3   OH260271   1.598   1.221  12.945  0.7649  0.1225 -0.0720
12927TIP3    H160272   1.664   1.173  12.994  2.2429 -0.3497 -2.3477
12927TIP3    H260273   1.514   1.183  12.972  1.4518  0.1515  2.2590
12928TIP3   OH260274   2.075   0.709  12.822 -0.5076 -0.1474 -0.2369
12928TIP3    H160275   2.086   0.794  12.866 -0.2390  0.1762 -0.9144
12928TIP3    H260276   1.982   0.689  12.830 -0.8501  0.8954 -1.2847
12929TIP3   OH260277   1.655   3.916   5.603 -0.0572 -0.0603  0.0594
12929TIP3    H160278   1.656   3.821   5.618 -0.0109  0.0881  1.0453
12929TIP3    H260279   1.619   3.953   5.683  0.2841  0.7885 -0.1635
12930TIP3   OH260280   3.033   1.109   0.093 -0.0098 -0.2434 -0.4131
12930TIP3    H160281   3.058   1.196   0.063  0.3787  0.4415  1.6866
12930TIP3    H260282   2.951   1.122   0.140  1.3516 -0.4253  2.2304
12931TIP3   OH260283   0.617   5.948   3.356  0.3402  0.1006 -0.0830
12931TIP3    H160284   0.642   5.886   3.288  1.6005  1.1852 -0.6626
12931TIP3    H260285   0.625   5.898   3.438  0.5897 -0.7094 -0.5929
12932TIP3   OH260286   6.677   0.774   4.257 -0.5557 -0.2407 -0.1276
12932TIP3    H160287   6.632   0.850   4.292 -1.5285 -0.8270 -0.0513
12932TIP3    H260288   6.770   0.792   4.269 -0.8151  0.3326  1.1430
12933TIP3   OH260289   4.634   1.438   0.810 -0.3298  0.2407  0.9105
12933TIP3    H160290   4.576   1.362   0.799 -0.2099  0.0350  1.6513
12933TIP3    H260291   4.624   1.463   0.902  1.1926 -0.1715  1.2188
12934TIP3   OH260292   0.242   3.915  17.133 -0.4882  0.0612 -0.0982
12934TIP3    H160293   0.266   4.002  17.101  0.4942 -0.2731 -0.2992
12934TIP3    H260294   0.193   3.932  17.214  0.4515  0.7784  0.3387
12935TIP3   OH260295   3.616   0.073  15.374 -0.1796 -0.3170 -0.6981
12935TIP3    H160296   3.536   0.027  15.399  0.4571 -1.2312 -0.2465
12935TIP3    H260297   3.635   0.131  15.448 -1.0265  0.7449 -1.3011
12936TIP3   OH260298   5.859   0.822   3.049  0.5602 -0.0923  0.4772
12936TIP3    H160299   5.951   0.818   3.020 -0.4016 -0.8798 -2.9209
12936TIP3    H260300   5.841   0.734   3.084  1.0570  0.0384  1.0782
12937TIP3   OH260301   4.264   4.839  17.046 -0.4032  0.4254  0.5236
12937TIP3    H160302   4.307   4.828  16.962 -1.5702  0.3864 -0.0769
12937TIP3    H260303   4.308   4.777  17.104 -1.2022 -1.3287 -0.6650
12938TIP3   OH260304   0.901   1.471  13.037 -0.1216 -0.8438  0.3937
12938TIP3    H160305   0.847   1.548  13.021  2.0362  0.8252  0.7601
12938TIP3    H260306   0.928   1.441  12.950  0.5084 -0.0797  0.3243
12939TIP3   OH260307   3.721   2.579  16.292 -0.1360 -0.4140  0.1957
12939TIP3    H160308   3.700   2.598  16.200 -0.4949 -0.1433  0.3327
12939TIP3    H260309   3.638   2.593  16.338  0.4374  1.0805  0.8174
12940TIP3   OH260310   0.278   3.394   1.410  0.5062 -0.3792  0.3160
12940TIP3    H160311   0.271   3.362   1.320  0.4062 -1.3384  0.6604
12940TIP3    H260312   0.242   3.324   1.464 -2.3618  1.4244  0.9429
12941TIP3   OH260313   5.632   1.002  10.915 -0.3973 -0.2425 -0.1779
12941TIP3    H160314   5.675   1.031  10.996 -1.2360 -0.9214  0.5295
12941TIP3    H260315   5.542   1.033  10.923 -0.1280  1.0356 -1.5789
12942TIP3   OH260316   0.615   0.338  11.815 -0.0483  0.0548  0.1027
12942TIP3    H160317   0.630   0.247  11.790  0.7439  0.8930 -2.9936
12942TIP3    H260318   0.679   0.355  11.884  2.7248 -0.7269 -2.0777
12943TIP3   OH260319   6.064   3.348   5.588  0.1905 -0.4986  0.3623
12943TIP3    H160320   6.074   3.264   5.544  0.9996 -0.8707  1.2116
12943TIP3    H260321   6.125   3.406   5.543 -1.9434  0.3138 -1.7079
12944TIP3   OH260322   1.730   0.327  12.760 -0.2944  0.4040  0.5399
12944TIP3    H160323   1.775   0.339  12.677 -0.5709  3.9511  0.7692
12944TIP3    H260324   1.799   0.301  12.821  0.1339 -0.9156 -0.4551
12945TIP3   OH260325   4.246   2.198  15.428  0.7179  0.0056  0.0243
12945TIP3    H160326   4.166   2.146  15.418  1.5185 -1.0999 -0.9568
12945TIP3    H260327   4.215   2.286  15.452 -0.6586 -1.0463  2.5453
12946TIP3   OH260328   0.470   0.300   0.862 -0.5279  0.2950 -0.1139
12946TIP3    H160329   0.475   0.258   0.948  0.4399  2.5199  1.0034
12946TIP3    H260330   0.558   0.336   0.848 -0.5219 -0.3919 -2.2803
12947TIP3   OH260331   4.774   5.963  11.523  0.1438 -0.0013 -0.1417
12947TIP3    H160332   4.774   5.906  11.599  0.7240  0.6519  0.3649
12947TIP3    H260333   4.683   5.964  11.494 -0.3639  0.7541  1.3450
12948TIP3   OH260334   4.148   5.876  12.143  0.0936 -0.4787 -0.0753
12948TIP3    H160335   4.201   5.881  12.222 -0.4014  1.3776  0.1977
12948TIP3    H260336   4.143   5.966  12.112 -1.2327 -0.8980 -1.2018
12949TIP3   OH260337   2.604   5.070   5.481  0.1078  0.5643  1.3231
12949TIP3    H160338   2.524   5.052   5.531  0.1942  1.0694  1.6364
12949TIP3    H260339   2.648   4.985   5.475 -1.0137  0.0286  0.1593
12950TIP3   OH260340   5.658   2.565   5.466 -0.1652 -0.1579  0.1811
12950TIP3    H160341   5.693   2.475   5.467 -0.1531 -0.1651 -0.7783
12950TIP3    H260342   5.625   2.577   5.555  0.7200 -0.7625  0.6196
12951TIP3   OH260343   2.903   6.132   4.094 -0.5262 -0.1906  0.5846
12951TIP3    H160344   2.930   6.218   4.126 -1.3614  0.3125 -0.0147
12951TIP3    H260345   2.845   6.098   4.163 -1.9107  0.6703 -0.1041
12952TIP3   OH260346   2.514   0.240  14.519  0.6825  0.5387 -0.7354
12952TIP3    H160347   2.441   0.270  14.573  1.0464 -0.2295  0.2048
12952TIP3    H260348   2.577   0.312  14.520  1.3178  0.0047  1.0704
12953TIP3   OH260349   5.203   4.299   5.192  0.6149  0.2561 -0.1172
12953TIP3    H160350   5.220   4.288   5.098 -0.6162 -2.4317 -0.1193
12953TIP3    H260351   5.121   4.347   5.196  1.5827  1.9877 -0.3393
12954TIP3   OH260352   2.943   5.052   1.962  0.1352 -0.4876  0.5388
12954TIP3    H160353   2.977   5.066   2.050  1.0335 -0.7515  0.2478
12954TIP3    H260354   2.848   5.062   1.970  0.3524  1.3043  1.1730
12955TIP3   OH260355   5.940   2.014   0.836  0.0900 -0.1865 -0.4041
12955TIP3    H160356   5.860   1.978   0.799 -1.0192  3.6004 -2.1915
12955TIP3    H260357   6.009   1.990   0.774 -0.4591  0.0687 -1.1196
12956TIP3   OH260358   5.847   0.745  14.653  0.5524  0.4378 -0.4006
12956TIP3    H160359   5.862   0.684  14.582  0.6178  1.5038 -1.3302
12956TIP3    H260360   5.921   0.806  14.648 -0.6094  1.8623 -0.8843
12957TIP3   OH260361   3.720   6.462   2.479  0.6550  0.3118  0.1193
12957TIP3    H160362   3.698   6.379   2.522  0.0227  0.6445  0.4532
12957TIP3    H260363   3.757   6.436   2.395  0.3487 -0.3158  0.1723
12958TIP3   OH260364   4.562   1.689  13.167 -0.4803 -0.3153 -0.5785
12958TIP3    H160365   4.633   1.677  13.230 -0.2312  1.6781 -0.4064
12958TIP3    H260366   4.487   1.714  13.220 -0.7668 -0.4469 -0.9206
12959TIP3   OH260367   2.624   2.987  13.357 -0.1661  0.5982  0.1023
12959TIP3    H160368   2.629   2.956  13.267  0.1834  0.8547  0.0332
12959TIP3    H260369   2.666   3.073  13.356  1.2468 -0.0448  0.8072
12960TIP3   OH260370   3.915   5.094   3.473 -0.8021  0.1764 -0.4247
12960TIP3    H160371   3.968   5.074   3.396  0.3329  1.1250  0.0669
12960TIP3    H260372   3.938   5.027   3.536  0.4559  1.0203  0.0576
12961TIP3   OH260373   4.136   2.103   0.191 -0.3983 -0.1779  0.0918
12961TIP3    H160374   4.147   2.011   0.216  2.2686 -0.1372 -0.5345
12961TIP3    H260375   4.075   2.101   0.117 -1.9873 -1.1581  1.3644
12962TIP3   OH260376   0.492   3.589  10.612  0.2063  0.5910 -0.0807
12962TIP3    H160377   0.433   3.516  10.635  0.9206  0.3333  1.0286
12962TIP3    H260378   0.433   3.663  10.596 -0.7135 -0.6922 -3.4536
12963TIP3   OH260379   2.031   4.267  13.537  0.3399  0.0446  0.0257
12963TIP3    H160380   2.062   4.324  13.466  0.2256  0.2506  0.1398
12963TIP3    H260381   2.061   4.310  13.617 -0.8148  0.6065  0.1737
12964TIP3   OH260382   0.379   2.740   2.022 -0.1552  0.1096  0.2615
12964TIP3    H160383   0.362   2.834   2.012  0.9545  0.4156  1.0602
12964TIP3    H260384   0.445   2.721   1.954  0.1876  0.0827  0.5990
12965TIP3   OH260385   2.378   3.826   4.855  0.3326  0.1236  0.2811
12965TIP3    H160386   2.421   3.742   4.838 -1.7477 -0.7290 -1.1154
12965TIP3    H260387   2.354   3.821   4.948 -0.1802 -1.0365  0.1022
12966TIP3   OH260388   3.097   1.382  14.727  0.0629 -0.4464  0.1562
12966TIP3    H160389   3.185   1.392  14.761  0.4498  0.1413 -0.9422
12966TIP3    H260390   3.083   1.461  14.674 -1.4082 -0.1647  0.9250
12967TIP3   OH260391   1.890   5.721   3.329 -0.0097 -0.5844  0.6874
12967TIP3    H160392   1.845   5.768   3.259 -0.3110  0.7185  1.7007
12967TIP3    H260393   1.819   5.692   3.387  0.3743  2.5572  2.9571
12968TIP3   OH260394   2.570   3.083   2.026 -0.0160 -0.0236 -0.4531
12968TIP3    H160395   2.663   3.087   2.051  0.3556 -2.0300 -1.2963
12968TIP3    H260396   2.572   3.083   1.930 -0.7100 -2.0533 -0.5138
12969TIP3   OH260397   4.832   0.786   2.764  0.1419 -0.0392 -0.2013
12969TIP3    H160398   4.912   0.735   2.765  0.7885  0.9448  0.6034
12969TIP3    H260399   4.830   0.830   2.849 -0.2524  1.4481 -0.9377
12970TIP3   OH260400   3.814   4.704   5.023  0.0516  0.3165  0.2024
12970TIP3    H160401   3.879   4.769   4.996 -1.8415  1.9005 -0.8828
12970TIP3    H260402   3.792   4.729   5.113  0.1317  0.5067  0.1705
12971TIP3   OH260403   4.555   1.246   4.633 -0.1290  0.1190 -0.0032
12971TIP3    H160404   4.541   1.154   4.611 -2.4879  0.3329  0.2661
12971TIP3    H260405   4.574   1.246   4.726 -0.2228 -0.0933  0.0159
12972TIP3   OH260406   2.101   5.716  10.755 -0.2324  0.3507 -0.1404
12972TIP3    H160407   2.177   5.751  10.802 -0.2903 -0.6527  0.7350
12972TIP3    H260408   2.026   5.759  10.796 -0.2361  0.0497  0.1718
12973TIP3   OH260409   6.480   1.667   0.947  0.0380 -0.8328 -0.6173
12973TIP3    H160410   6.560   1.650   0.898  0.6919 -1.0997  0.5159
12973TIP3    H260411   6.508   1.674   1.038 -1.1785 -0.5622 -0.2433
12974TIP3   OH260412   5.667   5.444  10.747 -0.2776  0.1299 -0.3633
12974TIP3    H160413   5.606   5.409  10.682  2.1242 -1.0059 -2.2086
12974TIP3    H260414   5.672   5.537  10.727 -0.6385  0.0464 -0.8660
12975TIP3   OH260415   4.713   5.605  16.834 -0.0385 -0.4231 -0.0140
12975TIP3    H160416   4.720   5.511  16.854  1.0952 -0.8338 -2.1039
12975TIP3    H260417   4.705   5.647  16.920  1.1592 -2.2960  1.0741
12976TIP3   OH260418   0.670   2.529   6.307  0.3272 -0.2685 -0.0177
12976TIP3    H160419   0.724   2.504   6.232 -0.2765  0.2927 -0.6519
12976TIP3    H260420   0.591   2.566   6.268  0.9694  2.2043  0.8429
12977TIP3   OH260421   3.783   0.818  14.186  0.0960  0.0160  0.1037
12977TIP3    H160422   3.823   0.903  14.167  0.6385 -0.3891 -0.6238
12977TIP3    H260423   3.832   0.785  14.261 -0.4598  0.5591  0.7274
12978TIP3   OH260424   6.547   2.501  15.616 -0.0253  0.3380  0.5170
12978TIP3    H160425   6.488   2.472  15.687  0.4458  0.1881  0.8541
12978TIP3    H260426   6.615   2.552  15.661  0.6112 -0.2596  0.2515
12979TIP3   OH260427   2.662   3.561   4.790  0.0018  0.2582  0.4139
12979TIP3    H160428   2.716   3.534   4.864  0.1298  0.2546  0.3197
12979TIP3    H260429   2.574   3.568   4.826 -0.0618 -0.4198  0.4051
12980TIP3   OH260430   1.781   2.455   1.034  0.0261 -0.7361  0.0572
12980TIP3    H160431   1.686   2.443   1.026 -0.1014  0.1352  0.2642
12980TIP3    H260432   1.807   2.494   0.951  0.0184  0.1644  0.4749
12981TIP3   OH260433   0.113   0.047   3.160 -0.2119  0.3620 -0.0575
12981TIP3    H160434   0.188   0.083   3.112  1.4507 -3.2603 -0.4989
12981TIP3    H260435   0.122   0.083   3.248  0.6379  1.8508 -0.7128
12982TIP3   OH260436   5.663   5.857  15.222 -0.2490  0.2384 -0.5024
12982TIP3    H160437   5.720   5.931  15.203  1.9460 -1.4395 -0.9200
12982TIP3    H260438   5.697   5.820  15.304 -0.5589 -0.9627 -0.8872
12983TIP3   OH260439   2.540   3.101  12.678  0.4738  0.0997 -0.0519
12983TIP3    H160440   2.628   3.133  12.695  0.8823 -0.9116 -0.2087
12983TIP3    H260441   2.511   3.147  12.600  0.8002  0.5428  0.0880
12984TIP3   OH260442   3.223   4.298  17.012 -0.0648  0.2234  0.0290
12984TIP3    H160443   3.211   4.377  17.066 -1.0100 -0.0776  0.2827
12984TIP3    H260444   3.222   4.226  17.074  2.2456  0.0683 -0.0411
12985TIP3   OH260445   1.144   1.533  15.459 -0.3928  0.5847 -0.6289
12985TIP3    H160446   1.240   1.522  15.459 -0.5327 -0.7836 -0.9418
12985TIP3    H260447   1.126   1.579  15.541  0.5776  1.3703 -0.8247
12986TIP3   OH260448   4.892   2.136   1.874 -0.8034  0.1545 -0.2487
12986TIP3    H160449   4.964   2.096   1.825 -1.6487 -0.4506 -1.0206
12986TIP3    H260450   4.839   2.062   1.904 -0.6704  0.5474  1.0296
12987TIP3   OH260451   5.475   5.041  14.942  0.4417 -0.7201  0.0570
12987TIP3    H160452   5.412   5.094  14.893  0.1071 -0.8391  0.3543
12987TIP3    H260453   5.461   4.952  14.911  1.2934 -0.5888 -0.7494
12988TIP3   OH260454   2.019   2.392  13.056  0.4236 -0.3995 -0.0098
12988TIP3    H160455   1.953   2.415  12.991 -0.2953 -1.9517  0.1321
12988TIP3    H260456   2.103   2.414  13.014 -0.0691 -0.5242 -1.0872
12989TIP3   OH260457   1.503   3.126  13.307  0.1300  0.0686  0.2637
12989TIP3    H160458   1.423   3.173  13.284 -0.2202  0.5371  2.2263
12989TIP3    H260459   1.473   3.044  13.345  0.6217 -0.1718  0.1427
12990TIP3   OH260460   5.018   4.859   5.843  0.3560  0.1343 -0.6029
12990TIP3    H160461   4.997   4.952   5.836  1.9801  0.6323  0.6534
12990TIP3    H260462   5.112   4.854   5.828  0.1023 -1.4907 -1.9099
12991TIP3   OH260463   1.387   4.160  16.259  0.1757  0.0615 -0.3118
12991TIP3    H160464   1.293   4.147  16.272  0.0099  0.8561 -0.6534
12991TIP3    H260465   1.393   4.237  16.203  1.0291 -0.1215 -0.4853
12992TIP3   OH260466   6.224   1.566  16.696 -0.4250 -0.4623  0.1910
12992TIP3    H160467   6.269   1.639  16.653  2.0325 -1.6182  0.6330
12992TIP3    H260468   6.245   1.490  16.642 -1.4916 -1.1265  0.6875
12993TIP3   OH260469   5.435   3.424   0.318  0.3353 -0.1066  0.2813
12993TIP3    H160470   5.450   3.509   0.276  0.6762 -0.0461  0.5200
12993TIP3    H260471   5.514   3.408   0.369  0.0481 -0.3129  0.6717
12994TIP3   OH260472   3.490   5.094   5.120 -0.2720 -0.2962  0.1270
12994TIP3    H160473   3.503   5.184   5.090 -0.6961  0.0187  0.8736
12994TIP3    H260474   3.557   5.043   5.073  0.1541  0.4477 -0.0827
12995TIP3   OH260475   4.756   5.822  13.397 -0.2369 -0.3637 -0.1086
12995TIP3    H160476   4.673   5.784  13.368 -0.1288 -0.8869  0.2391
12995TIP3    H260477   4.733   5.869  13.477 -0.4521  0.6961 -0.7782
12996TIP3   OH260478   0.364   4.519  16.145 -0.1060 -0.2810 -0.6512
12996TIP3    H160479   0.297   4.479  16.200  0.2901  0.9861  0.8210
12996TIP3    H260480   0.447   4.495  16.188  0.1304  2.3709  0.5472
12997TIP3   OH260481   3.670   0.876  15.090  0.3004  0.1362  0.2588
12997TIP3    H160482   3.728   0.880  15.166 -2.3101  0.6104  2.3948
12997TIP3    H260483   3.672   0.964  15.054 -0.2461  0.6211  1.3367
12998TIP3   OH260484   1.587   0.070   0.422  0.0376  0.2149 -0.0674
12998TIP3    H160485   1.552   0.050   0.509  1.2609 -0.7923  0.2169
12998TIP3    H260486   1.658   0.132   0.439  0.3673 -0.0913 -0.3279
12999TIP3   OH260487   2.213   6.543  12.657  0.1951 -0.2277  0.5930
12999TIP3    H160488   2.180   6.632  12.642 -1.0686 -0.9896 -1.6638
12999TIP3    H260489   2.135   6.492  12.677  0.0288 -1.7119 -3.0102
13000TIP3   OH260490   5.212   6.554   2.305 -0.0206 -0.2606  0.1236
13000TIP3    H160491   5.292   6.584   2.348  0.4648 -0.1332 -0.8478
13000TIP3    H260492   5.240   6.528   2.217 -0.9000 -1.0047  0.0441
13001TIP3   OH260493   4.197   6.144  11.389 -0.7053  0.0185 -0.4685
13001TIP3    H160494   4.101   6.140  11.399 -0.8603  2.0926 -0.7346
13001TIP3    H260495   4.211   6.133  11.295 -0.4777 -2.3388 -0.2243
13002TIP3   OH260496   2.655   2.587   2.768  0.1037 -0.0040 -0.5058
13002TIP3    H160497   2.725   2.567   2.830 -1.2024 -0.9770  0.7202
13002TIP3    H260498   2.601   2.508   2.767 -1.4057  0.9968 -0.8260
13003TIP3   OH260499   6.435   2.418  16.843  0.0263  0.6114  0.1008
13003TIP3    H160500   6.370   2.420  16.773 -0.8011 -0.2294  0.8079
13003TIP3    H260501   6.509   2.369  16.806 -1.5655 -2.5001  0.6778
13004TIP3   OH260502   5.467   2.701  16.428  0.2958  1.0648  0.5105
13004TIP3    H160503   5.433   2.646  16.499 -0.8705  0.5298 -0.4294
13004TIP3    H260504   5.407   2.775  16.424 -0.5391  0.3535 -0.8520
13005TIP3   OH260505   2.418   6.514  15.906 -0.1454  0.3646  0.0252
13005TIP3    H160506   2.447   6.429  15.939 -0.2056 -0.2339 -1.3787
13005TIP3    H260507   2.390   6.562  15.983  0.5204 -0.6442  0.9216
13006TIP3   OH260508   4.707   4.447   4.304 -0.0670 -0.6916  0.5007
13006TIP3    H160509   4.737   4.383   4.240  0.2702 -1.6992  1.6292
13006TIP3    H260510   4.616   4.422   4.323 -0.8547  0.8040 -1.0026
13007TIP3   OH260511   5.528   4.505  10.803 -0.5363  0.7377  0.0494
13007TIP3    H160512   5.452   4.544  10.845 -1.0349 -0.5953  0.4324
13007TIP3    H260513   5.571   4.578  10.758 -1.5964  1.6482  0.4777
13008TIP3   OH260514   0.023   3.315  14.167 -0.0990  0.1830 -0.2630
13008TIP3    H160515  -0.016   3.230  14.184 -0.0268  0.5581  1.9851
13008TIP3    H260516  -0.039   3.357  14.106 -0.1125 -1.4309 -1.4410
13009TIP3   OH260517   3.272   1.120  13.092 -0.2966 -0.0434 -0.5244
13009TIP3    H160518   3.357   1.114  13.135 -1.0121 -0.0765  0.9490
13009TIP3    H260519   3.282   1.190  13.028  0.8742 -0.1556 -0.4872
13010TIP3   OH260520   5.928   3.512   3.498 -0.4110 -0.1487  0.0386
13010TIP3    H160521   5.966   3.596   3.472 -1.0813  0.5778  1.3175
13010TIP3    H260522   5.909   3.468   3.415  0.9686  0.4762 -0.6483
13011TIP3   OH260523   2.531   5.068  14.787  0.2783  0.0062 -0.1180
13011TIP3    H160524   2.453   5.028  14.749  0.3972  0.1408 -0.5076
13011TIP3    H260525   2.548   5.144  14.731  0.6120  0.0513  0.0454
13012TIP3   OH260526   0.598   2.104  16.195  0.1421 -1.2183 -0.1776
13012TIP3    H160527   0.556   2.123  16.111 -1.2927 -0.4967  0.6585
13012TIP3    H260528   0.690   2.125  16.181 -0.2270 -0.2243 -1.3124
13013TIP3   OH260529   4.767   6.751   3.271  0.2803 -0.3600  0.3566
13013TIP3    H160530   4.721   6.735   3.353  0.0768  1.0942  0.5465
13013TIP3    H260531   4.704   6.796   3.215  0.7656 -0.3386 -0.1918
13014TIP3   OH260532   5.396   0.351  11.126 -0.6523 -0.2599  0.1402
13014TIP3    H160533   5.321   0.320  11.074  0.2170 -2.8586  0.2690
13014TIP3    H260534   5.384   0.310  11.212  0.8347 -0.6260  0.2006
13015TIP3   OH260535   4.391   2.588  15.391  0.3367  0.5395  0.2148
13015TIP3    H160536   4.393   2.571  15.297 -1.6462  0.6709  0.1005
13015TIP3    H260537   4.464   2.648  15.407  0.7713  0.4146 -1.2079
13016TIP3   OH260538   0.591   2.743  17.013  0.0139 -0.8918 -0.1257
13016TIP3    H160539   0.557   2.754  16.924  0.1994  0.3956 -0.0612
13016TIP3    H260540   0.652   2.816  17.024 -1.3556  0.0529  1.6857
13017TIP3   OH260541   2.626   4.953  15.293  0.0241 -0.2963  0.1832
13017TIP3    H160542   2.601   4.862  15.309  0.1265 -0.2469  0.6224
13017TIP3    H260543   2.662   4.984  15.376 -0.1416  0.1906  0.0772
13018TIP3   OH260544   5.338   3.870   6.110  0.3864 -0.0934  0.0743
13018TIP3    H160545   5.371   3.850   6.198 -1.6795  1.8375  1.3949
13018TIP3    H260546   5.401   3.931   6.073  0.8324 -0.2679  0.5403
13019TIP3   OH260547   2.628   4.867   1.874  0.0550  0.3546  0.3173
13019TIP3    H160548   2.604   4.914   1.954 -0.9464 -1.6567  1.2621
13019TIP3    H260549   2.555   4.808   1.857  1.5540 -1.4117 -0.3872
13020TIP3   OH260550   6.004   2.673   1.329 -0.0146  0.6540 -0.0604
13020TIP3    H160551   6.031   2.583   1.348  2.6528  1.2848 -0.5376
13020TIP3    H260552   6.033   2.688   1.239 -4.5307  0.6059 -1.8072
13021TIP3   OH260553   1.591   6.618  15.624  0.5544  0.2398  0.1993
13021TIP3    H160554   1.637   6.670  15.558  0.5476  1.0104  0.7871
13021TIP3    H260555   1.556   6.543  15.575 -0.6687  1.5139 -0.9651
13022TIP3   OH260556   0.356   3.771   4.298 -0.3444  0.3241 -0.3025
13022TIP3    H160557   0.438   3.732   4.269 -1.2576 -0.8266 -1.4490
13022TIP3    H260558   0.340   3.733   4.384  1.5638  2.5105  1.1237
13023TIP3   OH260559   6.692   2.462   2.373  0.0356 -0.0407  0.4896
13023TIP3    H160560   6.647   2.485   2.454 -0.1994 -0.3293  0.4395
13023TIP3    H260561   6.654   2.379   2.346  1.4776 -0.9560  1.1304
13024TIP3   OH260562   1.574   3.031   1.282  0.1393  0.5567 -0.2338
13024TIP3    H160563   1.593   2.995   1.368 -0.1021 -0.9825 -0.7964
13024TIP3    H260564   1.478   3.036   1.279  0.1764  1.9721  0.0971
13025TIP3   OH260565   3.387   1.099   4.261 -0.2116 -0.3183 -0.0466
13025TIP3    H160566   3.343   1.134   4.339 -1.4666 -0.4591 -0.6598
13025TIP3    H260567   3.421   1.176   4.216  1.8297 -0.3264  1.3459
13026TIP3   OH260568   4.566   0.993  17.303 -0.0595  0.3777  0.2065
13026TIP3    H160569   4.656   1.022  17.291  0.2408 -1.0154 -1.3466
13026TIP3    H260570   4.567   0.939  17.382  0.3380  0.8084  0.4980
13027TIP3   OH260571   5.727   5.803   0.440  0.1561 -0.4904 -0.1221
13027TIP3    H160572   5.654   5.779   0.495  0.3951 -0.2613  0.3014
13027TIP3    H260573   5.688   5.854   0.369  0.1707  2.0969  1.5874
13028TIP3   OH260574   0.820   0.125   3.154  0.0806  0.5540  0.0517
13028TIP3    H160575   0.794   0.037   3.178 -1.4794  1.3326  1.3908
13028TIP3    H260576   0.900   0.142   3.204  0.5763 -0.1899 -0.4714
13029TIP3   OH260577   2.195   6.398  11.792 -0.3732  0.1059 -0.2354
13029TIP3    H160578   2.276   6.413  11.842 -1.2631  0.2700  1.2424
13029TIP3    H260579   2.206   6.312  11.752  0.4139 -0.0004  0.1955
13030TIP3   OH260580   3.463   4.166   6.047 -0.2228  0.2609  0.6356
13030TIP3    H160581   3.389   4.106   6.045  1.5081 -2.0826  1.4734
13030TIP3    H260582   3.425   4.253   6.037 -2.9612 -0.8939  0.2611
13031TIP3   OH260583   2.574   3.427  12.185 -0.0040  0.0678 -0.0027
13031TIP3    H160584   2.508   3.432  12.254 -0.8041 -1.3839 -0.6063
13031TIP3    H260585   2.523   3.424  12.104  0.9346  2.8974 -0.8163
13032TIP3   OH260586   5.999   6.246  15.141  0.0992 -0.7633  0.6831
13032TIP3    H160587   5.962   6.176  15.193  2.5149 -2.2073  0.6060
13032TIP3    H260588   6.024   6.313  15.204  0.7762 -1.4280  1.1270
13033TIP3   OH260589   3.187   3.782   1.877  0.0517  0.4684 -0.1755
13033TIP3    H160590   3.156   3.706   1.828  1.6004  1.2093 -2.4762
13033TIP3    H260591   3.255   3.747   1.934 -0.5886 -0.1421  0.2409
13034TIP3   OH260592   2.891   2.220  11.993 -0.0395  0.7447  0.5448
13034TIP3    H160593   2.882   2.234  11.899 -3.4317  1.6873  0.8983
13034TIP3    H260594   2.851   2.134  12.009 -0.0898  0.8807  1.1979
13035TIP3   OH260595   2.305   1.784   3.129  0.2546 -0.2218  0.1534
13035TIP3    H160596   2.359   1.706   3.134  1.2483  0.4586  0.2322
13035TIP3    H260597   2.238   1.762   3.064  1.5239 -0.5392 -1.0866
13036TIP3   OH260598   2.791   1.512   4.512 -0.4764  1.1816  0.6065
13036TIP3    H160599   2.775   1.596   4.469 -0.2524  0.0806 -1.7574
13036TIP3    H260600   2.704   1.477   4.530 -0.7747 -0.0260 -2.5608
13037TIP3   OH260601   3.490   2.954   5.857  0.2803  0.2255 -0.0650
13037TIP3    H160602   3.407   2.989   5.889 -0.3863  0.6237 -2.0534
13037TIP3    H260603   3.555   3.020   5.882 -0.1142  0.2616  0.8906
13038TIP3   OH260604   4.775   0.164   1.040  0.1803 -0.3169 -0.2964
13038TIP3    H160605   4.791   0.169   1.134 -0.3015 -0.2881 -0.2120
13038TIP3    H260606   4.809   0.246   1.005 -1.7883  0.7815  0.1865
13039TIP3   OH260607   5.993   1.752  13.591  0.0320 -0.0949 -0.7208
13039TIP3    H160608   5.902   1.726  13.601  0.2168  0.1054  2.5970
13039TIP3    H260609   6.040   1.670  13.576 -0.4029 -0.6348  0.6872
13040TIP3   OH260610   6.546   5.972   3.349  0.4910  0.1816  0.4309
13040TIP3    H160611   6.619   5.984   3.288  0.2547 -1.7803 -0.3226
13040TIP3    H260612   6.512   6.060   3.363  2.6537  1.0876  0.4031
13041TIP3   OH260613   3.689   2.428  13.577  0.2358  0.3632 -0.5185
13041TIP3    H160614   3.776   2.393  13.594  0.8413  1.5329 -1.0476
13041TIP3    H260615   3.656   2.453  13.663  0.1433 -0.6631 -0.2415
13042TIP3   OH260616   6.366   4.686  16.740  0.0612 -0.3874 -0.6419
13042TIP3    H160617   6.294   4.702  16.801  1.6918 -0.6243  1.5107
13042TIP3    H260618   6.419   4.766  16.745  2.6779 -2.0601  2.0192
13043TIP3   OH260619   2.820   5.911  13.487 -0.4039 -0.0837 -0.7471
13043TIP3    H160620   2.742   5.966  13.500  0.2293  0.2396  2.5277
13043TIP3    H260621   2.881   5.968  13.441 -1.0108  0.7496 -0.5539
13044TIP3   OH260622   6.692   0.551   3.734 -0.4798  0.7864  0.0099
13044TIP3    H160623   6.681   0.499   3.654 -1.2818  0.9241  0.0175
13044TIP3    H260624   6.606   0.546   3.777  0.6744 -1.7077  2.3431
13045TIP3   OH260625   0.584   2.532  12.527  0.4074 -0.5607 -0.2861
13045TIP3    H160626   0.494   2.528  12.495  0.2152 -1.7085  0.3338
13045TIP3    H260627   0.593   2.619  12.564 -0.5811 -0.5741  0.0055
13046TIP3   OH260628   3.971   0.386  16.080 -0.1981  0.4593 -1.0600
13046TIP3    H160629   3.997   0.422  15.995 -0.6592  2.6699 -0.3128
13046TIP3    H260630   3.877   0.369  16.070 -0.3591  1.2009 -0.8424
13047TIP3   OH260631   1.515   3.982  12.538  0.5923 -0.1794 -0.1968
13047TIP3    H160632   1.432   3.972  12.492  1.1707 -0.4031 -1.2197
13047TIP3    H260633   1.552   3.893  12.540  1.6132  0.1958 -1.3371
13048TIP3   OH260634   1.436   1.880  16.741 -0.2324  0.3188 -0.4484
13048TIP3    H160635   1.384   1.960  16.743  0.2026  0.6061 -0.4506
13048TIP3    H260636   1.491   1.889  16.663 -1.4107 -0.7739 -1.4460
13049TIP3   OH260637   5.642   3.638   0.863 -0.3503  0.0160  0.1655
13049TIP3    H160638   5.696   3.617   0.939 -0.5620  0.1493  0.3536
13049TIP3    H260639   5.563   3.586   0.874 -0.1022 -0.4828 -0.3150
13050TIP3   OH260640   3.402   5.147  14.125 -0.0615 -0.0786 -0.2393
13050TIP3    H160641   3.497   5.154  14.133  0.0138  0.6723 -1.4561
13050TIP3    H260642   3.375   5.092  14.198  1.4030 -0.9901 -0.3543
13051TIP3   OH260643   0.384   6.107  16.838 -0.4371 -0.1898 -0.2719
13051TIP3    H160644   0.454   6.070  16.892  1.5230  1.4490 -1.5232
13051TIP3    H260645   0.354   6.184  16.888 -0.6698 -0.3293 -0.1947
13052TIP3   OH260646   6.770   5.188  12.796  0.3365 -0.3751 -0.0151
13052TIP3    H160647   6.790   5.095  12.784  1.1524 -0.3060  0.6299
13052TIP3    H260648   6.841   5.219  12.853  0.3570  0.7558 -0.6377
13053TIP3   OH260649   3.897   5.951   4.984  0.0754 -0.0533 -0.3107
13053TIP3    H160650   3.831   5.914   5.042 -0.2974 -1.6462 -1.6760
13053TIP3    H260651   3.853   5.960   4.899  1.4980 -0.9017 -1.1817
13054TIP3   OH260652   2.405   5.267   4.050  0.3221  0.4453  0.0826
13054TIP3    H160653   2.386   5.296   4.140  1.0025 -0.2705  0.4748
13054TIP3    H260654   2.361   5.331   3.994  0.4416  1.2936  0.9239
13055TIP3   OH260655   5.798   5.513  16.424 -0.5577 -0.0476 -0.2194
13055TIP3    H160656   5.827   5.556  16.344 -0.0078  0.2641  0.1414
13055TIP3    H260657   5.877   5.470  16.458 -0.3748  1.2148  1.0371
13056TIP3   OH260658   0.802   2.690  16.356 -0.2202 -0.4537  0.3332
13056TIP3    H160659   0.751   2.769  16.340 -0.3312 -0.2733  1.4850
13056TIP3    H260660   0.738   2.622  16.373 -0.1010 -0.3642  1.1784
13057TIP3   OH260661   0.444   4.099  17.276  0.2155 -0.1115 -0.2273
13057TIP3    H160662   0.528   4.129  17.240  0.6693 -1.2722 -0.1985
13057TIP3    H260663   0.381   4.166  17.250  0.6175 -0.5914 -2.7545
13058TIP3   OH260664   4.419   1.320   4.267 -0.2917  0.2974  0.2030
13058TIP3    H160665   4.461   1.383   4.208  0.5524  1.3926  1.8913
13058TIP3    H260666   4.369   1.262   4.209 -0.0533  1.7279 -1.5146
13059TIP3   OH260667   4.339   3.128   5.313  0.3068 -0.6672 -0.2192
13059TIP3    H160668   4.400   3.185   5.267  0.5878 -0.0653  0.8468
13059TIP3    H260669   4.265   3.118   5.254  0.2987  0.7246 -0.4815
13060TIP3   OH260670   6.307   3.115  16.492 -0.6150 -0.7697 -0.6429
13060TIP3    H160671   6.351   3.175  16.552 -0.8497 -0.7363 -0.5021
13060TIP3    H260672   6.214   3.139  16.498 -0.4774  0.3852 -2.2965
13061TIP3   OH260673   5.841   5.817   2.007  0.1411 -0.9573  0.3855
13061TIP3    H160674   5.829   5.766   1.927 -0.8134  0.1410 -0.1979
13061TIP3    H260675   5.844   5.908   1.978 -0.7694 -0.4926  1.6396
13062TIP3   OH260676   4.112   0.773  13.338 -0.4593 -0.3316 -0.1488
13062TIP3    H160677   4.120   0.864  13.311 -0.0211 -0.0317  0.9562
13062TIP3    H260678   4.186   0.728  13.297 -0.9735 -0.3065 -1.1247
13063TIP3   OH260679   3.696   0.342  12.720  0.1710  0.0983  0.8681
13063TIP3    H160680   3.654   0.271  12.671  3.5118 -1.4200 -0.0839
13063TIP3    H260681   3.676   0.421  12.669 -1.3525 -0.5310  0.4274
13064TIP3   OH260682   3.892   1.116  11.603 -0.6701  0.1577 -0.1480
13064TIP3    H160683   3.909   1.022  11.596 -0.7952  0.1296 -0.0662
13064TIP3    H260684   3.797   1.123  11.615 -0.3893  0.1184  2.9402
13065TIP3   OH260685   1.718   3.351  11.238 -0.0651 -0.0616  0.0098
13065TIP3    H160686   1.710   3.291  11.164  2.0819  0.5912 -0.8141
13065TIP3    H260687   1.674   3.431  11.208  0.8067  0.2047 -0.6042
13066TIP3   OH260688   2.991   4.286   1.441 -0.0417  0.0088  0.1027
13066TIP3    H160689   3.005   4.195   1.413  0.2849 -0.5503  1.9220
13066TIP3    H260690   3.035   4.338   1.374 -0.9365 -1.1119 -1.4235
13067TIP3   OH260691   4.960   3.696   4.573 -0.3592 -0.4098  0.1326
13067TIP3    H160692   4.916   3.614   4.594 -1.6255  0.5791  1.5727
13067TIP3    H260693   5.049   3.685   4.607 -0.6136 -1.0749  0.5965
13068TIP3   OH260694   2.667   3.264  15.735  0.5522  0.0052  0.1993
13068TIP3    H160695   2.603   3.311  15.680  0.6408  1.6871  1.4547
13068TIP3    H260696   2.616   3.231  15.809  0.6112 -1.4025 -0.3575
13069TIP3   OH260697   3.297   3.149  10.986 -0.1448 -0.0660 -0.1954
13069TIP3    H160698   3.242   3.139  10.908 -0.8937  0.3770  0.2684
13069TIP3    H260699   3.368   3.087  10.973  0.2224  0.6107 -1.6543
13070TIP3   OH260700   2.546   4.178  16.131  0.1461 -0.5980  0.3769
13070TIP3    H160701   2.544   4.243  16.060 -0.7187 -0.9595  0.0570
13070TIP3    H260702   2.636   4.145  16.131  0.2801 -0.2555 -0.2396
13071TIP3   OH260703   2.152   1.613   3.492 -0.1402 -1.2326 -0.5313
13071TIP3    H160704   2.218   1.643   3.430 -0.2470 -0.9329 -0.4989
13071TIP3    H260705   2.070   1.649   3.459 -0.1259 -0.6497  0.0663
13072TIP3   OH260706   6.180   1.119   5.152  0.5147 -0.1019  0.1875
13072TIP3    H160707   6.256   1.177   5.150 -0.3106  1.2551  2.9607
13072TIP3    H260708   6.110   1.169   5.110  0.7539 -0.7725 -1.0577
13073TIP3   OH260709   2.555   1.630   4.331  0.7899 -0.7540  0.0533
13073TIP3    H160710   2.539   1.638   4.425 -0.6110 -0.6990 -0.1634
13073TIP3    H260711   2.624   1.694   4.313  1.4554 -1.1466  1.1219
13074TIP3   OH260712   1.504   5.944   4.646 -0.1910  0.2848  0.2119
13074TIP3    H160713   1.551   5.942   4.563  0.9618  1.1596  0.8182
13074TIP3    H260714   1.439   6.014   4.634 -1.3415 -0.8627 -0.5902
13075TIP3   OH260715   6.566   3.083  12.866  0.6547  0.0634 -0.1474
13075TIP3    H160716   6.485   3.105  12.911 -0.5436 -1.6400 -1.3088
13075TIP3    H260717   6.583   3.157  12.808 -0.6315  0.0444 -0.5825
13076TIP3   OH260718   0.947   3.872  16.270  0.2929  0.3221 -0.3654
13076TIP3    H160719   0.860   3.871  16.230 -0.3181 -0.1160  0.9055
13076TIP3    H260720   0.968   3.780  16.282  1.4257  0.3938 -1.6412
13077TIP3   OH260721   1.299   3.234  11.174 -0.7388  0.2202 -0.4212
13077TIP3    H160722   1.336   3.321  11.160 -1.8077  0.6382 -0.6941
13077TIP3    H260723   1.268   3.207  11.088 -0.7347 -0.2869 -0.2658
13078TIP3   OH260724   1.854   3.726  16.068  0.6347 -0.5579  0.0408
13078TIP3    H160725   1.824   3.735  16.159 -0.4777 -1.1674 -0.2411
13078TIP3    H260726   1.882   3.814  16.043 -3.3204  0.7682 -0.4492
13079TIP3   OH260727   0.080   1.820   6.433  0.6821 -0.3410 -0.1694
13079TIP3    H160728   0.077   1.910   6.400  2.9364 -0.1301  0.0366
13079TIP3    H260729   0.117   1.769   6.362 -2.4420 -1.5892 -1.0482
13080TIP3   OH260730   6.003   6.429   4.636  0.3003 -0.1088  0.2664
13080TIP3    H160731   5.952   6.370   4.581  0.9716  0.2197 -0.7368
13080TIP3    H260732   5.943   6.453   4.707 -0.3138 -1.1782  0.1266
13081TIP3   OH260733   5.117   3.136   3.908  0.2906 -0.0784 -0.1636
13081TIP3    H160734   5.157   3.051   3.890  1.1015 -0.3574  2.5162
13081TIP3    H260735   5.042   3.115   3.964 -0.9557  0.8217 -1.4362
13082TIP3   OH260736   2.569   1.995   6.196 -0.1050 -0.0952  0.0986
13082TIP3    H160737   2.643   2.055   6.206  0.9011 -1.4312  1.0192
13082TIP3    H260738   2.571   1.969   6.104  0.4322  0.0472  0.0684
13083TIP3   OH260739   4.803   5.489  14.802 -0.6363 -0.1467 -0.5391
13083TIP3    H160740   4.816   5.526  14.889 -0.5635  2.6600 -1.6502
13083TIP3    H260741   4.892   5.470  14.771 -0.5670  0.2223 -0.5640
13084TIP3   OH260742   0.950   5.798  11.622 -0.4958  0.3514  0.3370
13084TIP3    H160743   0.971   5.714  11.580 -0.9904 -0.0862  0.9328
13084TIP3    H260744   0.899   5.845  11.556  0.7469  0.6726 -0.4294
13085TIP3   OH260745   1.435   2.832   0.682 -0.0361  0.1284 -0.2248
13085TIP3    H160746   1.423   2.850   0.775 -2.3628 -1.4207 -0.1192
13085TIP3    H260747   1.403   2.910   0.638 -1.2438 -0.0419  0.2951
13086TIP3   OH260748   4.858   6.240   5.747  0.1603  0.5071  1.8334
13086TIP3    H160749   4.772   6.282   5.739  0.5208  0.9557 -0.3110
13086TIP3    H260750   4.842   6.147   5.729  0.4075  0.9648 -1.3423
13087TIP3   OH260751   5.720   1.662   5.874  0.1814 -0.1911 -0.3503
13087TIP3    H160752   5.783   1.626   5.811  0.5667 -0.5759  0.2442
13087TIP3    H260753   5.751   1.632   5.959  0.1744  1.0703  0.1200
13088TIP3   OH260754   4.293   1.568   2.443 -0.2485  0.3806 -0.1331
13088TIP3    H160755   4.294   1.473   2.429  0.8820  0.2822  0.5694
13088TIP3    H260756   4.286   1.579   2.537  0.5917  0.9893 -0.1345
13089TIP3   OH260757   0.492   5.318   1.162 -0.1778  0.3456 -0.0087
13089TIP3    H160758   0.519   5.266   1.086  0.4460  1.1313 -0.3450
13089TIP3    H260759   0.540   5.280   1.236  0.6340  0.7073 -0.3307
13090TIP3   OH260760   5.323   0.181  14.929  0.6081  0.2786  0.1932
13090TIP3    H160761   5.414   0.163  14.953  0.5232 -0.9382 -0.2816
13090TIP3    H260762   5.282   0.209  15.010  1.2328  0.0872  0.5888
13091TIP3   OH260763   6.566   3.063   1.652 -0.7645  0.5413 -0.5123
13091TIP3    H160764   6.651   3.067   1.696 -1.2950 -0.5689  0.6706
13091TIP3    H260765   6.580   3.108   1.569  0.2089  3.0255  0.8915
13092TIP3   OH260766   2.944   4.723   3.242 -0.2775 -0.0826 -0.0432
13092TIP3    H160767   2.906   4.673   3.169  0.7340 -0.8747 -0.0476
13092TIP3    H260768   2.879   4.715   3.312 -0.7174 -0.3059 -0.4670
13093TIP3   OH260769   4.738   0.575  15.121  0.2224  0.0867  0.1331
13093TIP3    H160770   4.824   0.558  15.160 -0.0333  0.9484  1.1039
13093TIP3    H260771   4.676   0.535  15.181 -0.0456 -0.9977 -0.8412
13094TIP3   OH260772   2.431   1.376   6.076 -0.7643 -0.0285 -0.0996
13094TIP3    H160773   2.349   1.330   6.092  0.2593 -1.8858  0.0284
13094TIP3    H260774   2.450   1.359   5.984 -0.2680 -0.0222 -0.0004
13095TIP3   OH260775   0.556   2.261  13.192 -0.1050 -0.0380 -0.3719
13095TIP3    H160776   0.630   2.234  13.246 -0.8585 -1.1137  0.1575
13095TIP3    H260777   0.558   2.356  13.195  0.8297 -0.0599  0.2231
13096TIP3   OH260778   0.285   0.513   0.641 -0.1569  0.4316  0.2113
13096TIP3    H160779   0.239   0.439   0.600 -0.6347  1.4688 -1.2073
13096TIP3    H260780   0.300   0.575   0.569 -1.3115  2.5042  1.6476
13097TIP3   OH260781   2.499   3.511  10.843 -0.6835 -0.3717 -0.6560
13097TIP3    H160782   2.531   3.548  10.760  1.9068  0.4007  0.5605
13097TIP3    H260783   2.491   3.586  10.901  0.1803 -1.1689  0.5412
13098TIP3   OH260784   1.367   3.201  16.299  0.0792  0.0131  0.3044
13098TIP3    H160785   1.340   3.183  16.209  2.5447  1.0363 -0.7135
13098TIP3    H260786   1.461   3.184  16.300  0.0139 -0.5973  2.8946
13099TIP3   OH260787   5.837   1.390  13.967 -0.5488  0.2313  0.1020
13099TIP3    H160788   5.927   1.392  13.999 -0.0861  1.3806 -1.1788
13099TIP3    H260789   5.845   1.361  13.876 -1.7505 -2.1282  0.6518
13100TIP3   OH260790   1.707   3.313  17.351  0.2734  0.3905  0.2915
13100TIP3    H160791   1.646   3.341  17.419 -1.5965  0.0830 -1.1937
13100TIP3    H260792   1.652   3.282  17.280  2.1719  0.2883 -1.2178
13101TIP3   OH260793   0.499   5.377  13.081  0.5164 -0.5238  0.4654
13101TIP3    H160794   0.416   5.417  13.109  0.2637 -0.3586 -0.4919
13101TIP3    H260795   0.562   5.406  13.146  0.2962  1.2761 -0.0753
13102TIP3   OH260796   4.389   0.525  14.430 -0.2741 -0.9888 -0.0201
13102TIP3    H160797   4.352   0.612  14.443  0.6776 -0.5815  0.0941
13102TIP3    H260798   4.328   0.465  14.473 -0.6249 -0.3155  0.4275
13103TIP3   OH260799   6.443   1.157   0.768 -0.0311  0.3676 -0.0299
13103TIP3    H160800   6.494   1.163   0.687 -0.3760  0.6440 -0.2334
13103TIP3    H260801   6.374   1.093   0.748  0.9794 -0.9665  0.6639
13104TIP3   OH260802   5.096   6.156   0.681  0.1891 -0.0063  0.7427
13104TIP3    H160803   5.101   6.068   0.645 -0.6764  0.0534  0.4493
13104TIP3    H260804   5.090   6.214   0.605 -1.8609  0.1067  0.9151
13105TIP3   OH260805   1.514   1.121  11.443 -0.6455 -0.1562  0.5955
13105TIP3    H160806   1.486   1.188  11.381 -1.1705 -0.1568  0.8227
13105TIP3    H260807   1.552   1.052  11.388 -0.3573  0.1976  0.3414
13106TIP3   OH260808   4.086   1.208  15.230  0.5041 -0.0617  0.0985
13106TIP3    H160809   4.147   1.251  15.169  2.0747 -0.8034  1.0851
13106TIP3    H260810   4.076   1.120  15.196  3.0624 -1.1785  1.9263
13107TIP3   OH260811   0.519   2.094  12.403  0.3133  0.2471  0.0710
13107TIP3    H160812   0.577   2.113  12.477 -0.3041 -1.3091  0.9872
13107TIP3    H260813   0.547   2.008  12.372 -0.7192  0.0100 -0.2367
13108TIP3   OH260814   1.843   0.197  13.025  0.3270 -0.1085  0.2960
13108TIP3    H160815   1.916   0.259  13.031 -0.8082  1.1395  2.6716
13108TIP3    H260816   1.885   0.111  13.018  2.0558  0.6036  1.2196
13109TIP3   OH260817   3.793   0.425   6.175  0.1446 -0.2169  0.1459
13109TIP3    H160818   3.780   0.337   6.211 -2.1809 -0.1308 -0.3328
13109TIP3    H260819   3.781   0.483   6.250 -0.0427 -0.2287  0.1246
13110TIP3   OH260820   3.086   1.878   3.866 -0.1729 -0.1771 -0.0204
13110TIP3    H160821   3.180   1.895   3.877  0.2358 -1.1255 -1.7185
13110TIP3    H260822   3.070   1.799   3.916  0.1934 -0.6395 -0.6164
13111TIP3   OH260823   0.172   4.002  10.950  0.3951 -0.0229  0.2224
13111TIP3    H160824   0.107   3.946  10.908  0.1506  0.3345  0.1133
13111TIP3    H260825   0.249   3.996  10.894  0.6275 -0.8275  0.6121
13112TIP3   OH260826   1.433   2.023   5.714  0.4045  0.1350  0.0073
13112TIP3    H160827   1.488   1.958   5.671  1.7397  1.0097  0.3402
13112TIP3    H260828   1.423   1.990   5.804  0.2526 -0.1113 -0.1007
13113TIP3   OH260829   3.281   5.487  16.803  0.5084  0.0437  0.0024
13113TIP3    H160830   3.326   5.569  16.825 -0.1710  0.0516  1.5244
13113TIP3    H260831   3.337   5.418  16.838  0.5731 -0.0772 -0.3438
13114TIP3   OH260832   0.969   3.619  13.919 -0.5968  0.0547  0.3604
13114TIP3    H160833   1.063   3.608  13.925 -0.6916 -0.3732  1.3986
13114TIP3    H260834   0.935   3.530  13.903 -0.8979 -0.0207  1.3445
13115TIP3   OH260835   2.071   6.207   0.639  0.0048 -0.1299  0.4433
13115TIP3    H160836   2.006   6.246   0.698 -1.9753  0.0686 -1.6903
13115TIP3    H260837   2.034   6.121   0.618 -0.1228  0.3591 -1.5424
13116TIP3   OH260838   5.859   2.396   1.736 -0.1258  0.3030 -0.0507
13116TIP3    H160839   5.946   2.395   1.776 -0.5170  2.1504  0.9919
13116TIP3    H260840   5.799   2.380   1.809 -0.6749 -0.8233 -0.7335
13117TIP3   OH260841   3.318   6.038  12.903  0.0257  0.2437 -0.0693
13117TIP3    H160842   3.335   5.971  12.836  0.9209  0.1488  0.2398
13117TIP3    H260843   3.351   6.119  12.864 -0.1522  0.3261 -0.0468
13118TIP3   OH260844   1.009   0.039   0.776 -0.2472  0.0696  0.9800
13118TIP3    H160845   1.016  -0.020   0.851  3.0035 -0.9828  0.0228
13118TIP3    H260846   1.023  -0.017   0.700 -0.5491  1.5677 -0.2457
13119TIP3   OH260847   5.981   4.303  17.059 -0.3057  0.1253  0.1525
13119TIP3    H160848   5.963   4.215  17.092 -3.2153 -0.6679 -3.0149
13119TIP3    H260849   6.032   4.288  16.979 -2.1782  1.1312 -1.2825
13120TIP3   OH260850   6.023   1.892  15.643 -0.0038 -0.1131 -0.1848
13120TIP3    H160851   5.930   1.902  15.662 -0.4076 -0.4223 -1.8121
13120TIP3    H260852   6.039   1.953  15.571  1.1573  0.2737  0.3937
13121TIP3   OH260853   2.524   4.761   4.395  0.6163  0.2577 -0.4666
13121TIP3    H160854   2.518   4.767   4.300 -0.6554  0.3090 -0.3949
13121TIP3    H260855   2.562   4.844   4.423 -0.2170  0.7690 -0.8380
13122TIP3   OH260856   0.112   1.728   2.645 -0.6696 -0.3988  0.1666
13122TIP3    H160857   0.125   1.772   2.729 -0.1406  1.4839 -0.8430
13122TIP3    H260858   0.046   1.781   2.600 -0.7949 -1.2590 -0.7025
13123TIP3   OH260859   4.782   2.431  13.455  1.1355 -0.4316 -0.3757
13123TIP3    H160860   4.797   2.384  13.537 -1.8608 -1.6251 -0.3982
13123TIP3    H260861   4.784   2.524  13.480  0.1753 -0.7764  1.1128
13124TIP3   OH260862   4.413   2.363   5.448 -0.3098  0.0878 -0.0028
13124TIP3    H160863   4.398   2.289   5.390  2.2784 -1.2196  0.8563
13124TIP3    H260864   4.466   2.328   5.519 -3.0323  1.6554  3.1150
13125TIP3   OH260865   2.382   1.101  11.204 -0.1443 -0.1627  0.1497
13125TIP3    H160866   2.363   1.043  11.278  0.2047 -0.6883 -0.1693
13125TIP3    H260867   2.308   1.089  11.145  1.2995 -2.5958 -1.3336
13126TIP3   OH260868   4.030   5.748   0.363 -0.3059 -0.2951  0.5316
13126TIP3    H160869   3.981   5.820   0.321  0.4467  0.6083  1.1685
13126TIP3    H260870   4.120   5.759   0.331  0.1045 -0.0969  1.7317
13127TIP3   OH260871   5.717   3.728  16.930 -0.2084  0.1741 -0.2984
13127TIP3    H160872   5.758   3.759  16.849  0.5207 -0.3014 -0.1239
13127TIP3    H260873   5.644   3.788  16.945 -0.5888  0.0507 -1.5138
13128TIP3   OH260874   0.715   6.652   4.170 -0.1662  0.2429  0.5341
13128TIP3    H160875   0.633   6.611   4.198 -0.5462 -0.3496 -1.2682
13128TIP3    H260876   0.687   6.724   4.113  0.5237 -0.5976 -0.9424
13129TIP3   OH260877   3.332   4.008   6.701  0.7979 -0.4039 -0.6158
13129TIP3    H160878   3.237   4.014   6.712  0.8437  0.7549 -0.8035
13129TIP3    H260879   3.367   4.085   6.745  1.6414 -0.6740 -0.7859
13130TIP3   OH260880   4.902   5.581  14.364  0.3057  0.0075 -0.5036
13130TIP3    H160881   4.938   5.552  14.279 -0.9338  0.1779 -1.1053
13130TIP3    H260882   4.891   5.500  14.414 -1.4531 -0.4307 -1.5163
13131TIP3   OH260883   4.265   3.028   0.992 -1.0048  0.2165 -0.4370
13131TIP3    H160884   4.206   2.986   0.930 -0.5089 -1.7511  0.3374
13131TIP3    H260885   4.277   2.963   1.062  0.8440  1.1504  0.1983
13132TIP3   OH260886   0.056   6.039   6.696  0.4279  0.1330 -0.1371
13132TIP3    H160887   0.092   6.098   6.629  1.5739  0.0716  0.4108
13132TIP3    H260888  -0.008   5.986   6.648 -1.4285  2.4742 -0.4468
13133TIP3   OH260889   5.137   1.125   2.873 -0.2003  0.4848  0.0341
13133TIP3    H160890   5.177   1.103   2.957 -0.0864 -0.6324 -0.2961
13133TIP3    H260891   5.074   1.194   2.894  0.0903  0.4822  0.9698
13134TIP3   OH260892   5.888   3.071   6.029  0.2453  0.1041 -0.0277
13134TIP3    H160893   5.856   3.071   5.939  1.5164  1.1828 -0.5323
13134TIP3    H260894   5.984   3.074   6.020  0.3876  0.5947  1.3417
13135TIP3   OH260895   4.381   1.311   5.029 -0.0154  0.1188 -0.4170
13135TIP3    H160896   4.416   1.232   5.071 -2.3573 -1.2638 -0.9026
13135TIP3    H260897   4.458   1.355   4.992  1.2819 -2.3331 -0.8062
13136TIP3   OH260898   2.727   0.968   1.334  0.0752 -0.2075  0.6133
13136TIP3    H160899   2.744   0.979   1.241 -0.0851 -1.1306  0.4589
13136TIP3    H260900   2.726   1.056   1.369  0.7610  0.1158 -0.1465
13137TIP3   OH260901   4.873   6.616   5.913  0.1064 -0.2788 -0.0444
13137TIP3    H160902   4.871   6.582   6.003  0.4438  0.1633  0.1342
13137TIP3    H260903   4.791   6.666   5.905  0.4588  0.3730  0.3001
13138TIP3   OH260904   3.852   6.312  16.809  0.2764  0.1515 -0.4198
13138TIP3    H160905   3.932   6.359  16.832 -0.4827  0.3640  2.1448
13138TIP3    H260906   3.781   6.375  16.823 -0.4786 -0.5857 -0.7830
13139TIP3   OH260907   4.628   4.674  15.984 -0.4572 -0.2929 -0.1642
13139TIP3    H160908   4.595   4.761  16.006  0.3757 -0.2414  0.9385
13139TIP3    H260909   4.709   4.665  16.034  1.3404 -0.3468 -2.8767
13140TIP3   OH260910   3.398   1.042  15.235  0.3759 -0.4503  0.5344
13140TIP3    H160911   3.422   1.012  15.323 -1.7605 -0.8241  1.0442
13140TIP3    H260912   3.427   0.970  15.178  1.5540 -0.3179  0.9192
13141TIP3   OH260913   4.159   5.796  15.877  0.0731 -0.5082 -0.2730
13141TIP3    H160914   4.082   5.852  15.867 -1.3924 -2.3312  0.2664
13141TIP3    H260915   4.217   5.846  15.936 -0.8268  0.7508 -0.4150
13142TIP3   OH260916   5.174   3.356   0.293 -0.1871 -0.0091  0.0003
13142TIP3    H160917   5.165   3.322   0.204 -0.4928 -0.5904  0.2469
13142TIP3    H260918   5.263   3.389   0.297  0.2595 -1.1490 -0.1314
13143TIP3   OH260919   1.227   0.016   5.793  0.4750 -0.2577 -0.0707
13143TIP3    H160920   1.192   0.049   5.876  2.2347 -0.4167  0.7821
13143TIP3    H260921   1.152   0.015   5.734 -0.3261  2.3145  0.7527
13144TIP3   OH260922   3.929   1.429  15.057 -0.3055 -0.7059 -0.1107
13144TIP3    H160923   3.886   1.398  15.137 -1.4547  0.9780 -0.0239
13144TIP3    H260924   3.860   1.478  15.011  0.1522 -2.1112 -2.4309
13145TIP3   OH260925   6.314   2.274   5.370  0.0899 -0.0653  0.5229
13145TIP3    H160926   6.312   2.179   5.383  2.3698 -0.1451  0.6524
13145TIP3    H260927   6.298   2.285   5.276 -1.9778 -0.4020  0.7750
13146TIP3   OH260928   3.576   6.514   0.856  0.3939 -0.4617  0.1713
13146TIP3    H160929   3.502   6.544   0.804  0.4009  0.9043  0.8923
13146TIP3    H260930   3.638   6.480   0.792 -0.7539 -1.4618 -0.4606
13147TIP3   OH260931   2.686   3.013  12.011 -1.1451  0.1436 -0.4445
13147TIP3    H160932   2.612   3.039  11.956 -0.5934 -0.1267 -1.3374
13147TIP3    H260933   2.645   2.975  12.089 -1.9662 -0.9604 -1.3781
13148TIP3   OH260934   4.435   4.158  15.803  0.0279  0.0416  0.1829
13148TIP3    H160935   4.495   4.155  15.878 -0.2704  0.8241  0.4695
13148TIP3    H260936   4.390   4.074  15.805 -0.5007  0.3282  1.3382
13149TIP3   OH260937   4.299   2.757   2.914 -0.1207  0.3734 -0.1951
13149TIP3    H160938   4.286   2.783   3.005 -1.5228  0.8483 -0.5108
13149TIP3    H260939   4.384   2.712   2.914 -0.0625  0.4309  1.3203
13150TIP3   OH260940   5.116   0.156  16.385  0.1275 -0.3763  0.3818
13150TIP3    H160941   5.146   0.074  16.423 -1.0056 -1.0765 -0.2059
13150TIP3    H260942   5.054   0.131  16.317 -0.4272  0.9716  0.3522
13151TIP3   OH260943   6.628   0.600   1.176 -0.5007 -0.6966  0.2096
13151TIP3    H160944   6.569   0.660   1.130 -0.1335 -0.1020  0.4927
13151TIP3    H260945   6.584   0.581   1.259 -0.1378  0.0678  0.5978
13152TIP3   OH260946   0.096   2.282  12.446 -0.3297  0.5104  0.3474
13152TIP3    H160947   0.034   2.351  12.471 -1.5216 -0.6085  0.6178
13152TIP3    H260948   0.144   2.262  12.527 -0.8001  0.2380  0.5658
13153TIP3   OH260949   0.963   4.807  12.094  0.0984 -0.1171 -0.3333
13153TIP3    H160950   0.923   4.782  12.010 -0.9622  0.2709  0.0353
13153TIP3    H260951   0.969   4.725  12.143 -1.1155 -0.0477 -0.0468
13154TIP3   OH260952   0.729   1.385   4.628  0.0378 -0.2032 -0.1430
13154TIP3    H160953   0.646   1.381   4.581  0.7465 -0.9860 -1.3899
13154TIP3    H260954   0.705   1.405   4.718 -1.5076 -0.6241 -0.4406
13155TIP3   OH260955   6.290   6.711  13.496 -0.8462  0.3435  0.5674
13155TIP3    H160956   6.264   6.792  13.540  0.2043 -0.3431  2.5874
13155TIP3    H260957   6.348   6.668  13.558 -1.9844 -2.3515 -0.0820
13156TIP3   OH260958   1.196   5.701   0.630  0.1224 -0.6619 -0.5249
13156TIP3    H160959   1.277   5.688   0.680  0.3934  1.5537 -0.3081
13156TIP3    H260960   1.224   5.694   0.539  0.7449  0.7330 -0.4746
13157TIP3   OH260961   0.530   3.893   2.715  0.7706  0.2258  0.0167
13157TIP3    H160962   0.524   3.894   2.619  0.2837 -1.1248  0.0079
13157TIP3    H260963   0.578   3.812   2.735  1.7460  0.9884  0.8964
13158TIP3   OH260964   4.709   2.474  14.150 -0.0593  0.6145  0.0986
13158TIP3    H160965   4.653   2.509  14.219  2.7475  2.4627  1.6489
13158TIP3    H260966   4.692   2.529  14.074 -1.7424 -0.1705 -0.1426
13159TIP3   OH260967   4.360   0.102   4.276 -0.2452  0.6618  0.1320
13159TIP3    H160968   4.369   0.196   4.294  0.2211  0.6039  0.2256
13159TIP3    H260969   4.270   0.081   4.302 -0.2662  1.0276  0.3684
13160TIP3   OH260970   5.268   5.472  14.161 -0.8011  0.3351 -0.6576
13160TIP3    H160971   5.253   5.415  14.086  3.3070  0.2984 -1.7151
13160TIP3    H260972   5.317   5.417  14.223 -2.0128  1.0815  1.0492
13161TIP3   OH260973   1.174   6.152  10.968 -0.5054 -0.0933  0.6077
13161TIP3    H160974   1.177   6.078  10.907 -0.0524 -0.7202  1.3581
13161TIP3    H260975   1.112   6.213  10.929 -0.6130 -0.7054 -0.2180
13162TIP3   OH260976   3.968   2.010  16.964  0.8835  0.3171  0.1362
13162TIP3    H160977   3.967   1.927  17.013  1.4512  0.1225 -0.1809
13162TIP3    H260978   3.974   1.983  16.873 -1.1403  0.6375 -0.1537
13163TIP3   OH260979   5.630   2.355  14.467 -0.5535 -0.1586 -0.2920
13163TIP3    H160980   5.623   2.429  14.406  0.7721 -0.0618 -0.3551
13163TIP3    H260981   5.655   2.394  14.550  3.0791 -0.6744 -0.9729
13164TIP3   OH260982   3.268   1.688  16.182 -0.2721 -0.2088 -0.2773
13164TIP3    H160983   3.350   1.687  16.131 -0.9210 -0.5692 -1.3433
13164TIP3    H260984   3.219   1.762  16.147 -0.6115 -0.3027 -0.0015
13165TIP3   OH260985   4.310   4.378   4.830 -0.2304 -0.4975  0.4514
13165TIP3    H160986   4.224   4.419   4.818  0.0437 -0.2973 -0.9735
13165TIP3    H260987   4.291   4.286   4.848 -0.7781 -0.1682  1.7146
13166TIP3   OH260988   5.244   5.630   3.878 -0.0722  0.1454  0.1172
13166TIP3    H160989   5.233   5.701   3.941 -1.8080  0.9551 -1.0145
13166TIP3    H260990   5.325   5.652   3.831 -0.5393  1.3796 -0.1631
13167TIP3   OH260991   4.691   4.939   1.334  0.0729 -0.2367 -0.5258
13167TIP3    H160992   4.639   4.973   1.261 -0.5073  1.1288  0.4970
13167TIP3    H260993   4.629   4.927   1.405  0.8519 -0.2623  0.1736
13168TIP3   OH260994   1.222   2.937   5.437 -0.5547 -0.1902 -0.1110
13168TIP3    H160995   1.160   2.863   5.432 -0.3975 -0.4340  1.1068
13168TIP3    H260996   1.292   2.905   5.493  0.3586  0.3232 -0.9452
13169TIP3   OH260997   5.442   3.799   1.120 -0.7556  0.2347 -0.3351
13169TIP3    H160998   5.478   3.710   1.119 -1.8360 -0.2311 -1.6783
13169TIP3    H260999   5.347   3.785   1.119 -0.9601  1.4194  0.6980
13170TIP3   OH261000   2.784   6.706   4.953 -0.5579  0.3299  0.0634
13170TIP3    H161001   2.697   6.682   4.921 -0.4957 -0.1084  0.2196
13170TIP3    H261002   2.769   6.783   5.009 -0.9082 -0.0374  0.4784
13171TIP3   OH261003   2.926   3.859  13.696 -0.3649 -0.2147  0.3498
13171TIP3    H161004   2.901   3.945  13.662  0.0445 -0.5924 -0.9799
13171TIP3    H261005   2.880   3.852  13.780 -0.4875  1.2498  0.4362
13172TIP3   OH261006   0.741   3.717   2.025  0.1007  0.5759 -0.4523
13172TIP3    H161007   0.745   3.799   1.976  1.5463  0.4485 -0.6073
13172TIP3    H261008   0.826   3.675   2.009 -0.9403 -1.4361 -1.1757
13173TIP3   OH261009   0.597   1.371  15.438 -0.1533  0.5028  0.0673
13173TIP3    H161010   0.545   1.309  15.488 -0.2786  0.8439  0.3658
13173TIP3    H261011   0.534   1.416  15.382 -0.0900  0.4752 -0.0250
13174TIP3   OH261012   2.168   6.012  13.680  0.4688 -0.2717  0.1534
13174TIP3    H161013   2.135   5.968  13.602  2.2005 -0.5699 -0.4498
13174TIP3    H261014   2.147   5.953  13.752 -2.8163  0.8300  0.2668
13175TIP3   OH261015   6.053   0.693   3.793 -0.7900 -0.0782  0.5492
13175TIP3    H161016   6.117   0.731   3.732 -2.0922  0.6458 -0.4158
13175TIP3    H261017   5.970   0.736   3.771 -2.3317 -3.2229 -0.4652
13176TIP3   OH261018   0.431   3.252   3.579 -0.6067 -0.6336  0.2781
13176TIP3    H161019   0.379   3.182   3.618 -0.1947 -0.8726  0.4073
13176TIP3    H261020   0.366   3.313   3.544 -0.9730 -0.9101  0.4613
13177TIP3   OH261021   1.941   1.380   5.368  0.0997  0.6354 -0.4357
13177TIP3    H161022   1.846   1.381   5.377  0.1876 -0.9179  1.0770
13177TIP3    H261023   1.957   1.337   5.284 -0.5235 -1.6679  0.5707
13178TIP3   OH261024   3.350   5.360   0.660 -0.2580 -0.2824 -0.3052
13178TIP3    H161025   3.342   5.296   0.590  0.2455 -1.5952  0.7825
13178TIP3    H261026   3.443   5.382   0.663 -0.2399 -0.3927  0.0706
13179TIP3   OH261027   5.631   5.123   1.485  0.2993  0.0919  0.7766
13179TIP3    H161028   5.668   5.040   1.456 -0.9154 -0.8016  1.6703
13179TIP3    H261029   5.665   5.134   1.574  0.0187  0.2841  0.8594
13180TIP3   OH261030   4.189   4.136   1.382  0.5980  0.1116 -0.0450
13180TIP3    H161031   4.200   4.205   1.447  0.4402 -1.4226  1.6889
13180TIP3    H261032   4.237   4.061   1.418 -1.2982 -1.4553 -0.5856
13181TIP3   OH261033   1.800   3.041   2.387  0.0575  0.2278  0.3330
13181TIP3    H161034   1.722   3.094   2.370  0.4527  0.7251  0.0202
13181TIP3    H261035   1.786   2.960   2.338  1.0011  1.4677 -2.1870
13182TIP3   OH261036   0.601   1.651  13.519  0.0431  0.0157  0.6246
13182TIP3    H161037   0.573   1.632  13.608 -0.4241  0.0229  0.4833
13182TIP3    H261038   0.540   1.602  13.464  2.4872 -3.0479  0.3399
13183TIP3   OH261039   5.119   0.477  15.238  0.1844  0.2470  0.7440
13183TIP3    H161040   5.140   0.386  15.218  0.9324  0.5199  0.2584
13183TIP3    H261041   5.169   0.496  15.318  1.3522  0.7128 -0.0718
13184TIP3   OH261042   3.816   1.755  14.258  0.2634  0.2841  0.3427
13184TIP3    H161043   3.795   1.795  14.173 -0.7958 -1.6740 -0.3744
13184TIP3    H261044   3.843   1.829  14.313  0.3322  1.6980 -1.4850
13185TIP3   OH261045   0.310   0.891  12.069  0.0776  0.2037 -0.2024
13185TIP3    H161046   0.395   0.901  12.026  0.2172  1.2921  0.2855
13185TIP3    H261047   0.296   0.975  12.114 -1.2663  0.0516 -0.2947
13186TIP3   OH261048   1.689   2.314  12.872 -0.5732 -0.3238  0.1826
13186TIP3    H161049   1.719   2.246  12.812  0.8088 -1.9080  2.5091
13186TIP3    H261050   1.691   2.272  12.959 -2.3464  1.8680  1.3930
13187TIP3   OH261051   5.863   4.376  15.296 -0.2080 -0.6614 -0.1616
13187TIP3    H161052   5.925   4.417  15.236 -0.1238 -1.2017 -0.4491
13187TIP3    H261053   5.862   4.434  15.372  3.4647 -2.4141  1.5108
13188TIP3   OH261054   2.771   5.179   3.737  0.0081  0.1265  0.0338
13188TIP3    H161055   2.850   5.162   3.686 -0.2277  0.6908 -0.5273
13188TIP3    H261056   2.768   5.275   3.745 -1.2028  0.1801 -0.9001
13189TIP3   OH261057   6.696   3.830   2.522  0.1529 -0.1142 -0.3984
13189TIP3    H161058   6.782   3.859   2.552  0.7096 -2.4398  0.4191
13189TIP3    H261059   6.637   3.849   2.595  0.0671  0.8484 -0.6984
13190TIP3   OH261060   5.511   4.735   4.340 -0.0445  0.3671 -0.4801
13190TIP3    H161061   5.470   4.806   4.390  1.1211  2.1885 -1.9380
13190TIP3    H261062   5.465   4.736   4.256  0.9108  0.3495 -1.0136
13191TIP3   OH261063   4.204   5.986  14.420 -0.5389 -0.3276 -0.3223
13191TIP3    H161064   4.236   5.901  14.392 -1.5266 -0.7120 -0.3263
13191TIP3    H261065   4.114   5.989  14.389 -0.2528  1.0842 -1.0944
13192TIP3   OH261066   3.087   1.701  14.030  0.0058 -0.3129 -0.6139
13192TIP3    H161067   3.119   1.621  13.988 -0.4466 -0.7372 -0.1779
13192TIP3    H261068   3.062   1.758  13.958 -0.3871 -0.8771 -0.9370
13193TIP3   OH261069   6.497   1.472   3.265 -0.2739 -0.6545 -0.3327
13193TIP3    H161070   6.551   1.413   3.211 -1.3530 -0.6224 -1.4863
13193TIP3    H261071   6.408   1.440   3.252 -0.6890  0.1891  0.4008
13194TIP3   OH261072   4.398   6.233  15.139 -0.8582  0.5510 -0.1318
13194TIP3    H161073   4.372   6.144  15.161 -0.8923  0.9882  1.7550
13194TIP3    H261074   4.456   6.223  15.063 -2.1119 -0.9050 -0.9437
13195TIP3   OH261075   5.486   3.616   5.222 -0.2020  0.4518  0.1668
13195TIP3    H161076   5.475   3.538   5.276 -0.4660 -0.4656 -1.1695
13195TIP3    H261077   5.470   3.689   5.281 -1.2796 -0.5462  1.1323
13196TIP3   OH261078   0.890   3.338   4.539 -0.0402 -0.6445 -0.1564
13196TIP3    H161079   0.842   3.354   4.458 -2.3676 -0.1395  1.2416
13196TIP3    H261080   0.951   3.268   4.517  0.0370  0.0724 -2.5506
13197TIP3   OH261081   2.495   1.008   3.129  0.0742 -0.8411  0.1643
13197TIP3    H161082   2.404   0.988   3.149  0.0993 -1.5025 -0.3412
13197TIP3    H261083   2.508   0.974   3.041  0.8033 -0.7129  0.2168
13198TIP3   OH261084   6.731   2.044   5.268  0.0280  0.1063 -0.1234
13198TIP3    H161085   6.714   2.138   5.268  1.6285  0.4410 -0.8871
13198TIP3    H261086   6.684   2.010   5.344 -0.8888  1.4518 -0.0604
13199TIP3   OH261087   0.979   6.505   2.395 -0.4723  0.0926  0.1873
13199TIP3    H161088   1.022   6.590   2.409 -1.9239  1.0502 -0.8447
13199TIP3    H261089   0.995   6.486   2.302  0.5394 -1.1939  0.6014
13200TIP3   OH261090   6.359   5.312   2.748  0.0612  0.4267  0.4150
13200TIP3    H161091   6.336   5.361   2.827 -0.2121  0.8648  0.0699
13200TIP3    H261092   6.430   5.363   2.708  0.2060  0.2011  0.3874
13201TIP3   OH261093   1.863   3.463   6.070 -0.5133  0.5571 -0.3990
13201TIP3    H161094   1.885   3.555   6.054 -0.4162  1.0502  2.1113
13201TIP3    H261095   1.939   3.428   6.116 -0.3383 -0.9661 -1.7750
13202TIP3   OH261096   3.812   0.694   5.573 -0.0052  0.5993 -0.3233
13202TIP3    H161097   3.823   0.755   5.500 -5.2797  0.2008 -1.8524
13202TIP3    H261098   3.791   0.750   5.648  1.6262  0.8366 -0.0114
13203TIP3   OH261099   6.460   6.469   0.631 -0.0100 -0.0045 -0.2499
13203TIP3    H161100   6.518   6.428   0.567  1.8329  0.2503  1.1375
13203TIP3    H261101   6.404   6.398   0.663  0.4427 -0.5665 -0.6949
13204TIP3   OH261102   5.639   2.001  13.398  0.4683  0.2114  0.3049
13204TIP3    H161103   5.631   2.083  13.349 -0.6448 -0.6089 -0.9616
13204TIP3    H261104   5.633   1.933  13.331  0.7127 -0.9168  1.4063
13205TIP3   OH261105   5.448   1.685  12.660  0.0971 -0.0387 -0.3101
13205TIP3    H161106   5.459   1.642  12.575  2.2360 -0.6805  0.2200
13205TIP3    H261107   5.485   1.623  12.723  0.0330  1.1013  0.9026
13206TIP3   OH261108   1.638   3.424  13.205 -0.0607  0.2054 -0.6341
13206TIP3    H161109   1.555   3.380  13.221  1.0079 -1.3167  1.0915
13206TIP3    H261110   1.640   3.494  13.270  0.9798 -1.2454  0.9754
13207TIP3   OH261111   2.659   3.734   5.706  0.8888  0.1054  0.1084
13207TIP3    H161112   2.660   3.815   5.756 -0.1128 -0.2369  0.7080
13207TIP3    H261113   2.684   3.666   5.768 -0.5226 -0.3425  0.2136
13208TIP3   OH261114   4.988   3.988   6.649 -0.4297 -0.4217 -0.0238
13208TIP3    H161115   4.977   3.921   6.582  0.3032 -0.1400 -0.4457
13208TIP3    H261116   5.068   4.035   6.623  0.0759 -0.5285  1.2345
13209TIP3   OH261117   4.317   4.391   5.967 -0.1581 -0.1429 -0.7433
13209TIP3    H161118   4.268   4.469   5.995 -0.1955 -0.8653  1.3512
13209TIP3    H261119   4.250   4.323   5.958  0.2518 -0.7657  0.7280
13210TIP3   OH261120   5.433   0.755  14.217 -0.6351 -0.6906 -0.0580
13210TIP3    H161121   5.462   0.671  14.180  3.4408  1.1399 -1.6275
13210TIP3    H261122   5.412   0.809  14.141 -0.6630  0.5072  0.7695
13211TIP3   OH261123   0.085   5.625  15.220  0.2444  0.1586 -0.5733
13211TIP3    H161124   0.101   5.542  15.266  0.7882  0.7564  0.3572
13211TIP3    H261125   0.171   5.648  15.184 -0.1585 -0.2547 -1.8369
13212TIP3   OH261126   4.386   3.081  13.430 -1.0446 -0.0159  0.2082
13212TIP3    H161127   4.360   2.991  13.409 -1.0722  0.3777 -1.6441
13212TIP3    H261128   4.469   3.071  13.476  0.9382 -0.9770 -3.2060
13213TIP3   OH261129   0.369   5.321  13.359  0.6963  0.0613  0.6785
13213TIP3    H161130   0.312   5.381  13.310  0.2897 -0.0994  0.9430
13213TIP3    H261131   0.390   5.251  13.297 -1.1854 -1.0299  1.1809
13214TIP3   OH261132   6.146   3.043   6.201  0.4178  0.8001 -0.2032
13214TIP3    H161133   6.165   2.965   6.149 -0.3417  1.1682 -1.0588
13214TIP3    H261134   6.193   3.113   6.155  0.7728  0.9177  0.3364
13215TIP3   OH261135   4.423   4.702  13.138 -0.5407  0.3738 -0.2962
13215TIP3    H161136   4.358   4.645  13.179  0.2219 -0.1211  0.2493
13215TIP3    H261137   4.506   4.677  13.178  0.1031  0.4869 -1.4984
13216TIP3   OH261138   4.441   1.059   5.146 -0.4339  0.3538 -0.0242
13216TIP3    H161139   4.400   0.990   5.093  2.6460 -0.6347 -1.3351
13216TIP3    H261140   4.389   1.061   5.227 -1.6728 -2.3021 -0.6323
13217TIP3   OH261141   1.964   6.654  12.506  0.1584  0.3839  0.2454
13217TIP3    H161142   1.968   6.732  12.561  0.3184  0.2195  0.4699
13217TIP3    H261143   1.876   6.620  12.521  0.2182  0.3126  0.4403
13218TIP3   OH261144   0.988   2.589   4.803  0.0728  0.1074 -0.0741
13218TIP3    H161145   1.034   2.556   4.880  2.7172  0.5860 -1.3333
13218TIP3    H261146   0.930   2.657   4.837 -0.4626 -1.1641  1.7125
13219TIP3   OH261147   0.316   3.171  10.450  0.1788  0.1843 -0.3881
13219TIP3    H161148   0.378   3.221  10.503  1.4288  0.2150 -1.7887
13219TIP3    H261149   0.290   3.231  10.380 -0.1741 -0.3561 -0.7291
13220TIP3   OH261150   1.437   5.609  10.981 -0.0223 -0.2562 -0.1622
13220TIP3    H161151   1.499   5.635  10.912 -0.3017 -0.3931 -0.4680
13220TIP3    H261152   1.465   5.522  11.007  2.1988  1.0462  2.3210
13221TIP3   OH261153   0.223   3.598   0.232  0.7567  0.5223  0.0621
13221TIP3    H161154   0.145   3.636   0.190  1.1118 -0.2508 -1.3426
13221TIP3    H261155   0.193   3.513   0.265  0.2932  1.4134  2.0859
13222TIP3   OH261156   0.242   4.349  12.677  0.6142  0.7037  0.3411
13222TIP3    H161157   0.162   4.343  12.728  0.9796  1.5023  1.0359
13222TIP3    H261158   0.310   4.372  12.740  1.0808  1.6947 -0.4781
13223TIP3   OH261159   6.152   3.009  11.866 -0.2552  0.0770  0.6468
13223TIP3    H161160   6.218   3.073  11.843  1.9723 -2.9240 -2.3518
13223TIP3    H261161   6.082   3.023  11.802 -0.2916  0.2145  0.7170
13224TIP3   OH261162   3.066   4.333  16.164  0.1440 -0.6930  0.2689
13224TIP3    H161163   3.077   4.426  16.179  0.2062 -0.5810 -0.4268
13224TIP3    H261164   3.124   4.291  16.228  0.8304 -0.2236 -0.0305
13225TIP3   OH261165   3.554   0.892   4.183  0.3190  0.3688  0.6098
13225TIP3    H161166   3.508   0.965   4.223  1.0334  1.4028 -0.4082
13225TIP3    H261167   3.510   0.879   4.099  1.4827  0.9841 -0.1127
13226TIP3   OH261168   0.819   6.257  13.356 -0.0285 -0.3333 -0.5122
13226TIP3    H161169   0.791   6.234  13.445 -1.1001 -0.4527 -0.8778
13226TIP3    H261170   0.786   6.187  13.301 -0.9225  0.6358 -1.2480
13227TIP3   OH261171   2.902   6.139   5.392  0.4705 -0.0343 -0.3621
13227TIP3    H161172   2.826   6.082   5.402  1.0000 -0.8039 -0.6340
13227TIP3    H261173   2.912   6.181   5.477 -1.2677  1.3799 -0.8043
13228TIP3   OH261174   3.363   4.209   3.509 -0.0858 -0.0088  0.6382
13228TIP3    H161175   3.336   4.229   3.599  0.4294  0.1000  0.7716
13228TIP3    H261176   3.287   4.232   3.456 -0.5125 -0.3908  1.0794
13229TIP3   OH261177   2.468   1.596   0.488  0.1275  0.1945  0.0038
13229TIP3    H161178   2.507   1.510   0.502 -1.2827 -0.5842 -0.5866
13229TIP3    H261179   2.455   1.631   0.576  0.8520 -0.1217  0.2444
13230TIP3   OH261180   1.684   3.709   5.049 -0.0703 -0.2720  0.4538
13230TIP3    H161181   1.664   3.655   4.971  1.4673 -0.0114 -0.1452
13230TIP3    H261182   1.658   3.797   5.024 -0.9607 -0.4265  0.7977
13231TIP3   OH261183   6.685   6.695  13.525  1.0223 -0.3383 -0.7863
13231TIP3    H161184   6.750   6.763  13.507  1.0837 -0.8700 -2.8555
13231TIP3    H261185   6.737   6.617  13.544  0.9491  0.0258  1.0827
13232TIP3   OH261186   0.883   2.808   2.922  0.2302  0.5892 -0.2907
13232TIP3    H161187   0.894   2.873   2.991  1.9668 -0.8780  0.8915
13232TIP3    H261188   0.791   2.817   2.896  0.0119  2.4190  0.9163
13233TIP3   OH261189   0.409   2.223   4.848  0.5426  0.0874 -0.4933
13233TIP3    H161190   0.375   2.258   4.931 -0.0381 -0.7622 -0.3573
13233TIP3    H261191   0.365   2.275   4.781 -1.0944 -0.9774 -0.3157
13234TIP3   OH261192   3.133   1.417  15.177 -0.4429 -0.1238 -0.1269
13234TIP3    H161193   3.055   1.420  15.123 -0.5087 -2.5131 -0.2450
13234TIP3    H261194   3.191   1.354  15.133  1.7959  1.9178 -0.3163
13235TIP3   OH261195   5.856   0.159   0.712 -1.0464 -0.1412 -0.3346
13235TIP3    H161196   5.916   0.198   0.648  0.1980 -2.2487 -0.5636
13235TIP3    H261197   5.908   0.150   0.792 -2.5582  2.3826  1.0608
13236TIP3   OH261198   3.226   2.465   0.328 -0.2447 -0.0295  0.0041
13236TIP3    H161199   3.320   2.481   0.328 -0.2824  0.3938 -1.6934
13236TIP3    H261200   3.216   2.374   0.356  0.8871 -0.9602 -2.3783
13237TIP3   OH261201   4.280   2.318  13.909 -0.6359  0.1341  0.0555
13237TIP3    H161202   4.205   2.258  13.906 -1.2861  0.9484 -0.6390
13237TIP3    H261203   4.300   2.326  14.002 -2.3557  0.9989  0.4090
13238TIP3   OH261204   2.123   3.512  16.138 -0.3798  0.0924  0.0900
13238TIP3    H161205   2.058   3.444  16.156 -1.1993  1.1751  1.4511
13238TIP3    H261206   2.085   3.592  16.175  1.1959  1.0040 -0.1588
13239TIP3   OH261207   3.586   5.588  12.280 -0.0784 -0.3025 -0.2102
13239TIP3    H161208   3.668   5.637  12.276  0.7748 -1.7989 -1.8893
13239TIP3    H261209   3.611   5.501  12.312 -1.1250 -0.5733 -0.0901
13240TIP3   OH261210   4.723   2.359  13.121 -0.0403 -0.3771  0.2315
13240TIP3    H161211   4.720   2.264  13.110 -1.5333 -0.2337 -1.1669
13240TIP3    H261212   4.661   2.377  13.192  1.4289 -0.5261  1.5980
13241TIP3   OH261213   5.000   2.330   2.033 -0.7792  0.5890  0.1778
13241TIP3    H161214   4.988   2.288   1.948 -0.3298 -1.7491  1.1827
13241TIP3    H261215   4.924   2.301   2.084  0.6621 -0.9192  1.5842
13242TIP3   OH261216   3.026   1.716  15.540 -0.1290 -0.4466  0.0030
13242TIP3    H161217   2.999   1.636  15.495  0.6616  0.2517 -1.8249
13242TIP3    H261218   2.948   1.773  15.535  0.9003  0.9744 -3.8651
13243TIP3   OH261219   3.102   4.460   5.892 -0.2205 -0.4472 -0.0423
13243TIP3    H161220   3.072   4.381   5.848  1.3285 -0.3847 -1.3324
13243TIP3    H261221   3.028   4.520   5.887 -1.0310 -1.4193 -0.0578
13244TIP3   OH261222   0.205   0.651   3.906  0.1594 -0.1100  0.0816
13244TIP3    H161223   0.172   0.731   3.865 -3.9742 -1.7902 -0.3666
13244TIP3    H261224   0.143   0.633   3.977  2.5304 -1.5697  1.9750
13245TIP3   OH261225   5.888   2.291   0.393 -0.2687 -0.2323 -0.5925
13245TIP3    H161226   5.879   2.217   0.333 -2.8718 -0.1697 -0.3976
13245TIP3    H261227   5.878   2.253   0.480  3.4528 -0.3174 -0.0664
13246TIP3   OH261228   1.272   2.952  14.673  0.0576 -0.1155 -0.4577
13246TIP3    H161229   1.363   2.923  14.663  0.1240 -0.7722  1.5520
13246TIP3    H261230   1.220   2.883  14.633  0.4267  0.1140 -1.3476
13247TIP3   OH261231   0.022   2.955  13.515  0.0233 -0.0916  0.0120
13247TIP3    H161232   0.075   3.015  13.568 -0.1135 -2.5367  3.2773
13247TIP3    H261233   0.085   2.903  13.466  0.6212 -1.2890  1.9321
13248TIP3   OH261234   0.715   3.295  17.027  0.2246 -0.0262  0.4806
13248TIP3    H161235   0.662   3.374  17.036  0.0972 -0.1506  0.8180
13248TIP3    H261236   0.773   3.314  16.954 -1.1249 -0.3437 -0.7402
13249TIP3   OH261237   0.299   1.426   0.524  0.6567 -0.0223  0.0912
13249TIP3    H161238   0.240   1.497   0.547  0.4895  0.6992 -2.3833
13249TIP3    H261239   0.324   1.388   0.609 -0.0381  2.2973  1.4205
13250TIP3   OH261240   6.246   3.197   0.078  0.1984  0.2486 -0.0851
13250TIP3    H161241   6.169   3.142   0.090  0.8619 -0.5137  0.8676
13250TIP3    H261242   6.269   3.228   0.165  1.7902 -0.7215 -0.1064
13251TIP3   OH261243   1.216   6.210   5.474 -0.7060 -0.2046 -0.8835
13251TIP3    H161244   1.143   6.162   5.513  0.8838 -2.0485  0.0194
13251TIP3    H261245   1.240   6.276   5.539 -0.6351 -0.6041 -0.4955
13252TIP3   OH261246   0.330   0.632  16.621  0.2128 -0.4794 -0.0509
13252TIP3    H161247   0.328   0.673  16.535  0.1401 -0.9027 -0.2553
13252TIP3    H261248   0.273   0.555  16.612  1.0491 -1.1316  0.0547
13253TIP3   OH261249   4.246   2.641   1.735  0.1633  0.2315 -0.0260
13253TIP3    H161250   4.232   2.736   1.728 -0.6082  0.2583  1.3595
13253TIP3    H261251   4.332   2.632   1.776  1.9711  0.1901 -3.4658
13254TIP3   OH261252   2.521   0.804   0.246 -0.2025 -0.2264 -0.8516
13254TIP3    H161253   2.510   0.879   0.187  3.4367  1.6524  0.5327
13254TIP3    H261254   2.559   0.736   0.191  0.7660  0.6069 -1.2590
13255TIP3   OH261255   2.978   6.210   2.549 -0.3899  0.1185  0.1045
13255TIP3    H161256   3.008   6.275   2.485  0.0003  0.3136  0.4772
13255TIP3    H261257   3.005   6.245   2.634  0.8644 -1.0515  0.2387
13256TIP3   OH261258   0.505   6.488   5.349 -0.4217  0.5436 -0.5900
13256TIP3    H161259   0.557   6.477   5.429  0.3839  1.7451 -0.9222
13256TIP3    H261260   0.533   6.418   5.291 -2.6633 -1.8345  0.9489
13257TIP3   OH261261   0.677   2.980  12.916  0.2596  0.2053 -0.3402
13257TIP3    H161262   0.742   2.911  12.927 -1.7886 -1.6310  1.0735
13257TIP3    H261263   0.699   3.045  12.983 -1.2201 -2.0180  2.4926
13258TIP3   OH261264   1.797   5.060   0.537 -0.6489  0.3825  0.3659
13258TIP3    H161265   1.719   5.066   0.593 -0.7477  0.5162  0.2129
13258TIP3    H261266   1.763   5.034   0.451 -0.2697 -2.6417  1.0020
13259TIP3   OH261267   5.253   4.108   1.538  0.1363 -0.1946 -0.6081
13259TIP3    H161268   5.282   4.035   1.594 -0.7321 -0.1028 -0.0346
13259TIP3    H261269   5.293   4.089   1.452  0.0336 -1.2695 -0.4305
13260TIP3   OH261270   2.342   6.438   2.855  0.1084  0.1536 -0.6079
13260TIP3    H161271   2.353   6.531   2.870 -0.2142  0.4213 -1.8495
13260TIP3    H261272   2.412   6.415   2.794  0.1055 -0.3875 -0.4153
13261TIP3   OH261273   5.386   5.566  10.735 -0.0466 -0.4192  0.3883
13261TIP3    H161274   5.445   5.511  10.683  1.1705  0.6165  0.6128
13261TIP3    H261275   5.336   5.505  10.788 -1.7387 -1.5620 -2.3481
13262TIP3   OH261276   6.477   3.946   4.917  0.0829  0.4766  0.6960
13262TIP3    H161277   6.399   3.891   4.923 -0.3713  0.7577 -1.5779
13262TIP3    H261278   6.470   3.987   4.830  1.6704  2.1757  1.3084
13263TIP3   OH261279   3.139   6.558   5.282  0.3221 -0.2175  0.2022
13263TIP3    H161280   3.231   6.580   5.264  0.3537 -1.0026 -0.6565
13263TIP3    H261281   3.090   6.614   5.223  0.2128  0.4967  0.9468
13264TIP3   OH261282   2.399   2.801   2.724 -0.2834 -0.5747  0.1943
13264TIP3    H161283   2.432   2.827   2.810  0.0498 -0.8348  0.1501
13264TIP3    H261284   2.462   2.736   2.693  0.1651  0.2534 -0.6926
13265TIP3   OH261285   2.259   5.044  12.268  0.5189  0.3112 -0.0487
13265TIP3    H161286   2.257   5.043  12.173 -3.4454 -0.1668 -0.1195
13265TIP3    H261287   2.332   4.986  12.291 -0.3308 -2.1159 -2.8430
13266TIP3   OH261288   3.763   1.330  15.286 -0.3052  0.3730 -0.0151
13266TIP3    H161289   3.735   1.304  15.374 -1.2619 -3.7721 -1.3472
13266TIP3    H261290   3.858   1.340  15.293 -0.4830  1.2835  1.6723
13267TIP3   OH261291   6.800   5.754   4.380 -0.2442  0.3328  0.0162
13267TIP3    H161292   6.724   5.812   4.394 -0.5228  0.3339 -1.4191
13267TIP3    H261293   6.765   5.680   4.331 -0.3566 -2.1653  3.4901
13268TIP3   OH261294   3.687   0.226   2.585 -0.5654 -0.0643  0.4837
13268TIP3    H161295   3.761   0.238   2.525 -2.9429 -0.9712 -2.9232
13268TIP3    H261296   3.715   0.154   2.643 -0.0912 -3.3027 -3.3403
13269TIP3   OH261297   3.171   0.299   4.768  0.2171  0.2117  0.4220
13269TIP3    H161298   3.163   0.204   4.774  0.6107  0.1270 -0.2771
13269TIP3    H261299   3.194   0.316   4.677  0.9375  0.9252  0.7194
13270TIP3   OH261300   3.732   3.657   2.608  0.6280 -0.1284 -0.1003
13270TIP3    H161301   3.775   3.724   2.555 -0.3904  1.0898  0.5518
13270TIP3    H261302   3.801   3.625   2.667  0.7263  1.7775  0.9130
13271TIP3   OH261303   1.616   2.205   0.407 -0.2404 -0.5322 -0.2749
13271TIP3    H161304   1.668   2.221   0.486 -2.3567  4.4904  0.4779
13271TIP3    H261305   1.536   2.164   0.440  0.2288 -1.5505 -0.3700
13272TIP3   OH261306   1.306   4.059   5.463 -0.1135 -0.2805  0.1312
13272TIP3    H161307   1.362   3.984   5.444  1.5326  1.2303 -1.2388
13272TIP3    H261308   1.305   4.110   5.382 -0.0865  1.8637  1.4060
13273TIP3   OH261309   0.955   0.824   0.077  0.6279  0.6309  0.3534
13273TIP3    H161310   0.886   0.799   0.138  1.6337  1.2935  1.8380
13273TIP3    H261311   1.024   0.759   0.091  0.3073 -0.0831 -1.1812
13274TIP3   OH261312   1.419   4.706   3.742 -0.1541 -0.0523 -0.9086
13274TIP3    H161313   1.463   4.694   3.658  0.1952  1.3893 -0.9666
13274TIP3    H261314   1.460   4.784   3.779 -1.9694  0.7674 -0.5058
13275TIP3   OH261315   1.050   6.064   0.045  0.1886  0.3075  0.4070
13275TIP3    H161316   0.994   6.134   0.079 -0.0327  1.2934 -1.8393
13275TIP3    H261317   1.024   6.055  -0.047  3.3049  0.3863 -0.5769
13276TIP3   OH261318   2.323   1.904  14.468 -0.7345  0.3208  0.4315
13276TIP3    H161319   2.234   1.892  14.434 -0.2917  0.0575 -0.6970
13276TIP3    H261320   2.377   1.918  14.390  0.1171  1.1678  1.1387
13277TIP3   OH261321   3.168   0.673  16.152  0.0886  0.4484 -0.5156
13277TIP3    H161322   3.124   0.620  16.219  0.4135  0.1013 -0.5775
13277TIP3    H261323   3.107   0.672  16.078 -0.0011  0.3344 -0.4421
13278TIP3   OH261324   5.012   6.195  17.291  0.2558 -0.5839 -0.5457
13278TIP3    H161325   5.036   6.109  17.326 -0.6452  0.1080  1.9995
13278TIP3    H261326   5.087   6.220  17.237  1.8479 -1.7560  0.9917
13279TIP3   OH261327   1.304   6.709   2.026  0.2932  0.2814  0.7437
13279TIP3    H161328   1.378   6.768   2.035  0.9033 -0.7822  3.3436
13279TIP3    H261329   1.308   6.681   1.934  2.3985  1.1269  0.5120
13280TIP3   OH261330   3.967   2.444   3.451  0.3810 -0.1561 -0.3106
13280TIP3    H161331   3.958   2.436   3.546  2.1864 -0.5328 -0.1439
13280TIP3    H261332   4.024   2.520   3.439 -1.5947  1.2727 -1.2176
13281TIP3   OH261333   5.861   4.686  14.034  0.4178  0.4530 -0.0551
13281TIP3    H161334   5.882   4.780  14.030 -2.4590  1.2250  0.8849
13281TIP3    H261335   5.829   4.673  14.124  0.7955 -1.4762 -0.1598
13282TIP3   OH261336   3.171   3.735  17.130 -0.1288 -0.2947 -0.4770
13282TIP3    H161337   3.222   3.794  17.185  0.1832  1.4122 -2.4878
13282TIP3    H261338   3.200   3.647  17.156  1.1409  0.5153  0.9629
13283TIP3   OH261339   4.261   4.971  11.860  0.3915  0.4943 -0.5175
13283TIP3    H161340   4.220   4.887  11.884 -0.6932  1.2553  0.3949
13283TIP3    H261341   4.313   4.950  11.783  1.5021 -1.3766  0.6566
13284TIP3   OH261342   5.814   0.194  16.439  0.1824  0.0013 -0.1729
13284TIP3    H161343   5.893   0.172  16.487 -0.4034 -0.8703  0.4164
13284TIP3    H261344   5.830   0.282  16.404  1.3986 -0.1679 -0.0661
13285TIP3   OH261345   3.765   3.944  16.788  0.4232 -0.0124  0.3949
13285TIP3    H161346   3.692   4.005  16.795 -0.5587 -1.1287  0.2826
13285TIP3    H261347   3.841   3.993  16.821 -0.4697  1.0013  1.0168
13286TIP3   OH261348   5.966   0.928   1.279 -0.1675  0.5287 -0.4820
13286TIP3    H161349   6.058   0.934   1.254  0.5379  0.1636  1.7629
13286TIP3    H261350   5.951   0.834   1.290 -0.7098  0.6117 -0.4845
13287TIP3   OH261351   6.402   2.274  16.555  0.3128  0.6015  0.0543
13287TIP3    H161352   6.320   2.236  16.587  0.4395  1.0879  1.0040
13287TIP3    H261353   6.376   2.338  16.490 -0.0828  0.9000  0.5005
13288TIP3   OH261354   1.133   5.317  12.083 -0.5079 -0.1714 -0.0485
13288TIP3    H161355   1.045   5.324  12.120 -0.3295  0.3136  0.3022
13288TIP3    H261356   1.140   5.392  12.023 -0.1269  0.1446  0.3825
13289TIP3   OH261357   4.395   2.195  16.382  0.2495 -0.2119  0.0822
13289TIP3    H161358   4.314   2.244  16.375  0.3684  0.2960  1.7678
13289TIP3    H261359   4.374   2.122  16.440  0.8008 -0.5408 -0.1215
13290TIP3   OH261360   4.566   4.079  16.013 -0.2965  0.2655  0.2006
13290TIP3    H161361   4.496   4.021  16.042 -0.1562  0.8156  1.7069
13290TIP3    H261362   4.620   4.024  15.955 -2.6698  0.1954 -2.1574
13291TIP3   OH261363   2.827   4.973  13.306 -0.0080  0.3366  0.4716
13291TIP3    H161364   2.877   5.054  13.312 -3.3353  2.8423 -1.8143
13291TIP3    H261365   2.870   4.923  13.237  0.8808  1.1616  0.4107
13292TIP3   OH261366   4.572   5.900   1.856  0.2334 -0.2816 -0.1458
13292TIP3    H161367   4.527   5.822   1.824 -0.7279 -0.0132  0.5354
13292TIP3    H261368   4.664   5.887   1.830  0.0186 -1.4627 -0.3451
13293TIP3   OH261369   4.041   3.265   4.520  0.0163  0.6483  0.5842
13293TIP3    H161370   4.071   3.280   4.430 -1.4723 -0.9186 -0.2347
13293TIP3    H261371   4.095   3.192   4.550 -0.8684 -0.1833  0.1954
13294TIP3   OH261372   4.545   6.702  12.947  0.3321  0.2403 -0.0275
13294TIP3    H161373   4.472   6.671  13.001 -0.2691  0.0458 -0.9288
13294TIP3    H261374   4.503   6.735  12.868  1.2827 -0.8233 -1.0127
13295TIP3   OH261375   2.908   3.680   5.097 -0.0905  0.2590  0.5521
13295TIP3    H161376   2.981   3.668   5.158 -0.0979 -1.8793  0.2258
13295TIP3    H261377   2.946   3.726   5.023  1.1003 -1.2226  0.1867
13296TIP3   OH261378   3.416   0.666  16.457  0.4334 -0.6575  0.4487
13296TIP3    H161379   3.430   0.628  16.371  0.4546 -0.1804  0.2407
13296TIP3    H261380   3.468   0.747  16.457 -2.2752  1.1930 -0.3566
13297TIP3   OH261381   5.722   3.738   6.054 -0.3482  0.2926 -0.3559
13297TIP3    H161382   5.740   3.812   5.996  0.3736 -0.6233 -1.3245
13297TIP3    H261383   5.696   3.779   6.137  2.1672  1.6937 -0.1566
13298TIP3   OH261384   6.135   4.662  14.764 -0.2346 -0.2053 -0.2472
13298TIP3    H161385   6.100   4.746  14.736 -2.3087 -1.2184 -0.9560
13298TIP3    H261386   6.085   4.597  14.714 -0.0349 -1.9181  1.6134
13299TIP3   OH261387   1.878   6.609  11.721  0.1291 -0.2224  0.4426
13299TIP3    H161388   1.885   6.546  11.650  2.4497 -1.0269  1.2921
13299TIP3    H261389   1.814   6.570  11.782  1.9874 -2.1622  1.2625
13300TIP3   OH261390   0.787   2.133   2.354  0.1853 -0.1849  0.2784
13300TIP3    H161391   0.828   2.051   2.326  0.3595 -0.4314  1.2377
13300TIP3    H261392   0.856   2.178   2.402  0.3646  0.9266 -0.9636
13301TIP3   OH261393   5.243   0.225  11.855  0.1793 -0.1988  0.2364
13301TIP3    H161394   5.248   0.131  11.836  1.1330 -0.1695  0.2891
13301TIP3    H261395   5.334   0.255  11.854 -0.0831  0.6535  0.6009
13302TIP3   OH261396   5.814   1.778   1.838  0.1023 -0.1980 -0.1990
13302TIP3    H161397   5.734   1.736   1.868 -0.3917 -0.1524 -1.3927
13302TIP3    H261398   5.803   1.786   1.743  1.2134  0.4558 -0.2942
13303TIP3   OH261399   3.862   2.436   3.708 -0.0283 -0.3028  0.5170
13303TIP3    H161400   3.779   2.466   3.672  0.7190 -0.4816 -1.4505
13303TIP3    H261401   3.837   2.377   3.779 -1.5702 -0.0730  0.1901
13304TIP3   OH261402   2.745   6.576  15.816 -0.5582  0.0768 -0.0881
13304TIP3    H161403   2.800   6.502  15.843 -0.5097 -0.2090 -0.9350
13304TIP3    H261404   2.778   6.599  15.729 -0.9260  0.7541 -0.0505
13305TIP3   OH261405   4.045   1.742   3.369 -0.9523 -0.5153 -0.1678
13305TIP3    H161406   4.100   1.743   3.447 -2.1732 -1.8538  0.7745
13305TIP3    H261407   4.095   1.693   3.304 -0.2549 -0.0700  0.0240
13306TIP3   OH261408   0.992   3.320   3.611  0.1445 -0.1577 -0.2511
13306TIP3    H161409   1.068   3.334   3.555  0.5269  0.6188  0.4479
13306TIP3    H261410   0.953   3.238   3.579  1.1237 -0.4271 -0.7729
13307TIP3   OH261411   0.070   4.794   1.933  0.1714 -0.4346 -0.0598
13307TIP3    H161412   0.136   4.730   1.908 -0.6399 -2.2826  2.1333
13307TIP3    H261413  -0.013   4.745   1.933 -1.4216  1.9035 -3.1722
13308TIP3   OH261414   2.851   3.712  12.922  0.2104 -0.0717  0.2777
13308TIP3    H161415   2.930   3.730  12.871 -0.8554  1.4096 -0.9416
13308TIP3    H261416   2.824   3.797  12.955 -0.8299 -0.5675  0.7602
13309TIP3   OH261417   1.266   4.348   0.997 -0.1350 -0.4245 -0.2696
13309TIP3    H161418   1.276   4.371   1.089 -2.6335  1.5981 -0.3808
13309TIP3    H261419   1.246   4.255   0.997  0.5013 -0.5860  1.1546
13310TIP3   OH261420   4.503   4.318  16.818 -0.0056 -0.4955 -0.1155
13310TIP3    H161421   4.427   4.298  16.762  0.4517  0.0710 -0.9584
13310TIP3    H261422   4.571   4.258  16.788  1.0782  1.5273 -2.0256
13311TIP3   OH261423   2.636   6.796  17.216 -0.2342  0.5228  0.6642
13311TIP3    H161424   2.696   6.793  17.141 -0.4021 -0.9911  0.5663
13311TIP3    H261425   2.623   6.889  17.232 -0.6651  0.8981 -1.5623
13312TIP3   OH261426   6.367   1.845  14.063 -0.1094  0.3537 -0.2775
13312TIP3    H161427   6.392   1.937  14.072 -0.1930  0.4965 -1.3176
13312TIP3    H261428   6.435   1.807  14.006 -0.4203 -0.0694 -0.3712
13313TIP3   OH261429   6.399   0.750   4.773  0.2484 -0.4025  0.1985
13313TIP3    H161430   6.321   0.776   4.723  0.4925 -0.2861 -0.1237
13313TIP3    H261431   6.383   0.659   4.797  0.0276 -0.3894  0.1046
13314TIP3   OH261432   1.941   3.881   1.481  0.1884  0.4884 -0.3835
13314TIP3    H161433   1.984   3.883   1.396 -0.5424 -0.0283 -0.7836
13314TIP3    H261434   2.001   3.832   1.537  1.7965  2.8306  0.0878
13315TIP3   OH261435   2.361   4.596  13.761  0.2497 -0.2126  0.3372
13315TIP3    H161436   2.360   4.678  13.711 -0.8739  0.2279  1.0186
13315TIP3    H261437   2.315   4.534  13.706 -0.9467  0.2587  0.7737
13316TIP3   OH261438   5.939   0.186   1.482 -0.1427  0.9338 -0.0753
13316TIP3    H161439   5.906   0.103   1.517  1.8720 -0.4998 -1.3831
13316TIP3    H261440   5.865   0.219   1.430 -1.8335  1.2499  2.3588
13317TIP3   OH261441   1.280   2.752  11.141  0.2259 -0.2106 -0.1652
13317TIP3    H161442   1.258   2.815  11.072 -0.7484 -1.7141 -1.3134
13317TIP3    H261443   1.211   2.686  11.135  2.1841 -2.3642 -0.2632
13318TIP3   OH261444   4.030   2.811   1.551 -0.5468  0.0544  0.6213
13318TIP3    H161445   4.075   2.775   1.474 -1.4411  0.8499 -0.2976
13318TIP3    H261446   3.938   2.794   1.535 -0.7409  0.1874  1.5592
13319TIP3   OH261447   3.269   4.041  13.498 -0.0852 -0.0001  0.5376
13319TIP3    H161448   3.203   3.985  13.456  2.8318 -1.3095 -2.8028
13319TIP3    H261449   3.326   3.980  13.545  1.2906  0.4636 -0.4481
13320TIP3   OH261450   6.645   1.569  14.114  0.0595 -0.6581 -0.3177
13320TIP3    H161451   6.562   1.598  14.150 -0.3150 -1.6037 -0.3942
13320TIP3    H261452   6.703   1.563  14.190  0.5736  1.6140 -0.4751
13321TIP3   OH261453   4.099   5.501  12.760  0.0838  0.0621  0.0089
13321TIP3    H161454   4.004   5.505  12.749  0.0873 -1.1963 -0.6821
13321TIP3    H261455   4.133   5.499  12.670  0.6636 -0.9647  0.2339
13322TIP3   OH261456   4.526   3.824   2.994 -0.0267  0.0983  0.4109
13322TIP3    H161457   4.443   3.856   2.959  0.2073  0.3398  0.0732
13322TIP3    H261458   4.507   3.736   3.026 -0.3003 -0.0343 -0.1100
13323TIP3   OH261459   3.378   2.457  14.834  0.3141 -0.3272  0.1216
13323TIP3    H161460   3.468   2.459  14.799  0.4352  2.3219  0.4357
13323TIP3    H261461   3.338   2.537  14.802 -1.9253 -1.3439  0.1957
13324TIP3   OH261462   5.437   5.009   0.961  0.1551 -0.0728 -0.1750
13324TIP3    H161463   5.517   4.973   1.001  0.3368  0.1200 -0.3673
13324TIP3    H261464   5.398   5.062   1.030  0.5697  0.4140 -0.3128
13325TIP3   OH261465   6.665   5.949   3.803 -0.2525 -0.4096 -0.1547
13325TIP3    H161466   6.715   5.949   3.721  0.1450  1.3468  0.0580
13325TIP3    H261467   6.664   6.041   3.830  1.9513 -1.2238  3.2156
13326TIP3   OH261468   5.251   1.859   2.353  0.0944 -0.6678  0.4826
13326TIP3    H161469   5.174   1.890   2.305 -0.5154 -0.3126  1.6689
13326TIP3    H261470   5.234   1.766   2.368  0.3622 -0.8197 -0.1016
13327TIP3   OH261471   4.639   3.102   3.271 -0.0005  0.3449  0.0751
13327TIP3    H161472   4.650   3.197   3.280 -0.1955  0.4382 -0.6010
13327TIP3    H261473   4.561   3.082   3.322  0.6998  0.3678  1.1709
13328TIP3   OH261474   5.081   1.795  16.510 -0.0401  0.4130 -0.2562
13328TIP3    H161475   5.084   1.782  16.605  0.0500  0.6272 -0.2307
13328TIP3    H261476   5.041   1.714  16.477  0.0089  0.3000 -0.0444
13329TIP3   OH261477   3.140   5.251   5.605 -0.5891  0.3313 -0.1118
13329TIP3    H161478   3.079   5.318   5.636  1.5858  1.3742  2.3421
13329TIP3    H261479   3.168   5.206   5.685  0.7846 -1.0776 -1.3176
13330TIP3   OH261480   6.405   4.053  12.618  0.4488  0.1106 -0.3637
13330TIP3    H161481   6.470   4.000  12.571  1.7635  1.3684 -0.0617
13330TIP3    H261482   6.354   4.095  12.549 -0.3035 -1.1495 -0.6045
13331TIP3   OH261483   5.283   5.709  13.128  0.2289  0.1072  0.1371
13331TIP3    H161484   5.254   5.629  13.171 -0.2807 -0.3279 -0.9925
13331TIP3    H261485   5.371   5.688  13.096  0.4618  0.3082  0.6424
13332TIP3   OH261486   4.299   2.993  15.699  0.1500  0.2373 -0.0306
13332TIP3    H161487   4.327   3.081  15.722 -0.3284  0.2273  0.6117
13332TIP3    H261488   4.246   2.964  15.773  0.2955 -0.5890 -0.2321
13333TIP3   OH261489   2.012   5.841   3.958 -0.4641  0.0149 -0.3963
13333TIP3    H161490   1.945   5.825   3.892 -0.8721  0.5708 -0.1294
13333TIP3    H261491   2.083   5.781   3.936 -0.9563 -0.4184 -0.8201
13334TIP3   OH261492   2.573   5.752  11.655  0.0294 -0.0684 -0.1602
13334TIP3    H161493   2.573   5.658  11.634  1.6140  0.0908 -1.0400
13334TIP3    H261494   2.557   5.755  11.749  1.3798 -1.3353  0.1604
13335TIP3   OH261495   2.437   5.292   5.465  0.0850  0.4982 -0.1677
13335TIP3    H161496   2.457   5.210   5.420 -2.9236  0.2051 -1.1397
13335TIP3    H261497   2.479   5.359   5.411  2.3130 -0.2783  0.4667
13336TIP3   OH261498   2.458   1.085  12.946  0.0230  0.6634 -0.2264
13336TIP3    H161499   2.496   1.172  12.936  0.1798  0.3834 -2.5796
13336TIP3    H261500   2.532   1.030  12.974  0.1784  1.0636  0.1553
13337TIP3   OH261501   5.198   1.731   3.558 -0.0089  0.5370 -0.1534
13337TIP3    H161502   5.276   1.719   3.612 -0.2453  3.7094  1.1297
13337TIP3    H261503   5.125   1.716   3.619 -0.2881  2.6038  0.0829
13338TIP3   OH261504   5.784   3.952  15.219  0.6783  0.2966  0.3295
13338TIP3    H161505   5.862   4.001  15.193  0.4387 -0.1475 -1.3596
13338TIP3    H261506   5.800   3.926  15.310  1.4210  2.2595  0.7959
13339TIP3   OH261507   2.204   0.587  12.593 -0.6527  0.2526 -0.7102
13339TIP3    H161508   2.162   0.639  12.661  0.7288  0.9066 -0.3355
13339TIP3    H261509   2.284   0.634  12.572  0.5426 -1.6003 -0.5130
13340TIP3   OH261510   4.468   6.410   3.836  0.4401 -0.2245 -0.1483
13340TIP3    H161511   4.558   6.380   3.823  0.3910 -0.5214  0.1650
13340TIP3    H261512   4.432   6.349   3.901  0.4866  0.7930  0.8585
13341TIP3   OH261513   2.843   3.218   0.187 -0.4569  0.6588  0.5145
13341TIP3    H161514   2.901   3.238   0.114 -0.3752  1.4449  0.7804
13341TIP3    H261515   2.837   3.123   0.188 -0.1585  0.6199 -0.2790
13342TIP3   OH261516   1.385   6.252  13.420  0.0272 -0.3447  0.3286
13342TIP3    H161517   1.446   6.270  13.349 -1.2551  0.8335 -0.5178
13342TIP3    H261518   1.312   6.312  13.405  0.3422  1.0051  3.4562
13343TIP3   OH261519   0.973   4.420   1.051  0.6476  0.5793 -0.4535
13343TIP3    H161520   1.056   4.388   1.014  0.9098 -0.1624  0.7352
13343TIP3    H261521   0.997   4.501   1.095  0.9227 -0.0156  0.5377
13344TIP3   OH261522   1.792   6.727   0.905 -0.2150  0.3639  0.0330
13344TIP3    H161523   1.767   6.665   0.973 -1.0169 -0.4194 -0.9565
13344TIP3    H261524   1.875   6.763   0.936  0.0156 -0.8219  0.8736
13345TIP3   OH261525   0.323   3.595  14.150  0.4232  0.1625  0.5329
13345TIP3    H161526   0.358   3.575  14.237  0.1392  2.4303  1.2352
13345TIP3    H261527   0.393   3.570  14.089  1.4513  0.4340  1.5778
13346TIP3   OH261528   2.617   1.740   5.079 -0.0699 -0.2110 -0.4087
13346TIP3    H161529   2.524   1.731   5.098  0.2248 -1.4953  0.5941
13346TIP3    H261530   2.621   1.756   4.985 -1.2912 -0.2459 -0.4852
13347TIP3   OH261531   2.089   1.434  14.286  0.5603  0.2360  0.0936
13347TIP3    H161532   2.064   1.412  14.376 -1.4444  1.1826 -0.1865
13347TIP3    H261533   2.182   1.457  14.292 -0.1836  3.1556  2.4896
13348TIP3   OH261534   6.000   6.582  11.308 -0.0577  0.2239  0.3743
13348TIP3    H161535   6.092   6.576  11.331 -0.4091  0.2388  1.8342
13348TIP3    H261536   5.980   6.676  11.314  0.1742  0.4216 -1.4064
13349TIP3   OH261537   0.681   4.771  11.762  0.3238 -0.0555  0.9611
13349TIP3    H161538   0.602   4.734  11.802 -0.0968 -0.0940  0.1110
13349TIP3    H261539   0.753   4.737  11.815 -0.2093 -0.2408  1.5784
13350TIP3   OH261540   1.673   3.232  11.497  0.0440 -0.2087 -0.3224
13350TIP3    H161541   1.608   3.171  11.462 -0.0342  0.3893 -1.2521
13350TIP3    H261542   1.703   3.282  11.421 -0.0788  1.0955  0.4581
13351TIP3   OH261543   0.847   2.196  13.949  0.7095  0.2442 -0.1728
13351TIP3    H161544   0.766   2.145  13.940  1.9098 -1.9904  0.7541
13351TIP3    H261545   0.878   2.207  13.859 -0.8943  1.6804 -0.5950
13352TIP3   OH261546   6.306   5.119   6.100 -0.3446  0.1801  0.3702
13352TIP3    H161547   6.343   5.086   6.182 -1.6446 -1.4373  0.3483
13352TIP3    H261548   6.307   5.043   6.041 -0.7169  0.9534 -0.6593
13353TIP3   OH261549   2.108   1.257  15.241 -0.4951 -0.1802 -0.3219
13353TIP3    H161550   2.170   1.264  15.169  0.7850 -3.6160  0.2195
13353TIP3    H261551   2.035   1.206  15.205 -0.4439 -0.8097  0.4123
13354TIP3   OH261552   6.446   6.153   4.515 -0.1903  0.1582 -0.1931
13354TIP3    H161553   6.462   6.246   4.529 -0.9612  0.1912  0.5208
13354TIP3    H261554   6.364   6.150   4.466 -0.3030 -0.1474  0.0105
13355TIP3   OH261555   5.763   2.984   1.368 -0.0010  0.0960  0.1596
13355TIP3    H161556   5.672   2.954   1.359  0.2709 -0.4710 -0.8352
13355TIP3    H261557   5.755   3.073   1.402 -0.9996  0.5981 -1.2836
13356TIP3   OH261558   0.894   1.202  17.315  0.1428  0.3865 -0.5047
13356TIP3    H161559   0.809   1.159  17.317  0.4301 -0.1835 -0.2151
13356TIP3    H261560   0.875   1.295  17.327 -0.5254  0.4022 -1.5450
13357TIP3   OH261561   6.548   6.644  16.366  0.0551  0.0271 -0.8008
13357TIP3    H161562   6.575   6.735  16.383  1.5353 -0.6229  0.5668
13357TIP3    H261563   6.549   6.637  16.271  1.8393  0.9257 -0.8938
13358TIP3   OH261564   0.667   4.487   6.078 -0.2313 -0.5563  0.3121
13358TIP3    H161565   0.615   4.488   6.158 -0.2300 -0.9500  0.3171
13358TIP3    H261566   0.746   4.439   6.101  0.3251  0.3708  0.4156
13359TIP3   OH261567   5.233   0.571  14.349  0.7253 -0.2454 -0.3063
13359TIP3    H161568   5.242   0.565  14.444 -0.8623  1.2975  0.0076
13359TIP3    H261569   5.258   0.662  14.329  1.8891 -0.7952 -1.5121
13360TIP3   OH261570   5.661   3.002  14.844 -0.1526 -0.6835 -0.2035
13360TIP3    H161571   5.625   2.917  14.820 -0.2936 -1.4220  2.3937
13360TIP3    H261572   5.756   2.992  14.832  0.1650 -2.2547  2.7253
13361TIP3   OH261573   2.398   1.750   3.551  0.0681 -0.3328  0.0091
13361TIP3    H161574   2.385   1.839   3.518  1.8468  0.8971  2.2841
13361TIP3    H261575   2.349   1.747   3.633 -0.8563 -1.8693 -0.5544
13362TIP3   OH261576   4.016   6.685  14.902  0.1720 -1.0044  0.4905
13362TIP3    H161577   4.044   6.753  14.841 -0.4988 -1.2826 -0.1418
13362TIP3    H261578   3.925   6.708  14.923  0.7946 -0.1014  2.5153
13363TIP3   OH261579   2.038   1.418   1.480  0.2300 -0.7732  0.5419
13363TIP3    H161580   2.079   1.447   1.398 -2.6444  1.4900 -0.2990
13363TIP3    H261581   2.027   1.499   1.530 -0.7127 -1.6892  1.8655
13364TIP3   OH261582   3.425   4.104   4.211  0.0971  0.4958  0.4501
13364TIP3    H161583   3.353   4.102   4.275 -0.8323  0.0842 -0.5802
13364TIP3    H261584   3.475   4.024   4.229  0.1301  0.6299  0.9726
13365TIP3   OH261585   2.876   3.541   4.435  0.0334  0.0862 -0.4631
13365TIP3    H161586   2.920   3.540   4.521 -1.9152  2.1528  0.6778
13365TIP3    H261587   2.912   3.618   4.391 -1.4899  1.1391  0.0294
13366TIP3   OH261588   4.721   5.900  12.140 -0.1639 -0.8069 -0.3438
13366TIP3    H161589   4.626   5.890  12.147 -0.3034 -0.2686 -1.3635
13366TIP3    H261590   4.756   5.840  12.207 -1.2099 -1.0245  0.0311
13367TIP3   OH261591   0.856   4.107  11.597 -0.3142  0.6719 -0.2855
13367TIP3    H161592   0.884   4.193  11.563  2.8973 -0.1493 -0.0763
13367TIP3    H261593   0.765   4.120  11.621 -1.1008  2.9804 -3.6867
13368TIP3   OH261594   3.259   3.643  14.709 -0.0831 -0.1343 -0.1507
13368TIP3    H161595   3.189   3.637  14.773 -0.0844  1.2448  0.0114
13368TIP3    H261596   3.300   3.729  14.726  0.2090  0.0577 -1.6848
13369TIP3   OH261597   2.556   3.710   1.943  0.0089  0.0739 -0.7562
13369TIP3    H161598   2.625   3.715   1.878  0.8238  3.0451  0.1964
13369TIP3    H261599   2.475   3.724   1.894  0.2583 -1.0624 -1.5331
13370TIP3   OH261600   4.988   2.420  17.035 -0.0857 -1.0243 -0.1606
13370TIP3    H161601   5.020   2.417  17.125 -0.8753 -1.0333  0.1291
13370TIP3    H261602   4.929   2.495  17.032 -0.9642 -1.7007 -0.3536
13371TIP3   OH261603   2.022   6.414  14.715  0.2020 -0.1303 -0.0342
13371TIP3    H161604   2.089   6.410  14.647  0.7254 -0.6234  0.4929
13371TIP3    H261605   2.020   6.506  14.741 -0.7526  0.2789 -1.4192
13372TIP3   OH261606   2.035   0.391   3.254  0.3133  0.2115 -0.2970
13372TIP3    H161607   2.114   0.364   3.300  0.5906 -1.1439 -1.5014
13372TIP3    H261608   1.966   0.335   3.290 -0.0876  1.2398  0.5944
13373TIP3   OH261609   5.365   0.075  11.268  0.3501  0.3940 -0.1052
13373TIP3    H161610   5.445   0.074  11.215  0.7464  1.9714  0.4244
13373TIP3    H261611   5.360  -0.014  11.304  2.6640  0.6294  0.9927
13374TIP3   OH261612   1.656   2.835   0.215 -0.2098  0.2427  0.1867
13374TIP3    H161613   1.682   2.765   0.154  0.2223 -0.1457  0.7943
13374TIP3    H261614   1.632   2.788   0.295  1.6081  0.8468  1.1457
13375TIP3   OH261615   6.728   2.700   2.583  0.7837  0.0212  0.0770
13375TIP3    H161616   6.789   2.687   2.656  0.7205  1.0737  0.3449
13375TIP3    H261617   6.656   2.640   2.600  2.4968 -2.5796 -1.1876
13376TIP3   OH261618   1.504   1.010  13.974  0.1440 -0.1535 -1.1995
13376TIP3    H161619   1.468   1.099  13.972 -1.5957 -0.8331 -3.1637
13376TIP3    H261620   1.591   1.021  14.012 -0.7508  2.0925  0.4447
13377TIP3   OH261621   2.981   2.347   1.375 -0.3543 -0.2783 -0.0550
13377TIP3    H161622   3.005   2.412   1.309 -0.1230  0.8134  1.0535
13377TIP3    H261623   3.056   2.288   1.379  0.4431  0.7333  0.5098
13378TIP3   OH261624   6.421   2.873   1.824 -0.4800  0.1114 -0.1189
13378TIP3    H161625   6.472   2.940   1.778  1.5972 -1.8711 -0.8923
13378TIP3    H261626   6.484   2.827   1.878 -2.1653 -0.2185  1.6780
13379TIP3   OH261627   2.290   5.686   6.125 -0.1592 -0.3283 -0.5583
13379TIP3    H161628   2.300   5.735   6.044 -0.1847  0.9040  0.1600
13379TIP3    H261629   2.371   5.702   6.173  0.4270 -2.1384 -0.8940
13380TIP3   OH261630   6.526   2.634   2.935 -0.2468  0.2714 -0.2236
13380TIP3    H161631   6.436   2.622   2.905 -0.9072  0.3624  1.5577
13380TIP3    H261632   6.570   2.551   2.915 -1.2959 -0.5307  0.6675
13381TIP3   OH261633   4.171   3.726   3.611 -0.2263  0.1144 -0.0253
13381TIP3    H161634   4.241   3.702   3.671 -0.5199 -0.6625  0.0269
13381TIP3    H261635   4.097   3.672   3.638 -0.3165 -0.3859 -1.1824
13382TIP3   OH261636   4.077   4.490   5.477 -0.4572  0.5991 -0.3843
13382TIP3    H161637   4.009   4.507   5.412  1.2243 -0.6958 -2.6056
13382TIP3    H261638   4.096   4.397   5.469 -0.1101  0.3865  1.9891
13383TIP3   OH261639   1.366   3.284   2.096 -0.3413  0.1381  0.1459
13383TIP3    H161640   1.440   3.307   2.040  0.6713 -1.3144  0.8196
13383TIP3    H261641   1.289   3.307   2.045  0.5105 -1.7647 -2.1968
13384TIP3   OH261642   4.182   6.714  13.861 -0.0116  0.6981  0.0247
13384TIP3    H161643   4.114   6.685  13.800 -0.6166 -0.9916  1.4240
13384TIP3    H261644   4.135   6.742  13.939  0.8368  1.0142  0.4376
13385TIP3   OH261645   4.634   0.829   0.437  0.8948 -0.1291 -0.0521
13385TIP3    H161646   4.691   0.847   0.512  1.6078 -0.3365 -0.5349
13385TIP3    H261647   4.639   0.735   0.424  1.1552 -0.0397 -0.6514
13386TIP3   OH261648   4.580   6.028   3.573 -0.0716 -0.5259 -0.1146
13386TIP3    H161649   4.646   6.061   3.634  0.4464  0.5225 -1.1864
13386TIP3    H261650   4.496   6.047   3.614  0.2594  0.4465  0.1218
13387TIP3   OH261651   2.820   1.907  16.133  0.1553  1.2052 -0.7556
13387TIP3    H161652   2.822   1.935  16.224 -0.7564 -0.3476 -0.2147
13387TIP3    H261653   2.729   1.918  16.106  0.1282  0.4039 -1.0300
13388TIP3   OH261654   1.243   2.776  11.664 -0.3189 -0.4180 -0.1990
13388TIP3    H161655   1.255   2.727  11.745 -0.3391 -0.1068 -0.0070
13388TIP3    H261656   1.303   2.735  11.602 -1.4977 -1.7589 -0.5141
13389TIP3   OH261657   3.186   5.302  12.597 -0.3584  0.1428  0.6504
13389TIP3    H161658   3.200   5.259  12.681 -0.7813  2.1623  1.8105
13389TIP3    H261659   3.091   5.308  12.589 -0.3124  2.0544  1.1935
13390TIP3   OH261660   3.498   5.385   5.525 -0.4136  0.3635  0.1779
13390TIP3    H161661   3.475   5.303   5.570 -0.6058  0.2410 -0.1398
13390TIP3    H261662   3.583   5.408   5.561 -0.7585  0.5024  0.9338
13391TIP3   OH261663   6.083   3.392   5.872 -0.0328 -0.0190  0.1180
13391TIP3    H161664   6.089   3.310   5.824  0.8407 -1.2489  2.2025
13391TIP3    H261665   6.084   3.460   5.804  0.3296 -1.6746 -1.6051
13392TIP3   OH261666   2.702   3.093   3.987  0.0094 -0.1777 -0.4202
13392TIP3    H161667   2.750   3.099   4.069 -1.4521  0.8068  0.3997
13392TIP3    H261668   2.673   3.002   3.983 -0.9586  0.0535  0.7971
13393TIP3   OH261669   2.962   3.278   1.342  0.1325  0.6124  0.1545
13393TIP3    H161670   2.914   3.305   1.264 -1.1346 -0.1528  0.6358
13393TIP3    H261671   3.054   3.283   1.317 -0.2305  0.9666 -1.1794
13394TIP3   OH261672   5.119   6.184  15.477  0.0691  0.0629 -0.5910
13394TIP3    H161673   5.091   6.231  15.398 -1.6086  1.3222  0.6640
13394TIP3    H261674   5.207   6.218  15.495  0.5683 -0.3978 -1.9861
13395TIP3   OH261675   0.315   0.371  14.230  0.8195  0.1646  0.0070
13395TIP3    H161676   0.257   0.306  14.190  0.3109  0.1936  0.6755
13395TIP3    H261677   0.301   0.451  14.178  0.0555  0.2430  0.3089
13396TIP3   OH261678   5.918   3.466  15.162  0.2337 -0.0734 -0.1170
13396TIP3    H161679   5.934   3.418  15.244 -1.3236  0.7041  0.6826
13396TIP3    H261680   5.844   3.420  15.122 -1.5188  1.7642  0.8318
13397TIP3   OH261681   6.513   4.527   1.365  0.3798  0.2320 -0.2960
13397TIP3    H161682   6.458   4.449   1.356  0.2289  0.4564 -1.5613
13397TIP3    H261683   6.461   4.598   1.326  0.7772  0.8381  0.2541
13398TIP3   OH261684   3.736   2.041   6.288  0.3703 -0.1458  0.3538
13398TIP3    H161685   3.718   1.950   6.311  1.4444 -0.5089 -0.1909
13398TIP3    H261686   3.649   2.079   6.273 -0.0651 -1.2441 -0.0263
13399TIP3   OH261687   0.194   3.751  12.794  0.5629 -0.2789 -0.8887
13399TIP3    H161688   0.223   3.841  12.778 -2.2650  0.9857  0.3049
13399TIP3    H261689   0.180   3.747  12.889 -0.5985 -1.5283 -1.0717
13400TIP3   OH261690   3.058   0.313  15.246  0.0043 -0.2599 -0.0323
13400TIP3    H161691   2.977   0.364  15.238 -0.3830 -0.6921  0.9553
13400TIP3    H261692   3.083   0.293  15.156 -0.8077  0.1556 -0.3626
13401TIP3   OH261693   2.893   6.224  11.636 -0.0785  0.5798  0.6463
13401TIP3    H161694   2.955   6.283  11.593  1.0683  0.4984  2.0900
13401TIP3    H261695   2.888   6.149  11.577 -0.2437  1.3833 -0.3868
13402TIP3   OH261696   6.092   0.393   4.787 -0.5736  0.0347 -0.2835
13402TIP3    H161697   6.015   0.426   4.835 -0.6226 -0.3333 -0.1035
13402TIP3    H261698   6.080   0.426   4.698 -1.2136 -0.4525 -0.3870
13403TIP3   OH261699   4.902   3.852  15.301  0.7222  0.1851  0.3979
13403TIP3    H161700   4.844   3.776  15.295 -0.7094  1.2870 -0.7425
13403TIP3    H261701   4.869   3.911  15.233  2.3852  1.4276  0.6228
13404TIP3   OH261702   4.111   5.656  15.142 -0.1527  0.2834 -0.5582
13404TIP3    H161703   4.108   5.572  15.097 -1.3638  2.1264 -4.3843
13404TIP3    H261704   4.204   5.681  15.140 -0.1497  0.2932 -2.2519
13405TIP3   OH261705   0.773   1.510   1.757 -0.0466  0.4163 -0.2307
13405TIP3    H161706   0.732   1.580   1.707 -0.4999  0.8874  0.7646
13405TIP3    H261707   0.732   1.430   1.726 -0.9548  0.7857 -0.0050
13406TIP3   OH261708   4.150   5.954   2.859  0.5268  0.2841  0.2257
13406TIP3    H161709   4.085   5.885   2.870  0.7565 -0.0778 -0.5895
13406TIP3    H261710   4.124   5.999   2.779  3.0152 -1.9083 -2.0081
13407TIP3   OH261711   4.029   0.840   0.156  0.0560 -0.9372 -0.0941
13407TIP3    H161712   4.031   0.888   0.239 -1.2485  2.6065 -1.9225
13407TIP3    H261713   4.112   0.792   0.154  1.5170  1.3040  1.9202
13408TIP3   OH261714   1.180   2.350   1.691  0.4358  0.0113  0.3240
13408TIP3    H161715   1.208   2.259   1.699  1.3879  0.3259  0.7345
13408TIP3    H261716   1.254   2.401   1.725 -0.3391  0.9106  0.7102
13409TIP3   OH261717   5.005   1.036   2.364 -0.1665 -0.1940  0.2284
13409TIP3    H161718   4.923   1.045   2.317  1.4392  0.6675 -2.6649
13409TIP3    H261719   5.003   1.105   2.431 -1.3262  0.5372 -0.5332
13410TIP3   OH261720   6.402   2.543  14.644  0.0383  0.0531 -0.1660
13410TIP3    H161721   6.454   2.480  14.594  1.9711 -0.7846  2.6650
13410TIP3    H261722   6.414   2.626  14.598  0.8818 -0.8413 -1.6345
13411TIP3   OH261723   3.752   4.561   0.769  0.0981 -0.1163 -0.0515
13411TIP3    H161724   3.665   4.594   0.795 -0.1771  0.7618 -1.9516
13411TIP3    H261725   3.740   4.467   0.760 -0.3360 -0.1616  0.8246
13412TIP3   OH261726   5.885   2.879  16.125 -0.1149  0.0534 -0.2862
13412TIP3    H161727   5.914   2.906  16.038  0.1327  2.0297  0.3535
13412TIP3    H261728   5.961   2.892  16.181  0.4509 -3.3518 -0.0767
13413TIP3   OH261729   4.691   2.693   4.509  0.2211  0.0913 -0.6488
13413TIP3    H161730   4.638   2.737   4.442 -0.1382  0.5515 -0.0786
13413TIP3    H261731   4.631   2.681   4.582  0.3335 -1.3264 -0.7686
13414TIP3   OH261732   1.252   6.263   2.355 -0.4666 -0.0254  0.4824
13414TIP3    H161733   1.292   6.339   2.313  0.4566 -0.5043  0.4847
13414TIP3    H261734   1.296   6.255   2.439  0.6163 -1.5235 -0.1914
13415TIP3   OH261735   2.669   5.856   3.322 -0.5180 -0.5960  0.4225
13415TIP3    H161736   2.604   5.903   3.373  1.2783  0.4766  1.8741
13415TIP3    H261737   2.625   5.835   3.240 -2.3475  0.9512  0.9354
13416TIP3   OH261738   5.424   0.439   0.760  0.3908 -0.1301 -0.0250
13416TIP3    H161739   5.510   0.402   0.739  0.8079  0.2964  0.8713
13416TIP3    H261740   5.430   0.462   0.853 -0.7936 -0.3586  0.1232
13417TIP3   OH261741   5.004   5.960  10.941  0.5481  0.3666  0.5531
13417TIP3    H161742   4.942   6.028  10.969 -0.9769 -1.0749  0.8760
13417TIP3    H261743   5.037   5.992  10.856 -0.0293  1.5567  0.7474
13418TIP3   OH261744   6.270   5.875   5.029 -0.0965 -0.1182  0.2300
13418TIP3    H161745   6.212   5.852   5.102  2.2624 -1.5828  1.8029
13418TIP3    H261746   6.248   5.812   4.960 -1.5770  0.5436  0.0578
13419TIP3   OH261747   0.638   1.726  16.417  0.6504 -0.8494 -0.1503
13419TIP3    H161748   0.724   1.686  16.406  2.0148  1.3061  1.7660
13419TIP3    H261749   0.579   1.652  16.435  2.1880 -2.3263 -0.9264
13420TIP3   OH261750   0.425   6.143  14.587 -0.1052  0.0689  0.5301
13420TIP3    H161751   0.512   6.129  14.549  0.2455  2.0208  0.4761
13420TIP3    H261752   0.389   6.056  14.598  1.2942 -0.7296 -0.7871
13421TIP3   OH261753   0.930   4.069   5.259  0.3137 -0.8457 -0.0730
13421TIP3    H161754   0.964   4.117   5.183 -1.8866  0.9336 -0.0242
13421TIP3    H261755   0.961   4.119   5.335  1.0833 -1.6528  0.1620
13422TIP3   OH261756   3.797   2.505  14.165  0.2642 -0.1074 -0.2395
13422TIP3    H161757   3.747   2.427  14.189  0.5778  0.1753  1.4067
13422TIP3    H261758   3.735   2.577  14.178 -0.0252 -0.0353 -1.7573
13423TIP3   OH261759   5.838   6.002   4.324  0.9647  0.2376  0.1745
13423TIP3    H161760   5.895   5.930   4.351  0.4424  0.4465  1.9670
13423TIP3    H261761   5.749   5.966   4.331  0.7639  0.6101 -0.3655
13424TIP3   OH261762   2.291   0.204  13.881 -0.0377 -0.5750  0.2576
13424TIP3    H161763   2.342   0.283  13.898  0.2696 -0.5635 -0.6947
13424TIP3    H261764   2.204   0.225  13.916  0.8943 -1.1304  3.2588
13425TIP3   OH261765   5.266   0.471   3.771  0.0530  0.4444  0.0596
13425TIP3    H161766   5.353   0.509   3.766  0.7384 -0.9071  1.1633
13425TIP3    H261767   5.225   0.514   3.846 -0.5299  1.5902 -0.8755
13426TIP3   OH261768   4.640   5.077  11.336 -0.4684 -0.1068  0.1083
13426TIP3    H161769   4.719   5.056  11.287 -0.5759  0.1106 -0.1581
13426TIP3    H261770   4.665   5.149  11.393  0.0770 -1.3282  1.4773
13427TIP3   OH261771   0.960   6.093  12.259  0.5187  0.5546 -0.1220
13427TIP3    H161772   1.001   6.069  12.342  1.2740  0.9545 -0.3654
13427TIP3    H261773   0.878   6.135  12.283  0.7060  0.6137  0.4204
13428TIP3   OH261774   0.404   3.953  15.091  0.5289 -0.2154  0.2831
13428TIP3    H161775   0.422   4.010  15.016 -2.7642 -0.5772 -0.9699
13428TIP3    H261776   0.381   4.013  15.162  0.0359  0.0870 -0.1282
13429TIP3   OH261777   3.988   3.907  14.611 -0.1798 -0.1243 -0.3314
13429TIP3    H161778   4.080   3.930  14.624  0.0368 -1.1632  0.0811
13429TIP3    H261779   3.978   3.823  14.656 -1.4937  0.2964  0.1776
13430TIP3   OH261780   0.527   5.092   3.790 -0.3347 -0.1408  0.3350
13430TIP3    H161781   0.538   5.001   3.761  1.9015  0.6879 -1.7696
13430TIP3    H261782   0.590   5.102   3.861 -0.0187 -0.0331  0.0404
13431TIP3   OH261783   5.025   6.127   4.594 -0.3969  0.2624  0.3615
13431TIP3    H161784   5.107   6.177   4.597 -0.4797  0.3520  1.3906
13431TIP3    H261785   4.974   6.169   4.524  0.0471  0.8213  0.3673
13432TIP3   OH261786   2.584   1.320   4.417  0.3098  0.1833  0.0112
13432TIP3    H161787   2.503   1.332   4.367  0.2262  3.7973  0.7645
13432TIP3    H261788   2.651   1.303   4.351 -0.4670  0.8023 -0.9545
13433TIP3   OH261789   6.732   5.047   1.540  0.3144  0.6179  0.2568
13433TIP3    H161790   6.816   5.062   1.496 -0.2677  0.3051 -0.9987
13433TIP3    H261791   6.749   5.069   1.632  1.4467  1.7424 -0.1869
13434TIP3   OH261792   0.448   1.836  15.088 -0.2368  0.4707  0.0616
13434TIP3    H161793   0.412   1.754  15.054 -0.1324  0.6618 -0.5192
13434TIP3    H261794   0.402   1.905  15.040  1.0144  0.7171 -0.8532
13435TIP3   OH261795   1.995   6.666  13.961  0.6706  0.2980 -0.5036
13435TIP3    H161796   2.056   6.726  14.005 -2.3010  2.1466  1.5222
13435TIP3    H261797   2.005   6.685  13.868  1.4274  2.3978 -0.0586
13436TIP3   OH261798   3.191   1.868   1.196  0.0489 -0.1935 -0.4328
13436TIP3    H161799   3.276   1.832   1.223  0.1992 -0.2968 -1.0102
13436TIP3    H261800   3.128   1.831   1.257  0.2710 -1.0365 -0.6915
13437TIP3   OH261801   6.570   3.256  15.357  0.1273  0.3334 -0.0482
13437TIP3    H161802   6.664   3.273  15.367  0.3358 -0.1215 -1.0745
13437TIP3    H261803   6.555   3.175  15.404  0.5766 -0.4322 -1.1915
13438TIP3   OH261804   4.987   3.498  15.147  0.5014  0.3530  0.3576
13438TIP3    H161805   5.000   3.441  15.222 -0.5657  2.4227  2.2539
13438TIP3    H261806   4.900   3.536  15.160  1.0794  2.2766 -0.8448
13439TIP3   OH261807   2.785   1.560  16.812  0.5758  0.7101  0.0324
13439TIP3    H161808   2.792   1.631  16.748  1.1390 -0.0400 -0.7639
13439TIP3    H261809   2.697   1.568  16.848  0.6764  1.8858  0.0514
13440TIP3   OH261810   4.397   6.284  15.792  0.2643 -0.0391 -0.2322
13440TIP3    H161811   4.380   6.192  15.810 -0.8801  0.2856  0.4505
13440TIP3    H261812   4.492   6.294  15.805  0.1334 -0.7416  1.5159
13441TIP3   OH261813   3.755   2.269   3.396 -0.8288  0.9297  0.0381
13441TIP3    H161814   3.793   2.211   3.330 -1.2804  1.2737 -0.5344
13441TIP3    H261815   3.811   2.346   3.396  1.0727 -0.3096  2.3230
13442TIP3   OH261816   3.364   0.384   1.153 -0.6314  0.1057  0.5580
13442TIP3    H161817   3.360   0.330   1.074  0.5345  1.0257 -0.1476
13442TIP3    H261818   3.418   0.333   1.214 -1.1484 -0.3935  0.6058
13443TIP3   OH261819   0.236   0.146  13.285  0.3358  0.0726 -0.0829
13443TIP3    H161820   0.271   0.189  13.206 -0.2330  0.6795 -0.0160
13443TIP3    H261821   0.306   0.155  13.349  0.3458  0.6451 -0.1633
13444TIP3   OH261822   0.886   3.023   4.961  0.1207  0.3608 -0.6699
13444TIP3    H161823   0.830   3.079   4.906 -0.7895 -1.3601 -1.5893
13444TIP3    H261824   0.855   2.934   4.943  0.7589 -0.3754  1.5866
13445TIP3   OH261825   3.691   1.573   0.262 -0.2084 -0.0265  0.1152
13445TIP3    H161826   3.649   1.584   0.177 -1.2896  1.7853  0.8177
13445TIP3    H261827   3.699   1.479   0.274 -1.3266 -0.3303 -1.3726
13446TIP3   OH261828   5.675   6.125  17.292  0.1253  0.4323 -0.2384
13446TIP3    H161829   5.726   6.076  17.227  1.2900  1.4162 -0.0944
13446TIP3    H261830   5.604   6.165  17.240  0.5942  0.5844 -0.7724
13447TIP3   OH261831   0.686   2.588  13.842 -0.0908  0.5490 -0.1448
13447TIP3    H161832   0.649   2.569  13.929  0.2506  3.3060  0.6986
13447TIP3    H261833   0.610   2.609  13.788 -0.2000  0.1732 -0.1413
13448TIP3   OH261834   4.611   3.452   4.745  0.2076  0.1488  0.1707
13448TIP3    H161835   4.600   3.542   4.714 -0.1235  0.0905  0.1192
13448TIP3    H261836   4.622   3.461   4.840 -2.2665  0.0699  0.5143
13449TIP3   OH261837   6.014   2.411  11.756  0.3538 -0.3878 -0.0327
13449TIP3    H161838   6.010   2.462  11.837 -0.5319 -0.6598  0.0998
13449TIP3    H261839   6.078   2.458  11.702  0.8065 -0.0952  0.7427
13450TIP3   OH261840   1.304   2.745   4.804  0.5730  0.2692  0.7756
13450TIP3    H161841   1.349   2.821   4.766  0.5120 -0.0047  0.1439
13450TIP3    H261842   1.329   2.746   4.896 -0.7948  2.0774  1.2014
13451TIP3   OH261843   1.360   6.104   4.458  0.5148 -0.2717 -0.1322
13451TIP3    H161844   1.393   6.069   4.376 -1.6232 -0.4031 -1.0211
13451TIP3    H261845   1.294   6.040   4.487  2.1119 -0.9243  2.4485
13452TIP3   OH261846   4.536   3.859   2.173  0.0216 -0.3057  0.6180
13452TIP3    H161847   4.467   3.923   2.157 -0.6721 -1.2954 -0.4990
13452TIP3    H261848   4.512   3.817   2.255 -0.5936 -0.4859  0.3506
13453TIP3   OH261849   2.573   4.466   2.063  0.9217 -0.7293  0.5791
13453TIP3    H161850   2.567   4.436   2.154  0.7079  0.6833  1.0521
13453TIP3    H261851   2.497   4.522   2.051  0.5066 -1.5279 -0.7501
13454TIP3   OH261852   2.016   3.369  11.260 -0.5570  0.2414  0.0422
13454TIP3    H161853   1.930   3.333  11.284 -0.5424  1.1566  1.6380
13454TIP3    H261854   2.040   3.323  11.180 -3.4347  1.3860 -1.6198
13455TIP3   OH261855   3.393   4.479   3.625 -0.6977 -0.3666  0.4110
13455TIP3    H161856   3.449   4.443   3.694  2.1302  1.4267 -0.7772
13455TIP3    H261857   3.437   4.455   3.543 -0.6442  2.5287 -0.5256
13456TIP3   OH261858   0.012   3.922   1.382 -0.4280 -0.8577 -0.0301
13456TIP3    H161859  -0.063   3.877   1.344 -1.4061  0.1505  0.6177
13456TIP3    H261860  -0.026   4.001   1.421  1.4030  1.4241 -2.5437
13457TIP3   OH261861   1.761   4.284  16.446 -0.0739  0.1372  0.1086
13457TIP3    H161862   1.746   4.363  16.394  1.8005  0.4618  0.0083
13457TIP3    H261863   1.709   4.217  16.403 -1.1444  1.1457 -0.2257
13458TIP3   OH261864   0.577   0.482  10.583 -0.3713  0.5573 -0.6336
13458TIP3    H161865   0.581   0.387  10.572  2.4173  0.4319  0.4926
13458TIP3    H261866   0.669   0.510  10.582 -1.0836  3.1938 -0.4171
13459TIP3   OH261867   5.796   6.667   0.868  0.1771  0.0948 -0.4836
13459TIP3    H161868   5.820   6.633   0.782  1.2979  0.3980 -0.3037
13459TIP3    H261869   5.846   6.748   0.877  0.7218 -0.3606  0.7883
13460TIP3   OH261870   1.712   2.859   3.966 -0.2103  0.5059  0.3251
13460TIP3    H161871   1.670   2.809   4.037  0.6785 -1.2215 -0.2968
13460TIP3    H261872   1.642   2.910   3.927 -1.9317 -2.5703 -0.9391
13461TIP3   OH261873   1.519   1.767   5.832  0.4649 -0.4708  0.1861
13461TIP3    H161874   1.610   1.784   5.855  0.4122  0.2497 -0.0946
13461TIP3    H261875   1.493   1.693   5.887  0.9491 -0.1075  0.9188
13462TIP3   OH261876   3.967   1.743  14.845  0.2895  0.6640  0.4645
13462TIP3    H161877   3.899   1.677  14.859  1.1402 -0.1764  0.7449
13462TIP3    H261878   3.930   1.823  14.882  0.5733 -0.4168  3.4203
13463TIP3   OH261879   1.035   2.637  15.532 -0.4608  0.0831 -0.1531
13463TIP3    H161880   1.059   2.705  15.594  0.0818 -0.0619 -0.1961
13463TIP3    H261881   0.955   2.599  15.567 -1.2309  1.2963 -0.5686
13464TIP3   OH261882   2.680   3.368  11.035  0.3442  0.1743 -0.3539
13464TIP3    H161883   2.764   3.403  11.005  0.6835  0.0524  0.4262
13464TIP3    H261884   2.615   3.419  10.987  0.8564  0.8133 -0.3900
13465TIP3   OH261885   1.037   5.963   4.989 -0.1334  0.0047 -0.1136
13465TIP3    H161886   0.949   5.927   5.001 -0.4216 -0.3641 -2.7013
13465TIP3    H261887   1.082   5.946   5.072 -2.4337  0.1243  1.2536
13466TIP3   OH261888   6.793   3.982  12.007  1.0358  0.2682 -0.2639
13466TIP3    H161889   6.800   3.981  11.911  1.3765  1.7621 -0.2841
13466TIP3    H261890   6.882   3.964  12.038  1.1648  0.9057 -0.2528
13467TIP3   OH261891   3.633   3.578   3.498 -0.1281 -0.2639  0.3549
13467TIP3    H161892   3.648   3.556   3.590 -1.4524 -0.2695  0.5931
13467TIP3    H261893   3.663   3.501   3.450  1.3518  0.0638  0.6971
13468TIP3   OH261894   1.321   5.029  16.880 -0.2845 -0.4874 -0.6748
13468TIP3    H161895   1.402   4.995  16.916 -0.6829 -0.2500  0.4725
13468TIP3    H261896   1.282   4.954  16.834  0.0637 -0.8868 -0.3250
13469TIP3   OH261897   5.296   4.189   4.344 -0.0515 -0.3064 -0.0307
13469TIP3    H161898   5.330   4.129   4.410 -0.9490  0.1173  0.8494
13469TIP3    H261899   5.371   4.241   4.317 -0.0478  1.0454  2.3236
13470TIP3   OH261900   1.294   1.857   6.019 -0.0255 -0.1714  0.3197
13470TIP3    H161901   1.376   1.869   6.068  0.3017  0.3611 -0.3371
13470TIP3    H261902   1.227   1.894   6.076 -0.0586 -2.0056  1.5565
13471TIP3   OH261903   1.440   3.220  11.841 -0.4084 -0.3953 -0.4983
13471TIP3    H161904   1.416   3.151  11.778  3.4354 -0.2751 -2.3290
13471TIP3    H261905   1.529   3.199  11.867 -0.5563  1.7118  2.1377
13472TIP3   OH261906   0.440   4.897  15.006 -0.3620  0.1995  0.1233
13472TIP3    H161907   0.353   4.899  14.965 -0.0545  1.8944 -0.5437
13472TIP3    H261908   0.473   4.987  14.997  2.1898 -0.7786 -1.2089
13473TIP3   OH261909   1.448   2.861   2.660  0.7289  0.4602  0.7341
13473TIP3    H161910   1.448   2.952   2.633  1.6821  0.7252  1.5615
13473TIP3    H261911   1.356   2.840   2.676  0.5186  1.2939  0.6283
13474TIP3   OH261912   5.373   1.493  16.393  0.4122  0.2868  0.3783
13474TIP3    H161913   5.379   1.409  16.438  2.3508  0.0613 -0.2047
13474TIP3    H261914   5.320   1.474  16.315  1.5469 -0.6197 -0.1936
13475TIP3   OH261915   5.667   0.450  12.268  0.7253 -0.4478  1.0684
13475TIP3    H161916   5.592   0.509  12.273 -1.0546 -2.0759 -2.6591
13475TIP3    H261917   5.644   0.376  12.324 -0.3429 -0.7471  0.2634
13476TIP3   OH261918   6.035   0.505   5.996 -0.5167 -0.4583 -0.1335
13476TIP3    H161919   5.996   0.423   6.024 -3.8361  0.8824 -0.4566
13476TIP3    H261920   6.040   0.558   6.076 -1.7690  0.2478 -0.4967
13477TIP3   OH261921   5.813   3.358  17.056 -0.1033  0.7306 -0.2354
13477TIP3    H161922   5.845   3.380  17.143 -0.8683  0.8563  0.0182
13477TIP3    H261923   5.867   3.411  16.997  0.0752  1.0250  0.1871
13478TIP3   OH261924   3.709   0.830   5.255  0.0027 -0.3095  0.3360
13478TIP3    H161925   3.626   0.833   5.207  0.7334  3.0400 -0.9268
13478TIP3    H261926   3.768   0.780   5.199 -0.2010  0.3323 -0.4555
13479TIP3   OH261927   2.369   3.978  12.821  0.1893 -0.5062 -0.3404
13479TIP3    H161928   2.353   4.021  12.737 -2.4583  0.4710  0.5577
13479TIP3    H261929   2.421   4.041  12.871 -0.5950  0.1267 -0.3020
13480TIP3   OH261930   1.944   3.882  13.786  0.3260 -0.1236 -0.1013
13480TIP3    H161931   2.023   3.910  13.740  0.1298 -0.2283 -0.5029
13480TIP3    H261932   1.966   3.796  13.821  0.2941 -0.2815 -0.4619
13481TIP3   OH261933   4.314   5.937  13.582 -0.8267 -0.0397 -0.5548
13481TIP3    H161934   4.262   6.017  13.593 -1.6217 -0.5850 -0.2353
13481TIP3    H261935   4.343   5.916  13.670 -0.0129  0.2882 -0.7408
13482TIP3   OH261936   1.591   5.315   4.863  0.0300  0.3354 -0.2481
13482TIP3    H161937   1.531   5.386   4.886  0.1096  0.8227 -1.4636
13482TIP3    H261938   1.588   5.256   4.938  0.0592  1.6819  0.8694
13483TIP3   OH261939   6.236   3.803  12.401  0.1917 -0.6858  0.6143
13483TIP3    H161940   6.201   3.744  12.467  1.0958 -0.8248  0.9874
13483TIP3    H261941   6.293   3.748  12.347  2.6204  0.1582  2.1549
13484TIP3   OH261942   1.574   2.726   0.469 -0.8073 -0.0193  0.2937
13484TIP3    H161943   1.486   2.708   0.435 -0.3839  1.3425 -1.7246
13484TIP3    H261944   1.561   2.792   0.537 -1.3600  0.0381  0.1345
13485TIP3   OH261945   4.362   0.067   3.688 -0.1119  0.2753  0.0014
13485TIP3    H161946   4.344   0.074   3.594  0.7965  0.0701 -0.1976
13485TIP3    H261947   4.333  -0.021   3.712 -0.8136  0.5062  0.0302
13486TIP3   OH261948   6.715   2.719  16.485  0.1476 -0.8423 -0.0280
13486TIP3    H161949   6.659   2.642  16.474  0.6611 -1.2852  0.3745
13486TIP3    H261950   6.744   2.715  16.576 -2.3492  1.6026  0.9834
13487TIP3   OH261951   1.340   5.000   2.844  0.3935 -0.3849 -0.2592
13487TIP3    H161952   1.265   4.997   2.903 -0.6364  1.0758 -1.4317
13487TIP3    H261953   1.340   4.914   2.800 -1.2982 -0.0082 -1.0643
13488TIP3   OH261954   3.990   1.910  14.444  0.3623 -0.0901  0.1373
13488TIP3    H161955   4.078   1.918  14.480  0.3142 -0.5616  0.3636
13488TIP3    H261956   3.952   1.833  14.487 -1.2104  1.7281  2.2272
13489TIP3   OH261957   5.548   6.043   6.456 -0.1827  0.3202 -0.0664
13489TIP3    H161958   5.580   6.022   6.368 -1.1204  1.1819 -0.6335
13489TIP3    H261959   5.607   6.112   6.488  0.7660 -0.6727  0.4059
13490TIP3   OH261960   2.002   1.406  12.841 -0.1408  0.4865 -0.1457
13490TIP3    H161961   2.095   1.388  12.823  0.3649  1.0250  1.6416
13490TIP3    H261962   1.984   1.487  12.792  0.8819  1.3790  0.8743
13491TIP3   OH261963   5.581   0.936   1.099 -0.1453  0.3867 -0.5028
13491TIP3    H161964   5.669   0.955   1.066  1.4317 -2.2865  1.7497
13491TIP3    H261965   5.560   1.011   1.155  1.3491  0.4328  0.0417
13492TIP3   OH261966   0.253   0.555   2.899  0.1420 -0.0280 -0.4583
13492TIP3    H161967   0.330   0.512   2.936  0.3931  1.4880  0.8975
13492TIP3    H261968   0.254   0.532   2.806  3.2820  1.4164 -0.9068
13493TIP3   OH261969   3.453   5.139  15.106 -0.1490 -0.0674  0.0477
13493TIP3    H161970   3.515   5.105  15.042  1.5474  1.7174  0.6754
13493TIP3    H261971   3.368   5.137  15.061  0.4901 -1.5897 -1.1794
13494TIP3   OH261972   4.988   2.589   2.097  0.1024  0.1228 -0.2641
13494TIP3    H161973   5.066   2.640   2.075  0.3610  0.8696  2.1142
13494TIP3    H261974   5.022   2.506   2.128 -0.1782 -0.3129 -1.0852
13495TIP3   OH261975   3.479   6.011   2.509  0.1754  0.0334 -0.3652
13495TIP3    H161976   3.474   6.008   2.605  1.2771  1.2223 -0.2425
13495TIP3    H261977   3.462   5.921   2.482 -0.4578 -0.2701  0.9236
13496TIP3   OH261978   5.145   2.393  17.306 -0.1952  0.1822 -1.0305
13496TIP3    H161979   5.132   2.339  17.384  1.0493  0.7960 -0.3662
13496TIP3    H261980   5.207   2.344  17.253 -0.5047  0.0948 -1.3176
13497TIP3   OH261981   2.150   3.690   6.895  0.1638 -0.6741 -0.1595
13497TIP3    H161982   2.222   3.667   6.838 -0.7713 -0.7749 -1.3261
13497TIP3    H261983   2.115   3.771   6.858  0.1521 -0.1864  0.8589
13498TIP3   OH261984   2.832   3.437   2.530 -0.0664 -0.7756  0.2464
13498TIP3    H161985   2.857   3.413   2.619  0.8208 -1.0506 -0.0590
13498TIP3    H261986   2.811   3.353   2.488 -0.0200 -0.6950  0.0625
13499TIP3   OH261987   6.554   1.690   1.510 -1.0274 -0.4407 -0.2127
13499TIP3    H161988   6.517   1.745   1.579  0.5487  1.3492 -0.7278
13499TIP3    H261989   6.490   1.695   1.439 -1.3620 -0.0848  0.1076
13500TIP3   OH261990   0.226   0.970   4.443  0.6054  0.1427 -0.0633
13500TIP3    H161991   0.298   0.975   4.380  0.4865 -1.2108 -0.3374
13500TIP3    H261992   0.260   0.916   4.513 -0.5485 -1.6098 -0.7967
13501TIP3   OH261993   2.216   0.363  13.569 -0.6834 -0.1956 -0.4573
13501TIP3    H161994   2.232   0.335  13.479 -1.6317 -0.2341 -0.6162
13501TIP3    H261995   2.300   0.348  13.614 -0.8118 -2.1719 -0.8200
13502TIP3   OH261996   4.414   2.331  14.782 -0.6820 -0.6080  0.2809
13502TIP3    H161997   4.409   2.238  14.804  1.5839 -1.0089 -0.6979
13502TIP3    H261998   4.323   2.356  14.764 -1.0748 -3.2735 -2.0096
13503TIP3   OH261999   6.111   4.871   1.049 -0.4009  0.0392 -0.2900
13503TIP3    H162000   6.182   4.935   1.049 -0.5758  0.2491 -1.0896
13503TIP3    H262001   6.155   4.786   1.038 -0.1633  0.0011  0.8630
13504TIP3   OH262002   2.514   6.638  11.708  0.2800  0.2042  0.2408
13504TIP3    H162003   2.454   6.586  11.761 -0.0045  0.5549  0.2728
13504TIP3    H262004   2.600   6.601  11.724  0.0636 -0.3353  0.1587
13505TIP3   OH262005   5.118   1.585  13.229 -0.4460 -0.3811 -0.3389
13505TIP3    H162006   5.202   1.553  13.261 -1.1367 -2.4127 -0.3981
13505TIP3    H262007   5.140   1.635  13.151  0.9140  1.4798  1.1372
13506TIP3   OH262008   0.661   6.348  16.608  0.4157 -0.8337 -0.1298
13506TIP3    H162009   0.567   6.337  16.623  0.3704 -1.4062 -0.8083
13506TIP3    H262010   0.701   6.272  16.651  0.5841 -0.5354  0.2481
13507TIP3   OH262011   5.817   4.648   3.241 -0.3754  0.3300  0.2664
13507TIP3    H162012   5.888   4.620   3.299  0.1348  0.8175 -0.1052
13507TIP3    H262013   5.737   4.633   3.292 -0.2215 -2.4109 -0.1638
13508TIP3   OH262014   2.174   2.202  12.721  0.2660  0.7096 -0.0028
13508TIP3    H162015   2.138   2.225  12.636 -1.5279 -0.3005  0.4372
13508TIP3    H262016   2.148   2.274  12.779  0.0253  0.5804  0.0499
13509TIP3   OH262017   1.599   1.124  11.085  0.1409 -0.0791 -0.3963
13509TIP3    H162018   1.591   1.043  11.135  0.2283  1.0688  1.5608
13509TIP3    H262019   1.599   1.194  11.151  2.2635  1.4266 -1.8392
13510TIP3   OH262020   6.680   1.407  12.306 -0.2198 -0.4199 -0.4292
13510TIP3    H162021   6.666   1.483  12.250  0.4474 -0.1065 -0.1873
13510TIP3    H262022   6.592   1.379  12.333 -0.6637 -1.4549 -2.7484
13511TIP3   OH262023   6.700   0.592   4.045  1.1361 -0.9546 -0.5920
13511TIP3    H162024   6.687   0.645   4.123  0.5304 -2.8462  0.6666
13511TIP3    H262025   6.631   0.619   3.985 -0.3899 -1.6261  0.7936
13512TIP3   OH262026   1.182   3.784   3.187  0.2614  0.2356 -0.1466
13512TIP3    H162027   1.126   3.721   3.232 -2.0838  2.7349  0.7701
13512TIP3    H262028   1.257   3.795   3.246  0.2748 -1.0082  0.1007
13513TIP3   OH262029   3.570   5.346   2.917  0.8393 -0.1716 -0.2330
13513TIP3    H162030   3.483   5.337   2.956  0.6498  0.5421 -0.4840
13513TIP3    H262031   3.594   5.257   2.892  0.0780 -0.3399 -0.3779
13514TIP3   OH262032   4.549   1.017   1.908  0.4039  0.1686 -0.3773
13514TIP3    H162033   4.569   0.932   1.946 -0.6823  0.3088  0.5837
13514TIP3    H262034   4.466   1.042   1.949 -0.7527  0.4332 -2.7113
13515TIP3   OH262035   2.745   1.148   5.934 -0.3001 -0.1418 -0.2519
13515TIP3    H162036   2.819   1.140   5.874 -0.8984 -2.1211 -0.7988
13515TIP3    H262037   2.716   1.058   5.949 -0.2754  0.2619  2.9268
13516TIP3   OH262038   5.304   2.403  11.475  0.0701  0.3888  0.0166
13516TIP3    H162039   5.264   2.342  11.536 -0.1046 -0.7046 -1.1502
13516TIP3    H262040   5.272   2.376  11.389  0.3244  1.8675 -0.5829
13517TIP3   OH262041   1.977   1.339   6.510 -0.1058  0.0016 -0.0707
13517TIP3    H162042   1.897   1.381   6.481  0.4339 -0.2952 -2.1364
13517TIP3    H262043   1.963   1.245   6.495  0.2601 -0.1564  0.5179
13518TIP3   OH262044   3.445   6.463  13.821 -0.7360 -0.3609 -0.4518
13518TIP3    H162045   3.495   6.504  13.891 -0.5304 -0.8357 -0.3152
13518TIP3    H262046   3.459   6.369  13.833 -0.2801 -0.4327 -1.4442
13519TIP3   OH262047   6.762   0.937   2.296 -0.2033  0.2844  0.5675
13519TIP3    H162048   6.754   0.853   2.251 -2.0837  0.8314 -0.2438
13519TIP3    H262049   6.841   0.976   2.260 -0.0063 -0.5929  0.0050
13520TIP3   OH262050   4.481   4.733  15.103 -0.4292 -0.4092 -0.5039
13520TIP3    H162051   4.530   4.672  15.048  0.9581  0.1320  0.0959
13520TIP3    H262052   4.466   4.809  15.048 -0.4025 -0.4807 -0.6101
13521TIP3   OH262053   0.416   0.702  13.257 -0.6476  0.2625 -0.8233
13521TIP3    H162054   0.466   0.693  13.176 -0.4130 -0.8618 -0.5792
13521TIP3    H262055   0.335   0.654  13.241 -0.1414 -0.9037 -0.0509
13522TIP3   OH262056   3.796   3.425   5.392  0.1425 -0.0843  0.4392
13522TIP3    H162057   3.832   3.448   5.306 -2.5583 -1.2441 -1.1202
13522TIP3    H262058   3.712   3.470   5.396 -0.7954 -1.8042  1.4898
13523TIP3   OH262059   1.723   2.114   1.549 -0.0493  0.0534 -0.2168
13523TIP3    H162060   1.749   2.069   1.469  1.2063 -0.2090  0.3130
13523TIP3    H262061   1.763   2.201   1.543 -1.1224  0.5450 -0.4995
13524TIP3   OH262062   1.371   6.480   2.888  0.2430  0.2071  0.0195
13524TIP3    H162063   1.352   6.512   2.799 -0.8727 -0.8083 -0.1317
13524TIP3    H262064   1.313   6.531   2.944 -1.7384 -1.5985 -0.2492
13525TIP3   OH262065   3.286   3.139   5.341 -0.1463  0.1981  0.1873
13525TIP3    H162066   3.338   3.080   5.287 -1.7998 -0.7025 -0.4854
13525TIP3    H262067   3.250   3.083   5.410 -1.4584  0.4506 -0.2582
13526TIP3   OH262068   1.756   4.446   5.161  0.1373 -0.0318  0.3206
13526TIP3    H162069   1.777   4.522   5.107  1.5287  0.3332  1.3356
13526TIP3    H262070   1.675   4.471   5.207 -1.6418 -0.7197 -2.2093
13527TIP3   OH262071   3.418   1.947  12.170  0.3624 -0.0048  0.3506
13527TIP3    H162072   3.325   1.957  12.151  0.1617  0.7749  1.6336
13527TIP3    H262073   3.462   1.980  12.092 -0.4099 -1.4451 -0.7564
13528TIP3   OH262074   1.569   5.078  15.174 -0.3142 -0.1247  0.0879
13528TIP3    H162075   1.571   5.012  15.105 -0.5577 -0.5333  0.4698
13528TIP3    H262076   1.481   5.072  15.212 -0.6563  1.0352 -0.4625
13529TIP3   OH262077   6.489   3.157  17.344  0.0678  0.1671  0.5266
13529TIP3    H162078   6.412   3.173  17.398 -0.3079  1.9814 -0.4764
13529TIP3    H262079   6.459   3.171  17.254  0.9180 -1.7902 -0.1164
13530TIP3   OH262080   0.332   6.650   2.628 -0.3408  0.3874 -0.2204
13530TIP3    H162081   0.296   6.734   2.597 -2.1001  0.5777  2.0758
13530TIP3    H262082   0.351   6.665   2.721 -1.7802 -2.0384  0.5570
13531TIP3   OH262083   1.494   4.327  12.439 -0.3633  0.3107 -0.5534
13531TIP3    H162084   1.542   4.314  12.521  0.5593  0.9111 -0.9868
13531TIP3    H262085   1.469   4.419  12.439 -0.7472  0.2107 -0.7517
13532TIP3   OH262086   5.873   0.263  17.294  0.1177  0.3511 -0.3436
13532TIP3    H162087   5.797   0.319  17.312  0.6878  1.1575 -0.3787
13532TIP3    H262088   5.838   0.191  17.241 -0.6438  0.6350 -0.2424
13533TIP3   OH262089   5.652   4.897   5.825  0.1024  0.0291  0.4580
13533TIP3    H162090   5.699   4.946   5.757  0.2912 -0.0604  0.5215
13533TIP3    H262091   5.721   4.870   5.885 -0.0969  0.3280  0.8235
13534TIP3   OH262092   4.052   4.249   3.536 -0.1770  0.3960  0.0832
13534TIP3    H162093   4.039   4.290   3.450 -0.0308 -0.7775 -0.5264
13534TIP3    H262094   4.136   4.204   3.528 -0.6306 -0.5593  0.4846
13535TIP3   OH262095   6.395   3.507  16.356  0.1086  0.0103 -0.5645
13535TIP3    H162096   6.386   3.586  16.302  0.4353  0.0016 -0.6313
13535TIP3    H262097   6.486   3.482  16.347 -0.3767 -1.4277 -2.0055
13536TIP3   OH262098   1.720   5.714   4.630 -0.2645 -0.0109  0.1808
13536TIP3    H162099   1.643   5.689   4.579 -0.5416 -2.0141  1.4688
13536TIP3    H262100   1.785   5.739   4.565 -0.6815 -2.2445 -1.2070
13537TIP3   OH262101   3.638   4.516  12.156 -0.1540  0.0493 -0.2168
13537TIP3    H162102   3.652   4.567  12.236 -0.5628  3.0919 -1.9284
13537TIP3    H262103   3.544   4.515  12.144 -0.1839 -1.5050 -0.0471
13538TIP3   OH262104   0.085   2.092  12.231 -0.2183 -0.0573  0.1196
13538TIP3    H162105   0.118   2.148  12.302 -0.3016 -0.5363  0.5410
13538TIP3    H262106   0.081   2.150  12.155  3.0338 -0.3166 -0.3665
13539TIP3   OH262107   2.672   4.153  11.938  0.5130  0.0466 -0.1473
13539TIP3    H162108   2.620   4.102  12.000  0.2430 -1.8019 -1.8006
13539TIP3    H262109   2.762   4.128  11.955  0.4358 -0.4850 -0.4878
13540TIP3   OH262110   5.726   2.551  16.652  0.2388 -0.5296  0.0939
13540TIP3    H162111   5.714   2.517  16.563  0.3459  1.0633 -0.5676
13540TIP3    H262112   5.639   2.580  16.679  0.1552 -1.2502  0.6318
13541TIP3   OH262113   5.686   6.272  15.889  0.1220  0.0662 -0.4759
13541TIP3    H162114   5.595   6.243  15.878 -0.3323 -0.4534  3.4518
13541TIP3    H262115   5.679   6.365  15.909  0.5460  0.1779 -0.8312
13542TIP3   OH262116   6.295   6.129   2.154  0.1904  0.0629 -0.7536
13542TIP3    H162117   6.320   6.192   2.222 -2.8746  0.0487  0.5671
13542TIP3    H262118   6.280   6.047   2.200 -0.6942 -0.3025 -1.6314
13543TIP3   OH262119   6.374   4.587  12.716  0.2094  0.1258 -0.3147
13543TIP3    H162120   6.286   4.550  12.716  0.5188 -0.6720  0.6849
13543TIP3    H262121   6.365   4.670  12.763 -0.0696  0.2104 -0.5152
13544TIP3   OH262122   1.078   3.246  11.578 -0.5662  0.5440 -0.3825
13544TIP3    H162123   1.048   3.161  11.611 -0.2955  0.6102  0.0389
13544TIP3    H262124   1.073   3.304  11.654  0.1296  0.6809 -0.4354
13545TIP3   OH262125   5.714   4.655   5.322  0.5927  0.5336 -0.7697
13545TIP3    H162126   5.644   4.643   5.386  1.6172 -2.9937 -0.0744
13545TIP3    H262127   5.668   4.660   5.238 -0.5993  1.2534 -0.0958
13546TIP3   OH262128   4.446   2.656  13.457 -0.0228 -0.1743  0.5736
13546TIP3    H162129   4.413   2.668  13.545 -0.8028  0.2738  0.2253
13546TIP3    H262130   4.394   2.715  13.403  0.7114 -0.1485 -0.1296
13547TIP3   OH262131   2.541   1.578  11.585  0.2076  0.0117 -0.1983
13547TIP3    H162132   2.612   1.632  11.619 -0.1277  0.3924 -0.0927
13547TIP3    H262133   2.463   1.609  11.631  0.1132 -1.0176  0.3529
13548TIP3   OH262134   5.295   2.846   4.628  0.2879  0.5630  0.0714
13548TIP3    H162135   5.203   2.821   4.621 -0.5465  2.6706  2.0688
13548TIP3    H262136   5.343   2.763   4.633 -1.6031 -0.5687  0.1407
13549TIP3   OH262137   5.320   0.869  10.369  0.1338 -0.1401  0.0342
13549TIP3    H162138   5.378   0.815  10.315 -0.3063  1.2918 -1.9887
13549TIP3    H262139   5.378   0.930  10.413  0.2373  1.7714 -2.5489
13550TIP3   OH262140   0.431   0.982  16.185  0.1679  0.4825 -0.0562
13550TIP3    H162141   0.444   1.074  16.206 -0.0831  0.0019  2.5758
13550TIP3    H262142   0.513   0.939  16.211 -0.3928 -0.2470  0.5935
13551TIP3   OH262143   3.873   4.703   4.152 -0.2861 -0.4165  0.1693
13551TIP3    H162144   3.934   4.727   4.221  1.4023  2.0467 -1.9903
13551TIP3    H262145   3.787   4.704   4.194  0.7957 -0.4499  2.4960
13552TIP3   OH262146   1.013   3.306   5.958  0.0671  0.4985  0.0627
13552TIP3    H162147   1.078   3.243   5.927 -0.1953 -0.9744  2.2489
13552TIP3    H262148   1.046   3.334   6.043 -2.2550 -0.5511  1.3933
13553TIP3   OH262149   1.885   0.416   5.448  0.8998  0.2062 -0.1032
13553TIP3    H162150   1.978   0.439   5.446  1.0519 -0.4120 -1.3144
13553TIP3    H262151   1.876   0.362   5.526  1.3111  1.1779  0.6463
13554TIP3   OH262152   1.737   5.745   0.996  0.1468 -0.1745 -0.4628
13554TIP3    H162153   1.736   5.824   1.050 -1.1667  0.5010 -1.4527
13554TIP3    H262154   1.646   5.732   0.969  0.1939 -2.4227  0.2198
13555TIP3   OH262155   6.463   4.649   3.930 -0.5882  0.4558  0.1262
13555TIP3    H162156   6.514   4.577   3.968  1.3559  1.9403  0.5021
13555TIP3    H262157   6.506   4.667   3.846 -1.1219  1.0856 -0.0199
13556TIP3   OH262158   2.075   4.060   3.793  0.3220  0.1444  0.2641
13556TIP3    H162159   2.011   4.043   3.862 -1.3261  0.7924 -1.0553
13556TIP3    H262160   2.098   4.152   3.803 -0.6607  0.5022 -0.6179
13557TIP3   OH262161   2.930   2.270   3.355 -0.2194 -0.1296 -0.2503
13557TIP3    H162162   2.928   2.182   3.393 -1.1724  0.5507  1.3714
13557TIP3    H262163   2.847   2.310   3.383  0.8340  1.7734  0.2796
13558TIP3   OH262164   4.425   0.477   2.376 -0.7185 -0.4137 -0.1422
13558TIP3    H162165   4.399   0.569   2.371  0.6637 -0.0382 -0.9051
13558TIP3    H262166   4.411   0.443   2.288 -0.8223 -0.8182  0.0287
13559TIP3   OH262167   4.620   3.814   1.060  0.0981  0.2347 -0.4177
13559TIP3    H162168   4.608   3.878   0.991  1.2297  1.3501  0.3815
13559TIP3    H262169   4.657   3.737   1.016  0.3548  0.7579 -1.1257
13560TIP3   OH262170   0.996   4.253   5.472  0.1253 -0.5334  0.4202
13560TIP3    H162171   1.074   4.290   5.432 -0.4022  0.8256  0.6239
13560TIP3    H262172   1.025   4.220   5.557  0.4297  0.1868  0.5968
13561TIP3   OH262173   0.424   2.561   5.143  0.0170  0.5729  0.3437
13561TIP3    H162174   0.422   2.467   5.128  0.3639  0.7121 -0.6260
13561TIP3    H262175   0.354   2.577   5.207 -0.7979 -0.2007 -0.3287
13562TIP3   OH262176   0.020   3.428   5.365  0.5444  0.1401  0.2176
13562TIP3    H162177   0.029   3.334   5.381 -0.9588  0.2200  1.8071
13562TIP3    H262178  -0.038   3.433   5.289  1.0465 -0.2189 -0.1936
13563TIP3   OH262179   3.596   5.093   4.689  0.0353 -0.0060 -0.2117
13563TIP3    H162180   3.653   5.078   4.765 -0.3532 -2.6555 -0.3547
13563TIP3    H262181   3.508   5.070   4.720 -0.5440  1.2859 -0.8079
13564TIP3   OH262182   4.152   2.894  12.270 -0.0524  0.3733  0.0597
13564TIP3    H162183   4.068   2.848  12.280 -0.0052  0.2302 -0.1833
13564TIP3    H262184   4.133   2.964  12.208  0.1394 -0.0147 -0.4483
13565TIP3   OH262185   5.422   6.571   2.491  0.0171  0.4953 -0.0173
13565TIP3    H162186   5.466   6.518   2.558  0.4408 -0.4008 -0.9777
13565TIP3    H262187   5.345   6.607   2.536  0.6403  0.4574  1.1311
13566TIP3   OH262188   2.599   0.054   6.289  0.2876  0.7895 -0.2946
13566TIP3    H162189   2.586   0.149   6.284  1.0175  0.8442 -1.4931
13566TIP3    H262190   2.550   0.019   6.215 -0.2038  0.1927  0.3034
13567TIP3   OH262191   0.510   6.333   1.477 -0.8094  0.4790  0.0907
13567TIP3    H162192   0.574   6.390   1.521  0.5358 -0.4265 -0.6292
13567TIP3    H262193   0.494   6.375   1.393 -0.8537  0.4943  0.1068
13568TIP3   OH262194   1.559   5.190  16.027  0.6787  0.0767  0.2429
13568TIP3    H162195   1.592   5.277  16.049  1.8396 -0.6824  1.6719
13568TIP3    H262196   1.465   5.195  16.046  0.9845  0.6060  1.7258
13569TIP3   OH262197   1.599   1.008  14.272 -0.0286  0.0940  0.0633
13569TIP3    H162198   1.589   0.918  14.303  0.0725 -0.4325 -1.3666
13569TIP3    H262199   1.693   1.026  14.279 -0.2891  0.8768  2.3517
13570TIP3   OH262200   5.023   6.660   2.569  0.4352 -0.0183 -0.0781
13570TIP3    H162201   5.055   6.722   2.503  0.4383 -0.5725 -0.6083
13570TIP3    H262202   5.102   6.626   2.611  0.3821  2.2136  2.0204
13571TIP3   OH262203   2.155   4.464  16.337 -0.2700  0.4131  0.0832
13571TIP3    H162204   2.214   4.530  16.301 -1.7175  0.7801 -1.7939
13571TIP3    H262205   2.118   4.504  16.415 -2.8021  2.9230 -2.1646
13572TIP3   OH262206   4.753   4.004  15.811  0.2481  0.0733 -0.1234
13572TIP3    H162207   4.755   4.000  15.716 -1.1175  0.9384 -0.2182
13572TIP3    H262208   4.793   4.088  15.833 -0.6209  0.4684 -0.0192
13573TIP3   OH262209   4.107   4.440  16.972 -0.1027  0.0616 -0.1180
13573TIP3    H162210   4.050   4.509  16.939  0.6320  0.9700  0.4700
13573TIP3    H262211   4.196   4.475  16.963  0.2115 -0.3142  1.3049
13574TIP3   OH262212   1.010   6.649   4.858 -0.5987 -0.8339  0.3159
13574TIP3    H162213   0.922   6.680   4.879 -0.7614 -0.4011 -0.8801
13574TIP3    H262214   1.016   6.660   4.763  1.3854  0.9270  0.5673
13575TIP3   OH262215   5.843   2.947   5.329 -0.7371 -0.0140  0.2163
13575TIP3    H162216   5.932   2.939   5.295  0.2914 -1.4461  2.9164
13575TIP3    H262217   5.801   3.013   5.273  1.7166  0.0769 -1.6709
13576TIP3   OH262218   1.734   2.851   1.755 -0.5736 -0.3835 -0.1425
13576TIP3    H162219   1.643   2.854   1.786 -0.1172 -2.2736  1.6470
13576TIP3    H262220   1.753   2.757   1.748  1.7456 -0.0891  1.2291
13577TIP3   OH262221   3.887   5.071   5.266  0.0150 -0.7240 -0.4191
13577TIP3    H162222   3.851   4.986   5.291 -2.4910  0.6042  0.8907
13577TIP3    H262223   3.938   5.098   5.342 -1.2921 -0.0179  0.2494
13578TIP3   OH262224   6.244   0.189   0.572  0.6791 -0.0292 -0.3270
13578TIP3    H162225   6.248   0.107   0.523 -3.7217 -0.3073 -0.5753
13578TIP3    H262226   6.237   0.257   0.505  0.9539  0.2372 -0.0898
13579TIP3   OH262227   6.145   2.835  16.297  0.4089  0.3365 -0.2529
13579TIP3    H162228   6.205   2.844  16.371  1.2873  1.2919 -1.0502
13579TIP3    H262229   6.161   2.748  16.262 -1.2684 -0.8448  1.7112
13580TIP3   OH262230   4.293   2.039  13.638  0.2482  0.5262  0.3972
13580TIP3    H162231   4.340   1.974  13.587  2.2125  1.7364  0.5684
13580TIP3    H262232   4.320   2.123  13.601 -1.6776  1.3081  0.6279
13581TIP3   OH262233   2.778   4.919  14.811  0.6410  0.4251 -0.3278
13581TIP3    H162234   2.694   4.960  14.792  0.9979  1.8468  0.9827
13581TIP3    H262235   2.762   4.866  14.888  0.7310 -0.0630 -0.6417
13582TIP3   OH262236   5.575   0.479   2.966 -0.3289  0.4825  0.2670
13582TIP3    H162237   5.589   0.571   2.943 -3.0986  0.8365 -0.3230
13582TIP3    H262238   5.574   0.433   2.882 -3.4813  0.7013  0.0621
13583TIP3   OH262239   2.076   2.307  12.089 -0.1440  0.1545 -0.2288
13583TIP3    H162240   2.025   2.377  12.130 -1.0882 -0.6114 -0.0806
13583TIP3    H262241   2.142   2.353  12.037 -0.3519  1.1483  0.3661
13584TIP3   OH262242   4.112   6.613  14.558  0.0661 -0.3993  0.3496
13584TIP3    H162243   4.034   6.604  14.503  0.6713 -2.1556 -0.2868
13584TIP3    H262244   4.123   6.707  14.568 -0.6007 -0.0425 -1.7774
13585TIP3   OH262245   2.100   1.132  14.772  0.1965 -0.6806 -0.3877
13585TIP3    H162246   2.160   1.206  14.777 -0.2370 -0.1557 -2.2608
13585TIP3    H262247   2.154   1.059  14.743  0.1133 -0.4006 -1.2835
13586TIP3   OH262248   5.982   0.758   0.969 -0.0636 -0.0472  0.1043
13586TIP3    H162249   6.050   0.725   1.028 -1.4295  0.0635  1.8424
13586TIP3    H262250   6.028   0.817   0.910  1.4399 -0.4021  0.8687
13587TIP3   OH262251   0.639   4.258  11.982 -0.3084  0.1583 -0.4593
13587TIP3    H162252   0.633   4.185  11.921  0.6039 -0.1624 -0.1757
13587TIP3    H262253   0.621   4.219  12.068 -0.5409  0.4063 -0.3940
13588TIP3   OH262254   5.101   1.022  15.193 -0.3285 -0.0493  0.4165
13588TIP3    H162255   5.021   1.036  15.243 -0.5601  4.5411 -0.7933
13588TIP3    H262256   5.168   1.070  15.241  0.5406  0.3543 -1.1162
13589TIP3   OH262257   4.738   6.513  10.236  0.5300  0.4179 -0.4138
13589TIP3    H162258   4.664   6.461  10.205  0.4238  0.9945 -1.1541
13589TIP3    H262259   4.788   6.453  10.291 -1.4661  0.5092  1.6559
13590TIP3   OH262260   2.149   5.963  14.406  0.5187  0.3610  0.4730
13590TIP3    H162261   2.064   5.933  14.372  0.9470 -0.9665  0.4959
13590TIP3    H262262   2.162   5.912  14.486  1.5193  0.2520  0.2545
13591TIP3   OH262263   2.987   4.485  16.942 -0.6035 -0.0553 -0.0729
13591TIP3    H162264   3.041   4.496  17.021 -1.2049 -1.6550  0.6105
13591TIP3    H262265   3.046   4.445  16.878  0.4072  2.9099 -1.1366
13592TIP3   OH262266   3.159   0.901  15.415 -0.5234  0.0830 -0.1748
13592TIP3    H162267   3.210   0.844  15.358  0.4525  0.3322  0.4387
13592TIP3    H262268   3.179   0.990  15.385 -0.4394  0.1907  0.1951
13593TIP3   OH262269   1.817   5.424   1.563 -0.4897 -0.1948 -0.0649
13593TIP3    H162270   1.790   5.487   1.496 -2.4754  0.4776  1.2934
13593TIP3    H262271   1.852   5.479   1.634 -1.3636 -0.6696  0.7460
13594TIP3   OH262272   4.340   0.350   0.899  0.2949  0.2118  0.6543
13594TIP3    H162273   4.297   0.266   0.882  2.7014 -0.8854 -0.5212
13594TIP3    H262274   4.357   0.387   0.813 -1.6075  2.4892  1.1578
13595TIP3   OH262275   0.419   3.883   4.847  0.3342 -0.1620 -0.1159
13595TIP3    H162276   0.365   3.805   4.856 -0.1587 -0.0749 -1.9274
13595TIP3    H262277   0.362   3.955   4.876 -0.6224 -0.0656 -2.0611
13596TIP3   OH262278   4.263   6.795  11.799 -0.2233 -0.3355 -0.1178
13596TIP3    H162279   4.280   6.873  11.852 -0.6767 -0.0947 -0.3213
13596TIP3    H262280   4.347   6.748  11.798  0.2388  0.4629 -0.4965
13597TIP3   OH262281   5.934   1.751   5.398  0.3082  0.5027  0.1689
13597TIP3    H162282   5.959   1.702   5.320  1.3454  2.2263 -0.6366
13597TIP3    H262283   6.013   1.752   5.452 -0.5570 -1.1574  1.5711
13598TIP3   OH262284   1.786   6.022  12.025 -0.2490 -0.2706 -0.0116
13598TIP3    H162285   1.880   6.006  12.016 -0.1488  0.6841 -0.7492
13598TIP3    H262286   1.748   5.982  11.948 -0.6698 -2.1826  1.1235
13599TIP3   OH262287   5.998   1.082   1.624 -0.3656  0.3842  0.7349
13599TIP3    H162288   6.057   1.147   1.662  0.9978 -0.0261 -0.6114
13599TIP3    H262289   6.055   1.016   1.585 -1.7187 -1.1135  1.1699
13600TIP3   OH262290   6.007   1.668  14.259  0.7072 -0.8037  0.1835
13600TIP3    H162291   6.075   1.624  14.309  0.2230 -2.3333 -0.4493
13600TIP3    H262292   6.042   1.672  14.170  0.2003 -1.1114 -0.0337
13601TIP3   OH262293   0.747   5.095  16.212  0.6257  0.9069  0.2187
13601TIP3    H162294   0.668   5.147  16.229  0.4010  0.2412  1.2865
13601TIP3    H262295   0.791   5.090  16.296  0.1704 -1.3871  0.3865
13602TIP3   OH262296   2.092   0.572  16.197 -0.1798  0.7615  0.0922
13602TIP3    H162297   2.112   0.614  16.113  1.5767  1.0331  0.5993
13602TIP3    H262298   2.119   0.481  16.185  0.3387  0.8647  0.4251
13603TIP3   OH262299   3.677   6.330  12.083 -0.9091  0.1573 -0.6045
13603TIP3    H162300   3.704   6.245  12.048 -0.7178 -1.5792  3.2492
13603TIP3    H262301   3.601   6.355  12.031 -0.8363 -2.2410 -2.0080
13604TIP3   OH262302   4.951   1.480  12.751  0.1817 -0.9049  0.5058
13604TIP3    H162303   4.907   1.395  12.751 -2.2815  0.2577  0.9698
13604TIP3    H262304   4.994   1.486  12.836 -0.6640 -1.2148  0.9628
13605TIP3   OH262305   2.790   1.900   5.242  0.5187 -0.0262 -0.0301
13605TIP3    H162306   2.815   1.855   5.323  0.2221 -0.3923 -0.1385
13605TIP3    H262307   2.715   1.850   5.209  0.7630 -0.0058 -0.6339
13606TIP3   OH262308   1.372   2.280  14.374  0.1062 -0.5108 -0.7654
13606TIP3    H162309   1.405   2.327  14.451  0.4981 -0.0423 -1.2111
13606TIP3    H262310   1.355   2.191  14.405  3.6557 -1.3785 -0.9332
13607TIP3   OH262311   3.441   4.710  11.780 -1.0267 -0.5889  0.0310
13607TIP3    H162312   3.519   4.726  11.727  0.7079  1.7094  2.9886
13607TIP3    H262313   3.385   4.786  11.766 -1.1054 -0.5344  0.6259
13608TIP3   OH262314   6.174   0.153  12.145  0.0966  0.6114 -0.2596
13608TIP3    H162315   6.116   0.091  12.190  1.4966  0.6604  1.7802
13608TIP3    H262316   6.262   0.116  12.157  0.8653  2.4452  0.1098
13609TIP3   OH262317   0.645   6.067  13.167  0.1302  0.3488  0.2687
13609TIP3    H162318   0.638   6.154  13.128 -1.7853 -0.3877 -1.1849
13609TIP3    H262319   0.644   6.008  13.092 -0.3621 -0.9995  1.3164
13610TIP3   OH262320   2.224   5.225  14.334 -0.2826  0.1525  0.8192
13610TIP3    H162321   2.154   5.176  14.292 -0.6797  0.5356  1.0286
13610TIP3    H262322   2.215   5.205  14.427  0.5694 -0.6620  0.7446
13611TIP3   OH262323   0.237   1.953  13.507 -0.1094 -0.0084 -0.1640
13611TIP3    H162324   0.162   1.957  13.565 -0.5577 -2.8574 -0.4154
13611TIP3    H262325   0.313   1.954  13.565 -0.3661  1.2730  0.1762
13612TIP3   OH262326   1.518   5.844   4.036 -0.3110 -0.0132 -0.3877
13612TIP3    H162327   1.571   5.923   4.027  0.6503 -0.2888  2.2284
13612TIP3    H262328   1.573   5.774   4.001  0.2372  0.0042  0.4229
13613TIP3   OH262329   3.700   4.932   2.948  0.2737 -0.2484  0.0258
13613TIP3    H162330   3.634   4.961   3.011  0.4272  1.0983 -0.3895
13613TIP3    H262331   3.666   4.849   2.914 -2.1009  1.1772 -1.3928
13614TIP3   OH262332   3.694   4.549   2.612  0.2571 -0.1786  0.6727
13614TIP3    H162333   3.723   4.458   2.610  0.2943 -0.1792 -1.5778
13614TIP3    H262334   3.772   4.600   2.592 -0.5094  0.0118 -2.3439
13615TIP3   OH262335   1.067   3.140  11.332 -0.0182 -0.3530 -0.4400
13615TIP3    H162336   1.134   3.173  11.272  0.7451 -0.5577  0.2855
13615TIP3    H262337   1.087   3.182  11.416 -0.6331 -0.6247 -0.1541
13616TIP3   OH262338   0.469   5.692  12.405  0.4692  0.1290 -0.0915
13616TIP3    H162339   0.521   5.764  12.440  1.6388 -0.1709 -1.1329
13616TIP3    H262340   0.405   5.734  12.347 -0.1241  0.4513  0.7652
13617TIP3   OH262341   4.126   0.123  16.369  0.2637 -0.2886 -0.0840
13617TIP3    H162342   4.189   0.175  16.419 -1.3690  0.2175  1.5859
13617TIP3    H262343   4.047   0.122  16.424 -0.8539 -1.7584 -1.6012
13618TIP3   OH262344   3.115   1.795  12.083  0.2733 -0.2638  0.7769
13618TIP3    H162345   3.129   1.886  12.108 -0.5643 -0.0411  0.4656
13618TIP3    H262346   3.061   1.759  12.152 -2.8515  0.6056 -1.0124
13619TIP3   OH262347   6.378   2.818  11.802 -0.4128  0.1140  0.3313
13619TIP3    H162348   6.292   2.860  11.803 -0.7901 -0.5808 -0.9443
13619TIP3    H262349   6.417   2.841  11.886 -0.5703  3.0100 -0.2942
13620TIP3   OH262350   3.946   3.703   6.749  0.0899  0.1185 -0.0900
13620TIP3    H162351   3.962   3.613   6.778 -0.2322 -0.8631 -2.7220
13620TIP3    H262352   3.865   3.697   6.698 -0.2266  2.0271  0.1343
13621TIP3   OH262353   3.323   6.358   4.466  0.0477  0.9053 -0.6158
13621TIP3    H162354   3.289   6.441   4.501 -0.6059  0.2209  0.4167
13621TIP3    H262355   3.246   6.303   4.456  0.6855 -0.2259  0.5116
13622TIP3   OH262356   3.080   2.948  11.880 -0.4635  0.1066 -0.2846
13622TIP3    H162357   3.002   3.002  11.888  0.3338  1.5832 -1.7615
13622TIP3    H262358   3.087   2.930  11.786  2.2392  2.1467 -0.6212
13623TIP3   OH262359   4.583   3.244   2.942  0.1547  0.2478  0.0326
13623TIP3    H162360   4.654   3.306   2.960  0.7608 -0.5165  0.3207
13623TIP3    H262361   4.582   3.236   2.847  0.3641  0.3662  0.0191
13624TIP3   OH262362   4.507   1.263  16.113 -0.1106 -0.4748  0.0027
13624TIP3    H162363   4.507   1.266  16.017 -1.7703 -1.7003 -0.0700
13624TIP3    H262364   4.538   1.175  16.135  0.9003  0.0150  0.6403
13625TIP3   OH262365   4.576   0.290   1.987 -0.2747 -0.3104  0.2760
13625TIP3    H162366   4.545   0.255   1.904  1.5926  1.1031 -1.0930
13625TIP3    H262367   4.671   0.298   1.976  0.1678 -0.9142  2.8848
13626TIP3   OH262368   3.596   5.808  11.812 -0.0035 -0.1971 -0.0201
13626TIP3    H162369   3.672   5.827  11.756  0.9847  1.1322  1.6682
13626TIP3    H262370   3.521   5.837  11.761  1.0445  3.2852  0.1920
13627TIP3   OH262371   1.828   4.399  15.381 -0.0470  0.6244 -0.2763
13627TIP3    H162372   1.900   4.336  15.374  1.0567  1.7368  0.6210
13627TIP3    H262373   1.794   4.407  15.292 -0.3088 -1.3052 -0.4066
13628TIP3   OH262374   6.388   3.130  13.744 -0.6290 -0.1196 -0.2137
13628TIP3    H162375   6.365   3.130  13.651 -1.6912 -0.0952  0.0430
13628TIP3    H262376   6.319   3.079  13.786  0.8174 -1.7029  0.3448
13629TIP3   OH262377   3.817   6.079   2.153  0.1386 -0.3747 -0.2453
13629TIP3    H162378   3.839   6.147   2.090  1.7411 -1.7205 -1.2112
13629TIP3    H262379   3.840   5.997   2.110 -0.2630 -1.4525  1.4746
13630TIP3   OH262380   6.408   1.121   2.661  0.4337 -0.2326 -0.2468
13630TIP3    H162381   6.446   1.209   2.668  0.1771 -0.1351 -0.0550
13630TIP3    H262382   6.481   1.062   2.675  0.2725 -0.0495  1.4999
13631TIP3   OH262383   0.536   3.413   1.054 -0.4268 -0.0533 -0.2439
13631TIP3    H162384   0.470   3.477   1.026 -2.6429 -1.9938  0.2063
13631TIP3    H262385   0.549   3.357   0.977 -0.6838 -0.7622  0.2223
13632TIP3   OH262386   6.060   5.460   3.135 -0.6764  0.3472 -0.4915
13632TIP3    H162387   6.018   5.397   3.194 -3.2588  2.5988  0.3038
13632TIP3    H262388   6.117   5.512   3.192 -1.3221  0.9904 -0.4196
13633TIP3   OH262389   6.461   1.374  12.473 -0.6584 -0.0988  0.1600
13633TIP3    H162390   6.464   1.363  12.568  2.5517  0.2181  0.2013
13633TIP3    H262391   6.446   1.468  12.461 -0.1663  0.0133  0.3887
13634TIP3   OH262392   3.099   2.074   5.702 -0.1335  0.1953  0.5809
13634TIP3    H162393   3.012   2.098   5.735 -1.0304 -3.6529  1.4645
13634TIP3    H262394   3.153   2.067   5.780 -0.4523 -2.3382  0.6305
13635TIP3   OH262395   6.346   1.062  11.528  0.2349 -0.0470 -0.2989
13635TIP3    H162396   6.440   1.080  11.529 -0.4059  4.1911 -0.3359
13635TIP3    H262397   6.320   1.062  11.620 -0.2059  2.7078 -0.3461
13636TIP3   OH262398   2.923   5.385  14.474 -0.0849 -0.3691  0.3914
13636TIP3    H162399   2.955   5.347  14.556 -0.5437 -0.1043  0.6955
13636TIP3    H262400   3.000   5.425  14.434  0.3290 -1.2794  0.2505
13637TIP3   OH262401   0.906   1.142  12.372  0.2327 -0.5039 -0.1865
13637TIP3    H162402   0.980   1.198  12.394 -0.2967 -0.0805  0.5933
13637TIP3    H262403   0.857   1.190  12.305  0.9266 -1.0156 -1.0747
13638TIP3   OH262404   1.274   6.503   0.780  0.0630 -0.2594  0.4716
13638TIP3    H162405   1.255   6.597   0.779 -0.2874 -0.3322 -0.1031
13638TIP3    H262406   1.278   6.481   0.873 -0.8902  0.1282  0.6161
13639TIP3   OH262407   1.936   5.611  10.559  0.0352 -1.0814  0.1763
13639TIP3    H162408   1.989   5.657  10.624  0.5625  1.2900 -1.7948
13639TIP3    H262409   1.866   5.672  10.538 -1.5998 -2.8134  0.2400
13640TIP3   OH262410   3.791   0.984   4.285  0.1048 -0.0681  0.1673
13640TIP3    H162411   3.753   1.041   4.352 -1.9101 -2.1203  0.9112
13640TIP3    H262412   3.716   0.948   4.239  1.2275 -2.5650  0.1452
13641TIP3   OH262413   3.129   2.148   4.493  0.3965  0.6647 -0.4430
13641TIP3    H162414   3.132   2.107   4.406  0.2715 -0.0149 -0.1341
13641TIP3    H262415   3.218   2.138   4.526  0.2397  0.1630 -0.1569
13642TIP3   OH262416   1.393   4.451   0.578 -0.3024 -0.0633  0.0671
13642TIP3    H162417   1.397   4.360   0.547  0.2241 -0.8593  2.2809
13642TIP3    H262418   1.452   4.499   0.521 -0.6218 -1.1066 -1.1737
13643TIP3   OH262419   5.301   1.145  12.503  0.5954  0.2958  0.0063
13643TIP3    H162420   5.326   1.172  12.415 -0.4186 -2.2067 -1.1359
13643TIP3    H262421   5.206   1.144  12.503  0.5814 -1.2519  0.5911
13644TIP3   OH262422   2.898   4.596  14.052 -0.5887  0.2292 -0.0339
13644TIP3    H162423   2.819   4.543  14.044 -0.2734 -0.2643  0.0983
13644TIP3    H262424   2.867   4.681  14.084 -0.9500 -0.3036  1.0753
13645TIP3   OH262425   1.892   6.614   5.944  0.4765 -0.3536 -0.6546
13645TIP3    H162426   1.850   6.528   5.934 -2.0237  0.7711 -0.4782
13645TIP3    H262427   1.876   6.638   6.035 -0.4233  1.0444 -1.1533
13646TIP3   OH262428   3.458   6.236  11.397 -0.0159  0.6980  0.3280
13646TIP3    H162429   3.432   6.249  11.488 -0.5605  1.2148  0.0971
13646TIP3    H262430   3.439   6.144  11.380  0.0281  0.6162  0.7095
13647TIP3   OH262431   5.291   3.151   2.508 -0.1499  0.2163  0.1590
13647TIP3    H162432   5.225   3.219   2.520 -0.6249 -0.4239  1.4748
13647TIP3    H262433   5.247   3.070   2.534 -0.0254 -0.8543 -2.6407
13648TIP3   OH262434   3.542   2.872   4.959 -0.2089  0.0514  0.3557
13648TIP3    H162435   3.455   2.911   4.957 -1.2007 -2.0314 -2.0081
13648TIP3    H262436   3.575   2.881   4.870  1.4032 -0.4758  0.8634
13649TIP3   OH262437   2.399   1.339  11.895 -0.4949  0.4872  0.2006
13649TIP3    H162438   2.320   1.323  11.843  0.8034  1.0307 -2.0531
13649TIP3    H262439   2.421   1.253  11.931 -0.8790 -0.1244 -0.9835
13650TIP3   OH262440   5.227   6.349   0.893 -0.5774  0.1291 -0.0899
13650TIP3    H162441   5.226   6.261   0.929 -1.6849  0.3398  0.4520
13650TIP3    H262442   5.308   6.354   0.842  1.9928  0.2608  3.5352
13651TIP3   OH262443   0.426   4.744   3.209  0.0289 -0.1157 -0.1276
13651TIP3    H162444   0.434   4.789   3.124  0.5039 -0.0820 -0.0691
13651TIP3    H262445   0.479   4.664   3.198 -1.4415 -1.0783 -0.5003
13652TIP3   OH262446   5.187   3.648   0.289 -0.7388  0.4339 -0.7134
13652TIP3    H162447   5.242   3.724   0.266 -2.2506  1.8912  0.2600
13652TIP3    H262448   5.139   3.629   0.208 -1.4994  1.5537 -0.5483
13653TIP3   OH262449   4.732   3.674  11.711 -0.4855 -0.3084 -0.9470
13653TIP3    H162450   4.728   3.650  11.618  1.4199  0.1764 -1.1883
13653TIP3    H262451   4.823   3.701  11.726 -0.9425  0.4200  0.8726
13654TIP3   OH262452   6.682   5.982  14.560 -0.1146  0.4627  0.1944
13654TIP3    H162453   6.694   5.957  14.468 -0.2586  0.2028  0.2449
13654TIP3    H262454   6.771   5.991  14.594  0.0817 -3.0893  1.0096
13655TIP3   OH262455   6.508   4.290   3.415  0.1882  0.4905  0.2994
13655TIP3    H162456   6.421   4.286   3.376  1.2107  1.1341 -2.2222
13655TIP3    H262457   6.550   4.208   3.388  0.9320  0.9642 -0.0075
13656TIP3   OH262458   4.912   6.250   0.862 -0.1410 -0.3499 -0.6799
13656TIP3    H162459   4.976   6.196   0.815  2.0430  0.5439  1.0808
13656TIP3    H262460   4.941   6.340   0.845 -1.1519  0.0906 -0.0948
13657TIP3   OH262461   2.580   5.831  11.388 -0.1746  0.1681 -0.3791
13657TIP3    H162462   2.576   5.811  11.482 -1.5327 -1.0436 -0.6808
13657TIP3    H262463   2.499   5.797  11.352 -0.2067  1.6427 -1.8364
13658TIP3   OH262464   1.113   4.550   0.741 -0.2590  0.0339  0.3974
13658TIP3    H162465   1.073   4.627   0.782 -0.9196 -0.0235 -0.1344
13658TIP3    H262466   1.053   4.526   0.671 -0.3274 -1.3019  0.8882
13659TIP3   OH262467   2.213   4.457  11.016 -0.0680  0.1533  0.0099
13659TIP3    H162468   2.242   4.367  11.023 -0.5618  0.0639  1.1360
13659TIP3    H262469   2.285   4.503  10.973  1.0681 -0.3544  1.3310
13660TIP3   OH262470   1.641   0.595   4.158  0.0549 -0.3576 -0.5643
13660TIP3    H162471   1.555   0.562   4.132 -0.4136 -1.7096  2.3630
13660TIP3    H262472   1.701   0.523   4.140 -0.0258 -0.7186  0.5443
13661TIP3   OH262473   1.158   3.716  16.868  0.0578  0.6630  0.3731
13661TIP3    H162474   1.153   3.643  16.930  0.6559  0.0480 -0.2832
13661TIP3    H262475   1.245   3.755  16.883 -0.6040  1.8416  1.3564
13662TIP3   OH262476   5.623   2.837   5.439 -0.1224 -0.0820  0.9099
13662TIP3    H162477   5.643   2.743   5.444  0.6403  0.0612  0.7782
13662TIP3    H262478   5.708   2.877   5.419 -0.8666  0.4066 -1.5384
13663TIP3   OH262479   2.941   2.393  17.282 -0.0797 -0.1490  0.2204
13663TIP3    H162480   3.030   2.376  17.315  0.1684  1.2276  0.3194
13663TIP3    H262481   2.904   2.306  17.269  0.3129 -0.7744  2.7586
13664TIP3   OH262482   0.551   4.838  14.151 -0.1665 -0.4870  0.0541
13664TIP3    H162483   0.502   4.800  14.224  0.4097  0.5301  1.0066
13664TIP3    H262484   0.639   4.851  14.185 -0.1367  0.9388 -0.4717
13665TIP3   OH262485   0.830   2.825  16.051 -0.5493  0.5106 -0.4164
13665TIP3    H162486   0.832   2.734  16.023 -0.1441  1.0212 -2.1624
13665TIP3    H262487   0.741   2.855  16.029 -0.5060  0.6912 -0.3494
13666TIP3   OH262488   0.384   4.106   0.241 -0.5351  0.2766 -0.2934
13666TIP3    H162489   0.471   4.067   0.229 -0.3236  1.0464 -1.4636
13666TIP3    H262490   0.372   4.110   0.336  1.5066  1.8256 -0.0214
13667TIP3   OH262491   2.994   6.125  16.500 -0.3723 -0.0964 -0.4149
13667TIP3    H162492   2.991   6.176  16.419 -0.9979 -2.0201 -1.6623
13667TIP3    H262493   2.992   6.191  16.570 -1.3617  1.5590 -1.9228
13668TIP3   OH262494   2.556   4.217  15.834  0.5792  0.3201 -0.0123
13668TIP3    H162495   2.601   4.168  15.903  1.7430  1.9358  0.4425
13668TIP3    H262496   2.627   4.257  15.783 -0.2742 -0.4253 -1.8776
13669TIP3   OH262497   2.708   1.416  10.956  0.3640  0.1524 -0.0525
13669TIP3    H162498   2.667   1.331  10.973  0.6246  0.1801  0.7565
13669TIP3    H262499   2.794   1.410  10.998  1.1625  0.1402 -1.6215
13670TIP3   OH262500   4.417   1.858  13.026 -0.8174 -0.8830  0.5624
13670TIP3    H162501   4.493   1.895  12.980 -2.0189 -0.1451 -0.9090
13670TIP3    H262502   4.445   1.770  13.051  0.6811 -0.4602  0.4665
13671TIP3   OH262503   0.234   0.788   4.207  0.4588 -0.3727  0.1502
13671TIP3    H162504   0.319   0.829   4.188  0.4362 -0.0428  0.7306
13671TIP3    H262505   0.232   0.779   4.302 -0.5527  0.5163  0.2350
13672TIP3   OH262506   5.825   6.056  15.741 -0.5157  0.2399  0.0808
13672TIP3    H162507   5.854   5.981  15.793  0.4663  0.2901 -0.3721
13672TIP3    H262508   5.770   6.107  15.801 -2.3785 -1.5291 -0.0120
13673TIP3   OH262509   5.241   0.267   1.072  0.3835 -0.2679 -0.0493
13673TIP3    H162510   5.190   0.343   1.044  0.7012 -0.3270 -0.8014
13673TIP3    H262511   5.175   0.207   1.108 -0.1169 -0.4385 -1.2197
13674TIP3   OH262512   4.321   4.422  16.211 -0.0878  0.2015 -0.0338
13674TIP3    H162513   4.417   4.424  16.214  0.0055 -1.9624  0.2157
13674TIP3    H262514   4.296   4.371  16.288 -1.4359  0.3908 -0.3154
13675TIP3   OH262515   2.861   3.227   3.174  0.1280 -0.5986  0.2750
13675TIP3    H162516   2.859   3.266   3.087  1.9736  0.5689  0.6753
13675TIP3    H262517   2.786   3.265   3.219 -0.2280 -0.3772 -0.4892
13676TIP3   OH262518   6.210   1.276   1.477 -0.5732 -0.2927 -0.0033
13676TIP3    H162519   6.189   1.304   1.388  2.4915  2.9343  0.0720
13676TIP3    H262520   6.271   1.203   1.465 -2.6348 -2.0646 -0.3570
13677TIP3   OH262521   3.945   1.414   1.569 -0.0919 -0.1037  0.1606
13677TIP3    H162522   3.868   1.468   1.553 -1.2896 -1.8226 -0.1088
13677TIP3    H262523   3.912   1.338   1.618  1.0779 -1.7614 -1.4681
13678TIP3   OH262524   2.863   4.325   0.332  0.1410 -0.1781 -0.3290
13678TIP3    H162525   2.783   4.322   0.278 -1.5161  1.0854  1.8822
13678TIP3    H262526   2.912   4.400   0.298 -0.9583  0.7076 -0.0057
13679TIP3   OH262527   0.097   1.185   3.710  0.1951 -0.1462 -0.0896
13679TIP3    H162528   0.017   1.206   3.758  0.2796  0.0400 -0.0281
13679TIP3    H262529   0.127   1.270   3.677 -0.4698 -0.3973 -1.4294
13680TIP3   OH262530   5.800   4.188  15.689 -0.0990 -0.2904  0.2437
13680TIP3    H162531   5.782   4.094  15.679 -1.6810  0.0716 -0.5042
13680TIP3    H262532   5.884   4.201  15.643 -0.0980 -1.2463 -0.0492
13681TIP3   OH262533   0.529   5.247   5.322 -0.4768  0.0019 -0.0996
13681TIP3    H162534   0.585   5.324   5.336  0.2068 -0.4331 -0.4061
13681TIP3    H262535   0.558   5.211   5.238 -0.4371 -0.8990  0.2959
13682TIP3   OH262536   1.995   5.681  13.646 -0.5086  0.2790 -0.3622
13682TIP3    H162537   2.082   5.694  13.610 -2.0187  1.1863 -4.1851
13682TIP3    H262538   1.940   5.746  13.602 -3.0837  0.1159  2.2734
13683TIP3   OH262539   4.111   4.038   2.421  0.6063  0.0379 -0.3727
13683TIP3    H162540   4.196   4.074   2.394  1.2003 -1.3319 -0.3758
13683TIP3    H262541   4.129   3.947   2.442 -0.8919 -0.2854 -0.4143
13684TIP3   OH262542   4.785   3.257  12.488  0.2361  0.2752 -0.3837
13684TIP3    H162543   4.825   3.340  12.462 -3.3534  2.3127 -0.0707
13684TIP3    H262544   4.730   3.280  12.563 -1.3016 -2.3008 -0.6121
13685TIP3   OH262545   0.393   3.928   0.682  0.4261  0.2124 -0.1422
13685TIP3    H162546   0.486   3.950   0.684  0.7552 -1.1055 -0.0056
13685TIP3    H262547   0.391   3.835   0.664 -0.8986  0.3197 -0.6497
13686TIP3   OH262548   2.045   3.722   2.360  0.9244 -0.0471  0.5303
13686TIP3    H162549   2.046   3.635   2.400  1.6525 -0.7737 -0.9787
13686TIP3    H262550   2.127   3.762   2.389  1.0432 -0.2424  0.4692
13687TIP3   OH262551   6.154   4.164  16.491  0.0057 -0.3926 -0.0491
13687TIP3    H162552   6.229   4.212  16.453  0.6493  1.5241  3.2296
13687TIP3    H262553   6.174   4.072  16.475  2.4160  0.1282 -0.4378
13688TIP3   OH262554   2.469   3.318   5.387  0.5666  0.0503 -0.0055
13688TIP3    H162555   2.455   3.340   5.295  2.2664 -1.8304 -0.7933
13688TIP3    H262556   2.563   3.330   5.400  0.5314 -0.7988  1.1700
13689TIP3   OH262557   5.490   6.255   5.241  0.3897  0.5631  0.5286
13689TIP3    H162558   5.395   6.259   5.243  0.1820 -2.2178 -0.1780
13689TIP3    H262559   5.514   6.276   5.151  0.1359 -2.0032 -0.1988
13690TIP3   OH262560   1.338   5.985  12.664 -0.2746 -0.5727 -0.1935
13690TIP3    H162561   1.376   5.964  12.579  1.8187  2.3332 -0.1375
13690TIP3    H262562   1.397   5.943  12.727  1.9271  2.2394 -0.1654
13691TIP3   OH262563   6.083   2.195  14.060  0.3760 -0.3181  0.3782
13691TIP3    H162564   6.058   2.124  14.120 -1.8023  1.4519  1.7614
13691TIP3    H262565   6.018   2.191  13.990 -0.3985  0.9082  1.0104
13692TIP3   OH262566   2.639   2.794   4.826 -0.2846  0.2074 -0.3019
13692TIP3    H162567   2.698   2.837   4.764 -0.0917  1.7845  0.8911
13692TIP3    H262568   2.552   2.824   4.800 -0.4636 -1.1286 -1.3055
13693TIP3   OH262569   0.480   3.345   2.035  1.1214 -1.0026 -0.0752
13693TIP3    H162570   0.507   3.428   1.997  1.0379 -0.7496  0.4138
13693TIP3    H262571   0.385   3.343   2.024  1.1291 -1.0595 -0.1350
13694TIP3   OH262572   0.060   1.925   1.532 -0.0619  0.6118  0.3328
13694TIP3    H162573  -0.023   1.944   1.576  1.6261  0.5697  3.9401
13694TIP3    H262574   0.062   1.830   1.524 -0.6190  0.6554 -0.3602
13695TIP3   OH262575   0.914   1.667  15.372 -0.4661 -0.5637 -0.8073
13695TIP3    H162576   0.936   1.726  15.300  0.8694  1.5562  1.1920
13695TIP3    H262577   0.995   1.619  15.390 -0.1053  0.5110  0.6211
13696TIP3   OH262578   3.571   6.595  10.919  0.0235 -0.1476 -0.4188
13696TIP3    H162579   3.666   6.587  10.910 -0.1333 -1.0267 -1.6569
13696TIP3    H262580   3.544   6.642  10.840 -0.6980 -1.1335 -0.7803
13697TIP3   OH262581   6.164   4.670  16.984  0.1781  0.1139  0.2657
13697TIP3    H162582   6.069   4.671  16.966  0.2921  1.7821 -0.4134
13697TIP3    H262583   6.190   4.580  16.964 -1.1959 -0.2753  0.0652
13698TIP3   OH262584   6.097   3.608   2.989  0.4491  0.2253  0.0965
13698TIP3    H162585   6.135   3.535   2.940  1.9769  0.5908  0.6838
13698TIP3    H262586   6.006   3.612   2.960  0.6422 -1.1958 -0.7738
13699TIP3   OH262587   0.909   6.057   5.862 -0.1953 -0.0521 -0.8227
13699TIP3    H162588   0.989   6.090   5.903 -0.2386 -1.1434  0.2043
13699TIP3    H262589   0.844   6.126   5.877  0.0801  0.0412  0.0066
13700TIP3   OH262590   3.780   3.458  16.245 -0.2516 -0.3554 -0.1744
13700TIP3    H162591   3.860   3.456  16.192 -0.0920  0.3433  0.0382
13700TIP3    H262592   3.771   3.549  16.273 -0.3438 -0.7063  0.9968
13701TIP3   OH262593   3.103   4.221  14.692  0.1061 -0.1940  0.0520
13701TIP3    H162594   3.132   4.209  14.782  0.1525 -1.5436 -0.1218
13701TIP3    H262595   3.115   4.314  14.675  1.5227 -0.1806  0.9605
13702TIP3   OH262596   1.617   0.570   3.179  1.0493 -0.2350 -0.1146
13702TIP3    H162597   1.702   0.561   3.135  0.1159 -2.7886 -1.6321
13702TIP3    H262598   1.622   0.510   3.253  1.0078  0.5874  0.5576
13703TIP3   OH262599   2.963   5.791  12.433  0.0355 -0.0377 -0.5561
13703TIP3    H162600   2.945   5.870  12.484  0.6628  0.6426 -1.3444
13703TIP3    H262601   3.053   5.768  12.455 -0.1464 -0.5387 -0.3284
13704TIP3   OH262602   5.650   4.014   5.946  0.1920  0.3015  0.0834
13704TIP3    H162603   5.669   4.105   5.971 -2.8181  0.5070  2.3248
13704TIP3    H262604   5.570   4.020   5.893  0.2017 -1.0142 -0.1189
13705TIP3   OH262605   5.274   3.287   5.854  0.4335  0.4969 -0.5397
13705TIP3    H162606   5.344   3.258   5.795  0.7831 -1.8147  0.8897
13705TIP3    H262607   5.278   3.383   5.851  2.8591  0.4322 -1.4102
13706TIP3   OH262608   5.031   5.881  14.916  0.3308  0.2918  0.2103
13706TIP3    H162609   4.972   5.909  14.986  0.8626  0.0606  0.7582
13706TIP3    H262610   5.117   5.911  14.944  0.2768  2.0997 -1.3587
13707TIP3   OH262611   6.560   0.480   1.407 -0.2165  0.4465 -0.3734
13707TIP3    H162612   6.507   0.520   1.476 -1.1161  1.0702 -1.3922
13707TIP3    H262613   6.642   0.457   1.450 -1.7088 -1.6900  1.5875
13708TIP3   OH262614   1.881   6.108   3.422  0.1109  0.0521  0.2656
13708TIP3    H162615   1.847   6.197   3.409  0.5477  0.0121 -1.4664
13708TIP3    H262616   1.805   6.057   3.450 -0.0165  1.0672  1.8650
13709TIP3   OH262617   1.307   6.245  13.038  0.0587  0.0684  0.1765
13709TIP3    H162618   1.266   6.216  12.957 -1.9806  1.9535  0.4475
13709TIP3    H262619   1.281   6.180  13.104 -1.1141  0.3167 -0.0215
13710TIP3   OH262620   5.819   5.606   2.683 -0.5034  0.2415 -0.7795
13710TIP3    H162621   5.745   5.584   2.626  0.1446  0.8257 -1.8804
13710TIP3    H262622   5.859   5.682   2.641 -0.5118  1.2333  0.9400
13711TIP3   OH262623   6.435   5.791  17.044 -0.1515  0.0925 -0.3356
13711TIP3    H162624   6.443   5.703  17.080  0.8583  1.0738  2.0195
13711TIP3    H262625   6.343   5.814  17.059 -0.3328 -0.4045 -0.6337
13712TIP3   OH262626   4.359   1.371   2.234 -0.1594 -0.5098 -0.0249
13712TIP3    H162627   4.333   1.280   2.228 -1.4391 -0.1069 -1.1479
13712TIP3    H262628   4.394   1.392   2.147 -1.1309  0.4083 -0.2156
13713TIP3   OH262629   6.693   5.214   2.530  0.8311 -0.0511  0.3050
13713TIP3    H162630   6.779   5.230   2.492 -0.1557 -0.3405 -2.2673
13713TIP3    H262631   6.662   5.301   2.555  1.5786  0.1367  0.6086
13714TIP3   OH262632   1.675   6.626  12.495  0.6796  0.0743 -0.8612
13714TIP3    H162633   1.666   6.535  12.522 -0.9650  0.6988  0.9136
13714TIP3    H262634   1.631   6.630  12.410 -1.6376 -0.3384  0.2276
13715TIP3   OH262635   3.366   2.720   0.071  0.0711  0.5117 -0.3172
13715TIP3    H162636   3.311   2.649   0.037 -1.5138  1.2422  0.5988
13715TIP3    H262637   3.450   2.679   0.089 -0.5299 -0.9311 -0.6508
13716TIP3   OH262638   0.148   4.334  14.979 -0.0172  0.0554  0.1871
13716TIP3    H162639   0.061   4.371  14.998  0.3583  2.0891 -1.6878
13716TIP3    H262640   0.131   4.243  14.957 -1.7712  0.5454 -0.6772
13717TIP3   OH262641   3.600   6.028  12.896  0.3314  0.3576  0.1688
13717TIP3    H162642   3.625   5.992  12.811 -2.2777 -0.7151 -0.2329
13717TIP3    H262643   3.621   6.122  12.889 -0.0852  0.3491 -1.7741
13718TIP3   OH262644   4.800   1.760   0.200 -0.3358  0.3749 -0.0362
13718TIP3    H162645   4.734   1.758   0.269  0.1873 -0.4683  0.4614
13718TIP3    H262646   4.844   1.675   0.207  0.0441  0.4705 -1.0984
13719TIP3   OH262647   5.542   4.346   0.953  0.0838  0.0488  0.2923
13719TIP3    H162648   5.519   4.255   0.934 -0.0659  0.3563 -1.1520
13719TIP3    H262649   5.573   4.381   0.869  0.4889  1.2323  0.9024
13720TIP3   OH262650   1.422   5.028  14.685  0.2890 -0.1171 -0.3021
13720TIP3    H162651   1.480   5.075  14.625 -1.7211  0.9879 -1.4828
13720TIP3    H262652   1.481   4.976  14.740  2.4229  1.4979 -0.9355
13721TIP3   OH262653   1.777   1.303   1.664 -0.2551 -0.3758  0.5060
13721TIP3    H162654   1.821   1.384   1.636  0.2637 -0.7810  0.1413
13721TIP3    H262655   1.703   1.334   1.716  1.0439  0.3266  2.0744
13722TIP3   OH262656   1.080   2.711  13.961 -0.2684 -0.0851  0.5399
13722TIP3    H162657   1.128   2.770  14.020 -0.9286  1.0257  0.0030
13722TIP3    H262658   1.091   2.750  13.874 -0.1069 -1.1743  0.0517
13723TIP3   OH262659   2.567   5.531  12.426 -0.6072  0.1748 -0.1520
13723TIP3    H162660   2.479   5.497  12.413 -0.9623  0.7521  0.6695
13723TIP3    H262661   2.565   5.619  12.387 -0.0226 -0.2647 -1.2395
13724TIP3   OH262662   1.598   6.457   0.800 -0.2229  0.8796 -0.0269
13724TIP3    H162663   1.541   6.444   0.724  0.0698  1.8350 -0.4353
13724TIP3    H262664   1.616   6.551   0.799 -0.8198  1.0375  1.6730
13725TIP3   OH262665   4.325   3.153   3.938 -0.0806  0.2491 -0.3766
13725TIP3    H162666   4.253   3.216   3.949 -2.9186 -2.7003 -0.5483
13725TIP3    H262667   4.291   3.072   3.975  3.7506 -1.0388  0.6771
13726TIP3   OH262668   1.193   0.579  16.353  0.5693  0.2415  0.6333
13726TIP3    H162669   1.271   0.582  16.408  0.0721 -0.5712  1.4109
13726TIP3    H262670   1.133   0.521  16.400 -1.3137  2.4500  1.1282
13727TIP3   OH262671   0.298   2.080   4.485 -0.5582  1.1394 -0.1084
13727TIP3    H162672   0.298   2.035   4.569  0.8288  0.2019 -0.5727
13727TIP3    H262673   0.293   2.009   4.420  2.1378  1.5672 -0.8770
13728TIP3   OH262674   3.886   1.705  16.467 -0.2010  0.1914  0.2502
13728TIP3    H162675   3.891   1.696  16.372 -2.2430  0.4214  0.0780
13728TIP3    H262676   3.894   1.615  16.500 -4.4187 -0.6843 -0.5187
13729TIP3   OH262677   0.863   2.571  17.160 -0.3755  0.0458 -0.5001
13729TIP3    H162678   0.810   2.649  17.142  0.2149  0.4250 -0.6206
13729TIP3    H262679   0.918   2.561  17.082  2.3622  1.8074  1.0354
13730TIP3   OH262680   5.704   2.299  16.192  0.4259  0.0263  0.3796
13730TIP3    H162681   5.649   2.290  16.115  0.0953  1.1510  0.4684
13730TIP3    H262682   5.702   2.213  16.234 -0.1303 -0.3256 -0.3670
13731TIP3   OH262683   0.114   1.744  16.812  0.1374 -0.1537 -0.0327
13731TIP3    H162684   0.021   1.737  16.792  0.4284 -1.3946 -1.0337
13731TIP3    H262685   0.117   1.797  16.892 -1.3901  0.2293 -0.1969
13732TIP3   OH262686   2.747   6.190   2.067 -0.7841  0.0415  0.7441
13732TIP3    H162687   2.724   6.119   2.127 -1.1302  0.2973  0.9223
13732TIP3    H262688   2.829   6.225   2.100 -0.6305 -0.2509  0.6758
13733TIP3   OH262689   4.711   4.701  14.626  0.4685  0.1750  0.1019
13733TIP3    H162690   4.785   4.651  14.592  0.6858  0.8040 -0.3638
13733TIP3    H262691   4.750   4.782  14.659  0.1148  0.0701  0.8038
13734TIP3   OH262692   2.494   6.212  11.128 -0.4088  0.0763 -0.0525
13734TIP3    H162693   2.423   6.176  11.181 -0.2171  0.9307  0.8015
13734TIP3    H262694   2.573   6.170  11.162 -0.2367  0.9452  0.6408
13735TIP3   OH262695   0.721   6.598   1.499  0.3724 -0.4360  0.6541
13735TIP3    H162696   0.643   6.649   1.523 -0.0617 -0.6511 -0.2550
13735TIP3    H262697   0.787   6.623   1.564 -0.0754  0.6907  0.7003
13736TIP3   OH262698   1.857   6.720  17.216 -0.1305  0.5405 -0.2637
13736TIP3    H162699   1.804   6.767  17.150 -0.1420  1.2480  0.2425
13736TIP3    H262700   1.799   6.712  17.292  0.4087  1.1216  0.2157
13737TIP3   OH262701   5.804   4.630  14.931  0.1121 -0.6302 -0.5762
13737TIP3    H162702   5.831   4.568  14.999 -0.1757  0.4446  0.5695
13737TIP3    H262703   5.780   4.575  14.857 -0.3505 -1.9210  0.4708
13738TIP3   OH262704   6.356   3.452  11.292  0.3791  0.3703  0.6961
13738TIP3    H162705   6.362   3.357  11.287  0.9582  0.3575  1.4100
13738TIP3    H262706   6.371   3.483  11.203  1.2238 -0.1592  0.6486
13739TIP3   OH262707   4.171   5.337   4.993 -0.3179 -0.3706 -0.2079
13739TIP3    H162708   4.155   5.401   4.923 -1.1165  1.2437  1.3755
13739TIP3    H262709   4.221   5.386   5.059 -0.0998 -1.6701  0.6246
13740TIP3   OH262710   4.238   1.251  12.524 -0.4029 -0.3490 -0.1194
13740TIP3    H162711   4.216   1.236  12.616  0.6602 -3.4749 -0.2385
13740TIP3    H262712   4.178   1.193  12.476  1.6210 -1.7832 -1.0527
13741TIP3   OH262713   2.915   2.949  15.231 -0.3118 -0.1714 -0.6323
13741TIP3    H162714   2.948   2.860  15.220  0.2669 -0.1988  1.0181
13741TIP3    H262715   2.850   2.943  15.301  1.2350  0.9891  1.0054
13742TIP3   OH262716   6.117   1.544   4.356  0.0736  0.0831  0.1677
13742TIP3    H162717   6.196   1.594   4.337  0.4901 -0.0731  1.4178
13742TIP3    H262718   6.063   1.604   4.407  0.2833 -0.4904  1.0871
13743TIP3   OH262719   1.123   2.357   3.556  0.3015 -0.4351 -0.8875
13743TIP3    H162720   1.088   2.271   3.579 -1.3199  0.2285 -0.7019
13743TIP3    H262721   1.195   2.372   3.617 -1.1594 -0.5303  0.9584
13744TIP3   OH262722   2.403   0.681  16.226  0.1318 -0.5572  0.2508
13744TIP3    H162723   2.359   0.756  16.187 -0.8433 -2.7505 -3.3738
13744TIP3    H262724   2.347   0.654  16.299 -0.4955  1.0295  0.3751
13745TIP3   OH262725   1.918   2.543  15.316 -0.9470  0.0241 -0.2644
13745TIP3    H162726   1.950   2.629  15.289 -0.6719  1.1309  3.1096
13745TIP3    H262727   1.997   2.494  15.338 -1.2326  0.4202  1.7653
13746TIP3   OH262728   5.735   4.006   4.911  0.0419 -0.3734  0.3773
13746TIP3    H162729   5.824   3.970   4.910 -0.5706 -2.0817  1.6510
13746TIP3    H262730   5.706   3.992   5.001 -1.2783  0.7951  0.1504
13747TIP3   OH262731   1.848   4.068  15.663  0.5835  0.1717  0.1877
13747TIP3    H162732   1.891   4.154  15.668  0.8052  0.2222 -1.8656
13747TIP3    H262733   1.906   4.010  15.714  0.6069  1.1450  1.3193
13748TIP3   OH262734   4.416   5.266  15.091 -0.0259  0.3922  0.0221
13748TIP3    H162735   4.385   5.179  15.119  1.0289 -0.0625 -0.1712
13748TIP3    H262736   4.506   5.251  15.064  0.0229  1.4776 -0.4449
13749TIP3   OH262737   3.308   3.183  13.934  0.0404  0.0123  0.2032
13749TIP3    H162738   3.361   3.262  13.922  0.9881 -0.2452  2.2888
13749TIP3    H262739   3.371   3.111  13.927 -0.4571 -0.4347  0.3239
13750TIP3   OH262740   0.460   2.987   1.560 -0.3973  0.0957  0.2345
13750TIP3    H162741   0.554   2.971   1.548 -0.6800 -0.2768 -1.8937
13750TIP3    H262742   0.453   3.082   1.568  0.1660  0.1144  0.6165
13751TIP3   OH262743   4.731   4.119  14.153 -0.9112 -0.3227  0.1700
13751TIP3    H162744   4.716   4.049  14.216 -0.9361  0.4016  1.0054
13751TIP3    H262745   4.822   4.108  14.125 -1.0748 -0.9901 -0.0961
13752TIP3   OH262746   5.948   0.975  16.587  0.4934  0.1837  0.0726
13752TIP3    H162747   5.923   1.049  16.643  0.6209  0.1249  0.2082
13752TIP3    H262748   5.873   0.962  16.530 -1.0656 -1.9021  2.4134
13753TIP3   OH262749   2.752   4.325  17.183  0.4474 -1.1582  1.2138
13753TIP3    H162750   2.733   4.418  17.195  1.0956 -1.0160  1.2021
13753TIP3    H262751   2.789   4.320  17.094 -0.1387 -1.5201  0.9825
13754TIP3   OH262752   6.602   2.342   2.864 -0.0158 -0.3391 -0.1739
13754TIP3    H162753   6.572   2.266   2.813  0.7781 -1.2945  0.7246
13754TIP3    H262754   6.625   2.305   2.949  0.2311  0.9586  0.3346
13755TIP3   OH262755   3.514   6.543   6.131  0.2826 -0.2256  0.0409
13755TIP3    H162756   3.568   6.613   6.096 -0.7955  0.8454  0.4326
13755TIP3    H262757   3.499   6.567   6.222 -0.6452 -0.6244  0.0070
13756TIP3   OH262758   1.552   1.769   5.070  0.4607  0.4493 -0.4340
13756TIP3    H162759   1.629   1.795   5.121  1.0326 -0.0138 -1.0422
13756TIP3    H262760   1.511   1.700   5.123  0.1134  1.1076  0.1775
13757TIP3   OH262761   1.415   6.657   4.506  0.0546 -0.0222  0.2154
13757TIP3    H162762   1.334   6.699   4.475 -0.6099 -1.3896  0.0131
13757TIP3    H262763   1.405   6.565   4.480  2.0626 -0.0571 -0.5485
13758TIP3   OH262764   5.061   6.483  10.337  0.0569 -0.3271  0.2729
13758TIP3    H162765   5.140   6.430  10.344 -0.0872 -0.7934 -1.3343
13758TIP3    H262766   4.989   6.419  10.339 -0.2826  0.0538  1.2019
13759TIP3   OH262767   2.934   5.460   2.965  0.2049 -0.4105 -0.0026
13759TIP3    H162768   2.983   5.543   2.964  1.8073 -1.3250 -0.5496
13759TIP3    H262769   2.842   5.487   2.970  0.5406  1.4714 -2.2314
13760TIP3   OH262770   0.084   2.902   0.130 -0.3601  0.4190  0.5666
13760TIP3    H162771   0.078   2.806   0.126 -0.4290  0.3029  2.4056
13760TIP3    H262772  -0.007   2.932   0.127 -0.3657  0.3955  0.4989
13761TIP3   OH262773   2.433   2.402  17.318 -0.0282  0.3372 -0.5715
13761TIP3    H162774   2.440   2.327  17.377 -0.5148  0.5745 -0.2022
13761TIP3    H262775   2.406   2.475  17.375 -0.1548  0.6502 -1.0242
13762TIP3   OH262776   6.356   1.407   1.919  0.9875  0.6894  0.1739
13762TIP3    H162777   6.290   1.344   1.947  1.5466  0.2679  0.5747
13762TIP3    H262778   6.418   1.410   1.992  1.4243  1.0506 -0.2083
13763TIP3   OH262779   4.408   5.858   4.395 -0.2460 -0.5992  0.3333
13763TIP3    H162780   4.337   5.851   4.458  0.1779  0.4798  0.9617
13763TIP3    H262781   4.429   5.952   4.393 -0.1847 -0.6305 -1.3437
13764TIP3   OH262782   5.785   3.230  12.042  0.5353 -0.2357  0.0864
13764TIP3    H162783   5.872   3.268  12.038  1.2140 -1.8019 -0.8171
13764TIP3    H262784   5.781   3.188  12.128  0.4401  0.3112  0.3560
13765TIP3   OH262785   0.406   4.312   1.042 -0.5482 -0.0704  0.1708
13765TIP3    H162786   0.396   4.335   1.134  0.4077  1.9185 -0.1832
13765TIP3    H262787   0.490   4.266   1.037 -0.5072 -0.0032  0.2555
13766TIP3   OH262788   1.423   4.004   5.741  0.1912  0.0395 -0.1778
13766TIP3    H162789   1.386   3.920   5.717  1.3600  0.2137 -2.8643
13766TIP3    H262790   1.397   4.064   5.671  0.6604  1.5706  0.8834
13767TIP3   OH262791   0.596   5.817   1.003  0.0744  0.4605 -0.2865
13767TIP3    H162792   0.577   5.771   0.922 -0.4640  1.3943 -0.7119
13767TIP3    H262793   0.689   5.800   1.019 -0.4373 -2.0540  0.4457
13768TIP3   OH262794   6.548   5.208   2.994 -0.3343  0.0156 -0.2499
13768TIP3    H162795   6.609   5.192   2.922  0.8029  0.0205  0.6849
13768TIP3    H262796   6.495   5.283   2.965  1.0932  0.9693 -0.4965
13769TIP3   OH262797   2.499   3.636   0.353 -0.0760 -0.5028 -0.1405
13769TIP3    H162798   2.508   3.698   0.426  1.5792  1.0708 -1.5595
13769TIP3    H262799   2.551   3.560   0.381  0.1279 -0.1305  0.5412
13770TIP3   OH262800   2.881   4.682   6.018 -0.1369 -0.1724  0.0051
13770TIP3    H162801   2.881   4.655   6.110 -1.3247 -2.0650 -0.4854
13770TIP3    H262802   2.861   4.602   5.970  2.4202  0.3306 -2.0786
13771TIP3   OH262803   2.325   0.529  12.166  0.2730  0.0003  0.0129
13771TIP3    H162804   2.252   0.469  12.149  0.5550 -0.7416  1.2562
13771TIP3    H262805   2.286   0.600  12.217  0.7895 -1.6422  2.9137
13772TIP3   OH262806   6.065   0.423  15.043  0.0588 -0.6042 -0.3429
13772TIP3    H162807   5.987   0.367  15.037 -0.0806 -0.3986 -0.5212
13772TIP3    H262808   6.134   0.366  15.075 -0.0055 -0.9555 -0.8181
13773TIP3   OH262809   6.530   0.923   3.799  0.9416  0.0225 -0.0150
13773TIP3    H162810   6.585   0.884   3.732 -0.7015 -0.6052 -1.0575
13773TIP3    H262811   6.515   1.013   3.769  0.5174 -0.1420 -0.3035
13774TIP3   OH262812   2.321   6.007   2.876 -0.7170 -0.2092  0.2504
13774TIP3    H162813   2.406   5.975   2.845 -0.5526  0.5784 -0.1454
13774TIP3    H262814   2.264   6.002   2.799 -0.0107  2.8402 -0.6482
13775TIP3   OH262815   1.777   2.336   5.073  0.1663 -0.6930 -0.0603
13775TIP3    H162816   1.726   2.376   5.143  0.4088 -1.6768  0.7061
13775TIP3    H262817   1.830   2.269   5.117  1.5344 -0.2408 -0.9358
13776TIP3   OH262818   1.517   5.701   5.544 -0.0499  0.1436  0.5380
13776TIP3    H162819   1.459   5.625   5.543  0.0538 -0.0067  2.4050
13776TIP3    H262820   1.596   5.670   5.588  0.5571  0.9522  0.0319
13777TIP3   OH262821   1.761   5.803  10.481 -0.3127 -0.1341  0.1377
13777TIP3    H162822   1.736   5.843  10.564 -0.1330 -1.1410  0.6975
13777TIP3    H262823   1.678   5.783  10.437 -0.4261  2.2709 -0.9075
13778TIP3   OH262824   4.483   2.892   6.693 -0.2167  0.1655  0.2795
13778TIP3    H162825   4.502   2.954   6.623  0.9155 -1.4534 -0.9233
13778TIP3    H262826   4.388   2.895   6.703 -0.4322  0.2673 -1.5144
13779TIP3   OH262827   0.926   0.056   2.893  0.0697  0.3296  0.7351
13779TIP3    H162828   0.872   0.096   2.961  1.3622  2.4291  0.6166
13779TIP3    H262829   0.865   0.035   2.823 -0.8080  1.3803  1.1561
13780TIP3   OH262830   3.821   5.756   3.212  0.4532 -0.5957 -0.2015
13780TIP3    H162831   3.903   5.797   3.240  0.9704 -1.5971 -0.2226
13780TIP3    H262832   3.802   5.796   3.127  1.7289 -1.4444 -0.9113
13781TIP3   OH262833   1.097   2.589  17.014 -0.2237  0.6609  0.0645
13781TIP3    H162834   1.190   2.569  17.028 -0.6617 -1.3721  0.3341
13781TIP3    H262835   1.095   2.635  16.930  0.9704  0.2188 -0.2309
13782TIP3   OH262836   1.600   4.916  14.937 -0.7369 -0.9432 -0.0968
13782TIP3    H162837   1.671   4.874  14.985 -0.8280 -0.4991  0.4350
13782TIP3    H262838   1.520   4.879  14.975 -0.8123 -0.4780  0.2000
13783TIP3   OH262839   0.143   5.297  14.526 -0.3896  0.5757  0.6445
13783TIP3    H162840   0.177   5.247  14.452 -1.0894  0.4307  0.4125
13783TIP3    H262841   0.053   5.266  14.537 -0.1792  0.3238  1.7970
13784TIP3   OH262842   4.802   5.252  17.055 -0.1357  0.6656 -0.4131
13784TIP3    H162843   4.845   5.168  17.040 -0.8580  0.5819 -2.3128
13784TIP3    H262844   4.747   5.238  17.132 -0.5036 -0.7236 -0.9078
13785TIP3   OH262845   3.900   4.138   3.730 -0.6549  0.1949 -0.5933
13785TIP3    H162846   3.937   4.059   3.769 -1.7141 -0.2981 -0.5517
13785TIP3    H262847   3.956   4.157   3.655  0.0247 -0.1886 -0.1904
13786TIP3   OH262848   2.939   6.379   5.208  0.4631  0.9958  0.3093
13786TIP3    H162849   3.003   6.437   5.250  0.3100  0.6666  1.0093
13786TIP3    H262850   2.942   6.298   5.259  0.2470  0.5931 -0.2977
13787TIP3   OH262851   2.476   1.692   1.027  0.4166  0.1479 -0.6928
13787TIP3    H162852   2.559   1.712   0.984  1.2024  2.0976  1.5125
13787TIP3    H262853   2.501   1.649   1.109 -0.9042 -1.1132 -0.8963
13788TIP3   OH262854   5.568   4.119  17.110  0.1201  0.1679  0.4508
13788TIP3    H162855   5.592   4.033  17.144 -0.4940  0.0698  0.6407
13788TIP3    H262856   5.644   4.146  17.059 -0.4741 -1.3653 -1.3378
13789TIP3   OH262857   4.623   4.540   1.207 -0.2321 -0.2739  0.5224
13789TIP3    H162858   4.675   4.487   1.147 -1.6962 -1.1317 -0.0604
13789TIP3    H262859   4.669   4.535   1.290  1.4639  0.3573 -0.3363
13790TIP3   OH262860   4.925   6.382   0.494  0.3340 -0.2167 -0.0303
13790TIP3    H162861   4.954   6.310   0.438 -1.3237 -1.6011  0.8004
13790TIP3    H262862   4.847   6.349   0.538 -0.7562  2.2655  0.0720
13791TIP3   OH262863   4.859   4.698   2.868  0.2367 -0.0177  0.2027
13791TIP3    H162864   4.866   4.654   2.952  0.1917 -1.3682 -0.4749
13791TIP3    H262865   4.930   4.662   2.816  0.3781  0.9383 -0.2927
13792TIP3   OH262866   2.606   2.959   1.095  0.7021  0.7840 -0.1178
13792TIP3    H162867   2.679   2.998   1.144  2.0132  0.2256 -1.5276
13792TIP3    H262868   2.574   2.888   1.152  2.1559  0.1678 -0.0237
13793TIP3   OH262869   6.561   1.587  12.947  0.3507 -0.2084  0.1029
13793TIP3    H162870   6.503   1.542  13.008  2.1207 -0.5259  1.6581
13793TIP3    H262871   6.550   1.680  12.967 -0.5557 -0.1653 -0.5314
13794TIP3   OH262872   6.350   3.636   5.759  0.3098 -0.0813  0.0434
13794TIP3    H162873   6.360   3.565   5.823  1.8260  0.4049  0.3795
13794TIP3    H262874   6.440   3.662   5.738 -0.1920  0.5016 -1.4803
13795TIP3   OH262875   6.500   2.277   2.308 -0.1686 -0.3935  0.6168
13795TIP3    H162876   6.455   2.353   2.272 -1.8834 -1.7503 -0.2746
13795TIP3    H262877   6.526   2.226   2.231  0.7585 -0.8050  1.1962
13796TIP3   OH262878   6.440   5.363  15.197 -0.3662 -0.0667 -0.5057
13796TIP3    H162879   6.502   5.312  15.250 -0.1652  0.1036 -0.5742
13796TIP3    H262880   6.355   5.325  15.217 -0.1281 -1.0597 -1.2670
13797TIP3   OH262881   2.440   3.313  14.711 -0.2057  0.0828 -0.7865
13797TIP3    H162882   2.490   3.368  14.772  0.2917 -0.1915 -0.9439
13797TIP3    H262883   2.405   3.242  14.765 -2.5165  1.5705 -0.1709
13798TIP3   OH262884   4.185   4.691   3.721 -0.2912 -0.0049  0.1804
13798TIP3    H162885   4.276   4.678   3.694  0.2921  1.7872  1.1488
13798TIP3    H262886   4.145   4.604   3.713  1.6994 -0.9954  0.4622
13799TIP3   OH262887   5.355   6.774   1.108  0.0990 -0.0667  0.5915
13799TIP3    H162888   5.290   6.830   1.064  0.8843  1.0886  0.8631
13799TIP3    H262889   5.382   6.712   1.040 -0.9072 -0.2370  0.3284
13800TIP3   OH262890   1.613   0.090  11.814  0.0972  0.4351  0.5736
13800TIP3    H162891   1.540   0.108  11.755 -0.0202 -0.3673  0.4550
13800TIP3    H262892   1.678   0.157  11.793  0.3453 -0.2551 -0.9759
13801TIP3   OH262893   3.616   2.413   4.742 -0.1162 -0.7430  0.2381
13801TIP3    H162894   3.635   2.349   4.810 -0.4891 -0.2825  0.7808
13801TIP3    H262895   3.524   2.435   4.754 -0.8367 -2.2639 -1.7833
13802TIP3   OH262896   1.795   1.937  15.914 -0.5839  0.2004 -0.1302
13802TIP3    H162897   1.832   1.953  16.001  2.5186  1.8875 -1.5652
13802TIP3    H262898   1.781   2.025  15.878  0.1229 -0.4181 -2.0274
13803TIP3   OH262899   6.619   4.054  14.830  0.8521 -0.3522 -0.2946
13803TIP3    H162900   6.582   4.055  14.742 -0.1984  0.5454  0.1253
13803TIP3    H262901   6.692   3.993  14.826 -0.8620 -2.4477 -1.1008
13804TIP3   OH262902   2.177   1.277  16.945 -0.6088  0.2383  0.3571
13804TIP3    H162903   2.148   1.352  16.893 -0.2653  0.1656  0.0587
13804TIP3    H262904   2.273   1.280  16.940 -0.6028 -0.6838 -0.3145
13805TIP3   OH262905   0.753   0.332  15.625 -0.1542 -0.3419 -0.2628
13805TIP3    H162906   0.795   0.322  15.539  1.8685 -0.8656  0.7315
13805TIP3    H262907   0.788   0.413  15.660 -0.8111 -0.2373  0.1673
13806TIP3   OH262908   3.132   0.680   2.334 -0.0697 -0.0569  0.0926
13806TIP3    H162909   3.127   0.769   2.369  1.5367 -0.0544  0.4064
13806TIP3    H262910   3.041   0.655   2.317 -0.6932  0.9053  1.8155
13807TIP3   OH262911   3.745   2.009  11.712 -0.3465 -0.0577  0.3531
13807TIP3    H162912   3.678   1.981  11.650  1.8580  0.0172 -2.2702
13807TIP3    H262913   3.781   1.928  11.747 -0.1719 -0.1984 -0.1432
13808TIP3   OH262914   6.750   1.053  14.546 -0.7603 -0.6249 -0.0072
13808TIP3    H162915   6.842   1.037  14.524 -1.0978  0.6142 -2.7709
13808TIP3    H262916   6.750   1.139  14.586 -0.6230 -1.0758  0.9844
13809TIP3   OH262917   3.794   5.441   5.932 -0.1586 -0.2990 -0.1993
13809TIP3    H162918   3.808   5.408   5.843  0.3537 -1.3960  0.2764
13809TIP3    H262919   3.876   5.485   5.955  0.3135 -1.4328  0.3257
13810TIP3   OH262920   0.366   4.627  15.122  0.0707  0.0809  0.4155
13810TIP3    H162921   0.289   4.615  15.065 -0.2532  0.4605  0.7711
13810TIP3    H262922   0.388   4.720  15.113 -0.6706  0.4148  1.7623
13811TIP3   OH262923   1.686   1.758  11.701 -0.2652 -0.3185  0.3457
13811TIP3    H162924   1.623   1.718  11.642  0.7956 -0.6345 -0.6034
13811TIP3    H262925   1.635   1.822  11.751 -1.1916 -0.0502 -0.8992
13812TIP3   OH262926   3.107   2.831  14.667 -0.6862  0.6432  0.1657
13812TIP3    H162927   3.017   2.830  14.699 -1.2285  2.6802 -1.1373
13812TIP3    H262928   3.103   2.876  14.583  1.3453 -0.5762 -0.6856
13813TIP3   OH262929   1.557   2.912   1.523  0.3320  0.2139 -0.1995
13813TIP3    H162930   1.614   2.864   1.583  0.5169  0.3774 -0.2441
13813TIP3    H262931   1.533   2.992   1.570  0.3749  0.2825 -0.2934
13814TIP3   OH262932   6.551   2.474   3.219 -0.6152  0.2268 -0.1900
13814TIP3    H162933   6.613   2.407   3.192 -0.1246  0.4075  0.4419
13814TIP3    H262934   6.606   2.550   3.239 -1.1585  0.8282 -0.9034
13815TIP3   OH262935   4.958   3.455  16.719  0.4982  0.9431 -0.3346
13815TIP3    H162936   5.031   3.421  16.770  1.7623  0.0012 -2.6585
13815TIP3    H262937   4.993   3.533  16.676 -0.6287  1.8687  0.3403
13816TIP3   OH262938   0.092   5.229   0.399  0.1923  0.7306  0.3527
13816TIP3    H162939   0.023   5.267   0.454 -0.0325  0.1984  0.4424
13816TIP3    H262940   0.173   5.248   0.446 -0.1520 -1.8816  2.2066
13817TIP3   OH262941   6.385   6.377  16.787  0.0960  0.3925  0.2940
13817TIP3    H162942   6.381   6.430  16.708 -0.4274 -0.2542 -0.1305
13817TIP3    H262943   6.325   6.304  16.770  0.2873  0.0261  1.1222
13818TIP3   OH262944   0.650   6.474   5.895 -0.3342 -0.6107 -0.6305
13818TIP3    H162945   0.736   6.516   5.892 -0.5266 -0.1071  0.3154
13818TIP3    H262946   0.637   6.454   5.988 -1.3524 -0.4408 -0.7236
13819TIP3   OH262947   5.561   5.308  13.628 -0.2729 -0.5067  0.3847
13819TIP3    H162948   5.528   5.355  13.551  1.6797 -1.7070 -1.2714
13819TIP3    H262949   5.501   5.233  13.638 -2.3022  1.1797  1.9408
13820TIP3   OH262950   4.506   4.527   3.548  0.0770 -0.1544 -0.3430
13820TIP3    H162951   4.490   4.523   3.453  2.8373 -0.7242 -0.8691
13820TIP3    H262952   4.493   4.619   3.571 -0.8120 -0.0458 -1.2284
13821TIP3   OH262953   5.390   1.379  14.872 -0.0939 -0.1851 -0.0594
13821TIP3    H162954   5.402   1.464  14.829  1.2472 -0.1067  0.4172
13821TIP3    H262955   5.300   1.353  14.850  0.2022  0.2926 -2.1088
13822TIP3   OH262956   6.763   3.756   5.327  0.4844  0.1513  0.0427
13822TIP3    H162957   6.741   3.766   5.234  2.1854 -0.0996 -0.4331
13822TIP3    H262958   6.701   3.692   5.360  0.2541 -0.2284 -1.0909
13823TIP3   OH262959   1.936   4.287   3.874 -0.1561 -0.1633 -0.2800
13823TIP3    H162960   1.920   4.355   3.940 -0.3284  1.1190 -1.5796
13823TIP3    H262961   1.986   4.332   3.806 -1.1782 -1.0647 -1.6624
13824TIP3   OH262962   1.959   0.118   1.278  0.5010  0.2410  0.1562
13824TIP3    H162963   1.947   0.209   1.250  1.1155  0.1273 -0.5061
13824TIP3    H262964   1.978   0.125   1.372 -3.2824  0.5075  1.0694
13825TIP3   OH262965   4.778   4.359  16.702 -0.1906  0.3664  0.5726
13825TIP3    H162966   4.854   4.372  16.759  0.8065  0.8129 -0.7831
13825TIP3    H262967   4.715   4.425  16.731  1.1762  2.1192 -0.2178
13826TIP3   OH262968   4.047   5.781   2.521  0.1657 -0.2546  0.0764
13826TIP3    H162969   4.064   5.687   2.533 -1.3637 -0.7305 -1.0803
13826TIP3    H262970   4.104   5.806   2.448  0.8060 -0.2094  0.5925
13827TIP3   OH262971   4.222   0.723   2.957 -0.4798  0.0520  0.0189
13827TIP3    H162972   4.147   0.780   2.944  1.7362  3.1730 -0.2517
13827TIP3    H262973   4.227   0.712   3.052  0.0270  1.8502  0.2321
13828TIP3   OH262974   5.059   4.461  13.574  0.3655  0.0361 -0.5178
13828TIP3    H162975   4.971   4.479  13.542  0.6532  1.6608 -0.4809
13828TIP3    H262976   5.095   4.397  13.511 -0.5199  0.0280 -1.0266
13829TIP3   OH262977   1.247   6.398  13.804  0.0432  0.1490  0.4478
13829TIP3    H162978   1.248   6.307  13.833  3.3227  0.1344  0.6320
13829TIP3    H262979   1.171   6.436  13.848 -0.0363 -1.9172  2.2773
13830TIP3   OH262980   3.406   1.737  15.452 -0.5195  0.0195  0.1199
13830TIP3    H162981   3.460   1.791  15.394 -1.2061  0.5551 -0.0345
13830TIP3    H262982   3.428   1.647  15.429 -0.1415  0.2293 -0.3536
13831TIP3   OH262983   3.312   6.668   3.471  0.0104 -0.5721  0.4133
13831TIP3    H162984   3.385   6.718   3.434  0.9007 -1.7450  0.5407
13831TIP3    H262985   3.234   6.720   3.450  0.8718  0.7074  0.2879
13832TIP3   OH262986   1.014   5.667   2.988 -0.1901  0.2739  0.0854
13832TIP3    H162987   0.989   5.581   2.954 -0.4167  0.7288 -0.9386
13832TIP3    H262988   1.090   5.692   2.936 -2.2401  2.2303 -2.1552
13833TIP3   OH262989   4.463   6.725   4.097  0.1509  0.2220  0.4791
13833TIP3    H162990   4.394   6.664   4.123  0.2033 -0.3540 -0.6777
13833TIP3    H262991   4.442   6.806   4.144 -1.3713  0.0877  0.0930
13834TIP3   OH262992   4.049   4.430   4.730 -0.3375 -0.1745 -0.4532
13834TIP3    H162993   4.092   4.509   4.697 -0.4019 -0.8894 -2.3697
13834TIP3    H262994   4.033   4.377   4.652 -1.1930 -1.6527  0.6745
13835TIP3   OH262995   0.920   2.017  13.234  0.1145  0.2516 -0.5706
13835TIP3    H162996   0.921   2.102  13.277  1.9394  0.6579 -1.3326
13835TIP3    H262997   0.848   1.970  13.276  1.1034  0.9958  2.1327
13836TIP3   OH262998   2.396   0.577   4.300  0.9339  0.0491 -0.3129
13836TIP3    H162999   2.378   0.510   4.235  1.1505 -1.0044  0.6883
13836TIP3    H263000   2.375   0.536   4.384 -1.7170  2.1661  0.1855
13837TIP3   OH263001   1.949   4.180  11.236  0.0676  0.1578  0.2444
13837TIP3    H163002   1.953   4.238  11.160  1.0003  0.6040  0.6219
13837TIP3    H263003   1.903   4.232  11.302  0.8952  0.4810  0.5792
13838TIP3   OH263004   0.955   0.570   4.634 -0.5450  0.2125 -0.4844
13838TIP3    H163005   1.025   0.518   4.674 -1.6421 -0.8130  0.1329
13838TIP3    H263006   0.939   0.640   4.697 -1.4113 -0.6821  0.3030
13839TIP3   OH263007   3.525   1.359  11.663  0.6623  0.1628  0.1283
13839TIP3    H163008   3.547   1.426  11.727  0.1500 -0.3244  0.8241
13839TIP3    H263009   3.431   1.369  11.648  0.6831 -0.0527 -0.1644
13840TIP3   OH263010   5.420   1.711   4.956  0.6202 -0.2734 -0.1016
13840TIP3    H163011   5.440   1.804   4.945  1.8865 -0.6942 -1.6221
13840TIP3    H263012   5.481   1.681   5.023 -0.5850  0.1957  1.2753
13841TIP3   OH263013   5.007   2.389   4.246  0.1020 -0.0533 -0.0839
13841TIP3    H163014   5.063   2.449   4.198  0.6498 -0.5548 -0.0883
13841TIP3    H263015   5.067   2.339   4.302 -0.5531  0.7332  1.3687
13842TIP3   OH263016   2.271   2.102  16.869  0.0886  0.2074  0.3914
13842TIP3    H163017   2.249   2.119  16.961 -1.1978 -2.0149  0.5641
13842TIP3    H263018   2.360   2.068  16.872 -0.3211 -0.8492  0.9617
13843TIP3   OH263019   2.719   5.773   4.665 -0.0985 -0.0818 -0.0689
13843TIP3    H163020   2.710   5.730   4.750 -1.0841 -1.2695 -0.7378
13843TIP3    H263021   2.726   5.701   4.602 -1.3260  0.7135 -1.1872
13844TIP3   OH263022   0.244   2.581   3.299  0.0688  0.1412  0.2791
13844TIP3    H163023   0.226   2.555   3.209 -0.3988 -2.2024  0.9638
13844TIP3    H263024   0.158   2.607   3.334  0.4459  2.2906 -0.2415
13845TIP3   OH263025   1.194   1.252  11.954  0.6998  0.4592  0.5910
13845TIP3    H163026   1.218   1.161  11.964  2.3120  0.7359 -0.4541
13845TIP3    H263027   1.203   1.289  12.042  0.2925 -0.3132  0.9667
13846TIP3   OH263028   5.364   1.944  11.296 -0.7755  0.4115 -0.2258
13846TIP3    H163029   5.372   1.985  11.382  0.0984  0.5436 -0.3545
13846TIP3    H263030   5.454   1.938  11.264 -1.0712  0.2141 -1.0627
13847TIP3   OH263031   5.530   5.115  12.427 -0.1634  0.4492 -0.1927
13847TIP3    H163032   5.453   5.069  12.462 -0.0172 -0.9554 -1.6021
13847TIP3    H263033   5.604   5.064  12.459  0.2654  1.9928  1.4382
13848TIP3   OH263034   4.349   4.423  14.494 -0.1679 -0.0757 -0.2055
13848TIP3    H163035   4.292   4.347  14.483  1.5636 -1.6053  0.7936
13848TIP3    H263036   4.343   4.445  14.586 -1.5735  1.8278 -0.7058
13849TIP3   OH263037   5.783   5.032   2.061 -0.1902  0.2275 -0.5905
13849TIP3    H163038   5.800   5.066   2.148 -1.3539  0.4299 -0.4338
13849TIP3    H263039   5.869   5.032   2.018  0.5381 -0.6019  0.7900
13850TIP3   OH263040   3.119   5.536  11.520  0.2161 -0.2252 -0.2414
13850TIP3    H163041   3.148   5.523  11.611 -0.4047 -2.6004 -0.3022
13850TIP3    H263042   3.198   5.525  11.468  0.2404 -0.8997 -0.0774
13851TIP3   OH263043   0.810   4.365   4.934 -0.2835 -0.0289  0.0016
13851TIP3    H163044   0.827   4.404   4.848  0.2933 -0.9591 -0.3244
13851TIP3    H263045   0.895   4.335   4.965 -0.6022 -0.4118  0.5371
13852TIP3   OH263046   2.385   2.439   1.157  0.0656 -0.4796 -0.4121
13852TIP3    H163047   2.345   2.353   1.170 -1.7106  0.3614  0.0406
13852TIP3    H263048   2.437   2.430   1.078 -2.5404 -1.1936 -2.1895
13853TIP3   OH263049   6.231   5.641   6.052  0.1851  0.7462 -0.4648
13853TIP3    H163050   6.156   5.598   6.092 -1.3302  2.6596 -1.0561
13853TIP3    H263051   6.270   5.692   6.123 -0.1951  1.1454 -0.5312
13854TIP3   OH263052   5.490   3.094   3.927 -0.4537 -0.6822 -0.4146
13854TIP3    H163053   5.452   3.164   3.981  0.6789 -2.5042  3.0822
13854TIP3    H263054   5.441   3.016   3.952  1.1469 -1.8882 -0.8926
13855TIP3   OH263055   1.401   3.343   4.354 -0.0843 -0.1572  0.6422
13855TIP3    H163056   1.312   3.336   4.319  0.5359  1.1282 -1.3470
13855TIP3    H263057   1.417   3.437   4.361  1.2191 -0.3627  0.6606
13856TIP3   OH263058   3.994   1.257  14.641 -0.2463  0.0011 -0.2555
13856TIP3    H163059   3.973   1.176  14.594 -0.6742  0.0204 -0.1018
13856TIP3    H263060   3.958   1.244  14.729 -0.2955  0.3481 -0.2217
13857TIP3   OH263061   0.648   2.508  12.943 -0.0623 -0.4000 -0.3947
13857TIP3    H163062   0.618   2.460  12.866 -1.2852 -0.8865  0.3510
13857TIP3    H263063   0.702   2.579  12.908 -1.7869  0.2791 -1.7850
13858TIP3   OH263064   3.821   6.237   0.116 -0.3184  0.0974 -0.7628
13858TIP3    H163065   3.748   6.251   0.057 -1.0619  1.8911  0.4819
13858TIP3    H263066   3.816   6.145   0.140 -2.6856  0.3451 -0.0893
13859TIP3   OH263067   0.882   4.631   4.005 -0.2909 -0.1074  0.0625
13859TIP3    H163068   0.891   4.657   4.097  0.0997 -0.1361  0.0338
13859TIP3    H263069   0.901   4.711   3.955 -1.3349  0.1243  0.0197
13860TIP3   OH263070   2.702   5.207   1.081 -0.5255  0.1631  0.1527
13860TIP3    H163071   2.762   5.281   1.092  0.2700 -0.8379  4.1972
13860TIP3    H263072   2.624   5.245   1.040  0.7086  2.6901 -0.0745
13861TIP3   OH263073   1.068   4.821  10.538 -0.0720 -0.0854  0.3237
13861TIP3    H163074   1.145   4.766  10.547  0.8329  1.1163  0.1810
13861TIP3    H263075   1.095   4.907  10.571 -1.4688  0.2704  0.6438
13862TIP3   OH263076   0.361   5.142   2.589  0.5084  0.7668 -0.2205
13862TIP3    H163077   0.313   5.092   2.524 -0.5056 -0.5757  1.4825
13862TIP3    H263078   0.436   5.178   2.541 -0.3702  0.1293 -2.1733
13863TIP3   OH263079   1.770   4.706   1.632  0.0350 -0.0437  0.2992
13863TIP3    H163080   1.834   4.771   1.662 -0.4785  0.7710 -0.3172
13863TIP3    H263081   1.806   4.622   1.661  0.1385  0.5917  2.1639
13864TIP3   OH263082   3.652   4.574   0.226 -0.4378 -0.4483 -0.4995
13864TIP3    H163083   3.710   4.522   0.169  0.1095 -1.0625  0.5802
13864TIP3    H263084   3.643   4.521   0.305 -0.7685  0.6128  0.1956
13865TIP3   OH263085   2.640   4.235   6.138  0.3027 -0.0764  0.7217
13865TIP3    H163086   2.671   4.148   6.163  0.0524 -0.3224  0.2019
13865TIP3    H263087   2.719   4.284   6.118  0.3511 -0.8973 -1.2494
13866TIP3   OH263088   4.755   2.427   2.492  0.2430  0.0921  0.5223
13866TIP3    H163089   4.666   2.429   2.459 -0.4568 -1.0860  2.1936
13866TIP3    H263090   4.787   2.517   2.481 -0.7211  0.2536 -1.1489
13867TIP3   OH263091   0.223   2.189  14.057 -0.2179 -0.5151  0.0289
13867TIP3    H163092   0.155   2.254  14.076 -1.5532 -1.6100 -0.8661
13867TIP3    H263093   0.191   2.142  13.980  1.8044 -0.7460 -0.7197
13868TIP3   OH263094   4.521   3.075  15.086 -0.1783 -0.7125  0.1010
13868TIP3    H163095   4.481   2.989  15.097 -1.8572 -0.1395 -1.1723
13868TIP3    H263096   4.476   3.131  15.150  0.4900 -0.6357  0.5146
13869TIP3   OH263097   6.311   6.499  14.343  0.2321 -0.1835  0.6926
13869TIP3    H163098   6.234   6.442  14.350 -0.1897  0.0449 -1.2338
13869TIP3    H263099   6.386   6.440  14.349 -0.1614 -0.7257  0.3597
13870TIP3   OH263100   2.291   6.207  14.332  0.5543  0.0125 -0.0394
13870TIP3    H163101   2.241   6.125  14.339  2.0171 -0.9995 -0.8545
13870TIP3    H263102   2.318   6.211  14.240 -1.7463  2.8440 -0.7187
13871TIP3   OH263103   3.804   2.774  15.649 -0.5105  0.0781  0.0464
13871TIP3    H163104   3.831   2.861  15.680  1.1126  0.1700 -1.4825
13871TIP3    H263105   3.874   2.716  15.676 -1.0001 -0.5495 -0.0166
13872TIP3   OH263106   6.289   6.329  12.432 -0.3512 -0.1537  0.1917
13872TIP3    H163107   6.211   6.358  12.478  0.2200  2.3765 -0.2973
13872TIP3    H263108   6.257   6.263  12.370 -2.0237  0.4769  0.3365
13873TIP3   OH263109   3.988   0.925   4.949  0.6853  0.4653  0.0264
13873TIP3    H163110   3.933   0.868   4.896 -0.6442  0.1923  1.6150
13873TIP3    H263111   3.976   1.012   4.911  0.6746  0.1087 -0.8120
13874TIP3   OH263112   3.178   0.305   4.005  0.1756 -0.1502  0.1377
13874TIP3    H163113   3.254   0.278   4.055  0.7354 -1.2654 -1.2746
13874TIP3    H263114   3.199   0.284   3.914 -1.1026  1.1494 -0.5082
13875TIP3   OH263115   2.773   2.522   0.805 -1.3746 -0.6459 -0.0777
13875TIP3    H163116   2.740   2.505   0.717  1.1498 -1.8157 -0.8847
13875TIP3    H263117   2.812   2.609   0.800 -1.4931 -0.5866 -0.0029
13876TIP3   OH263118   5.823   2.372  11.511  0.2772 -0.7401 -0.4245
13876TIP3    H163119   5.866   2.396  11.593 -1.7171  1.9690 -0.0285
13876TIP3    H263120   5.742   2.328  11.539 -0.1801 -0.2271 -0.9217
13877TIP3   OH263121   3.947   6.303   5.322 -0.2525  0.3335  0.4691
13877TIP3    H163122   3.952   6.341   5.235 -0.5308  0.9821  0.7295
13877TIP3    H263123   3.862   6.331   5.356 -0.3712 -0.3570  0.7453
13878TIP3   OH263124   5.866   1.099   4.438  0.1395  0.0811  0.4607
13878TIP3    H163125   5.925   1.070   4.369  1.3141 -0.1687  1.5242
13878TIP3    H263126   5.793   1.037   4.436  2.2074 -2.6591  2.1803
13879TIP3   OH263127   4.130   5.124  14.025 -0.6202 -0.1281 -0.4279
13879TIP3    H163128   4.162   5.058  13.964 -1.4702  0.0684 -1.1137
13879TIP3    H263129   4.129   5.205  13.973 -0.3290  0.2627  0.1683
13880TIP3   OH263130   5.724   5.429   4.711  0.1820 -0.2483  0.0198
13880TIP3    H163131   5.819   5.445   4.707  0.3514 -1.2814 -0.7045
13880TIP3    H263132   5.717   5.338   4.738 -0.5938 -0.3268 -0.4219
13881TIP3   OH263133   2.111   4.577  17.187 -0.2237  0.4921 -0.2408
13881TIP3    H163134   2.170   4.653  17.181  1.7054 -1.0388 -2.3794
13881TIP3    H263135   2.055   4.584  17.110 -1.3244  0.6965  0.5568
13882TIP3   OH263136   2.119   4.815  15.885  0.1635  0.3944  0.4549
13882TIP3    H163137   2.210   4.846  15.885  0.8483 -1.4371 -1.3638
13882TIP3    H263138   2.084   4.842  15.800  0.6277 -3.0537 -1.0005
13883TIP3   OH263139   0.844   5.752   1.077 -0.3008  0.2106 -0.2811
13883TIP3    H163140   0.863   5.662   1.050  1.6268  0.4244  0.2186
13883TIP3    H263141   0.860   5.752   1.171 -2.1808  0.6468  0.0774
13884TIP3   OH263142   0.780   0.911  11.312 -0.6288 -0.1602 -0.1044
13884TIP3    H163143   0.774   0.987  11.254  1.6720 -0.5550 -0.9616
13884TIP3    H263144   0.737   0.840  11.264 -0.4870 -0.0051 -0.4627
13885TIP3   OH263145   3.648   2.401  15.535  1.0166  0.0360 -0.4266
13885TIP3    H163146   3.592   2.332  15.500  0.0465  0.3373  0.5006
13885TIP3    H263147   3.693   2.360  15.609  0.0708  0.5097  0.4352
13886TIP3   OH263148   3.279   1.252   0.431  0.6039  0.1289 -0.6351
13886TIP3    H163149   3.192   1.283   0.405  0.4804 -0.0599 -0.4479
13886TIP3    H263150   3.320   1.327   0.473 -1.5604 -1.1348  4.6008
13887TIP3   OH263151   3.297   3.815   5.610  0.0304 -0.3200 -0.1093
13887TIP3    H163152   3.216   3.862   5.630  0.2021 -0.8286  1.9562
13887TIP3    H263153   3.275   3.723   5.625  1.6035 -0.3003  3.0513
13888TIP3   OH263154   0.715   4.320   0.413  0.2261 -0.1989 -0.5484
13888TIP3    H163155   0.672   4.373   0.345  1.6719  0.0743 -1.2773
13888TIP3    H263156   0.642   4.277   0.458 -0.7778 -1.0093 -2.7729
13889TIP3   OH263157   0.146   2.598   4.863 -0.3006  0.0163 -0.9649
13889TIP3    H163158   0.240   2.580   4.863 -0.0508  0.9487  1.2738
13889TIP3    H263159   0.106   2.517   4.895  0.4296  1.3383  4.4266
13890TIP3   OH263160   6.486   1.607   6.131 -0.1911 -0.5459 -0.2692
13890TIP3    H163161   6.432   1.619   6.209  0.1915  1.0329 -0.2160
13890TIP3    H263162   6.569   1.572   6.164 -0.2970 -0.5975 -0.0584
13891TIP3   OH263163   1.068   6.553  11.785 -0.1159 -0.1157 -0.4746
13891TIP3    H163164   1.058   6.492  11.712 -0.4614 -0.0193 -0.5090
13891TIP3    H263165   1.132   6.616  11.754  1.3817 -1.2907  0.1059
13892TIP3   OH263166   5.077   5.226  15.278 -0.4318  0.3208 -0.3812
13892TIP3    H163167   4.994   5.207  15.235 -0.9549  1.1686  0.2116
13892TIP3    H263168   5.143   5.187  15.222 -1.1592  0.6473 -1.4945
13893TIP3   OH263169   4.763   2.099  16.331  0.2723 -0.5721  0.3359
13893TIP3    H163170   4.695   2.104  16.264 -0.1697 -0.7833  0.7648
13893TIP3    H263171   4.725   2.142  16.408  0.3901 -1.2098  0.7630
13894TIP3   OH263172   2.613   1.924   4.185  0.3431  0.1241  0.1768
13894TIP3    H163173   2.687   1.878   4.146  0.7489  0.6996  0.2502
13894TIP3    H263174   2.653   1.983   4.249  0.1277  2.6309 -1.8351
13895TIP3   OH263175   1.080   4.473   2.188 -0.0105 -0.5074 -0.5135
13895TIP3    H163176   1.039   4.445   2.269  2.5668 -0.9160  0.7399
13895TIP3    H263177   1.057   4.405   2.125 -0.8262 -0.9509  0.2357
13896TIP3   OH263178   4.776   3.031  17.228  0.0934 -0.1523 -0.3737
13896TIP3    H163179   4.847   3.064  17.283 -0.1198  0.7875 -0.6453
13896TIP3    H263180   4.728   2.971  17.285  0.0514  0.5825  0.3818
13897TIP3   OH263181   1.639   3.231   0.383  0.0346 -0.0654 -0.2979
13897TIP3    H163182   1.597   3.306   0.341  0.8438  0.5249 -0.0502
13897TIP3    H263183   1.655   3.170   0.310  0.0909  0.3257 -0.6138
13898TIP3   OH263184   1.540   1.581  12.627 -0.2489 -0.3167 -0.0035
13898TIP3    H163185   1.568   1.583  12.536 -1.3449 -0.6044 -0.3602
13898TIP3    H263186   1.621   1.573  12.677  0.4826  1.2972 -0.8625
13899TIP3   OH263187   4.046   2.162   5.242  0.0562 -0.6002 -0.7453
13899TIP3    H163188   3.963   2.114   5.242 -1.0115  1.1628 -0.2728
13899TIP3    H263189   4.109   2.099   5.277 -1.3298 -1.5953  0.0835
13900TIP3   OH263190   3.344   1.530   1.081  0.3006 -0.3822 -0.8497
13900TIP3    H163191   3.365   1.441   1.110 -0.5598 -0.1888  0.3859
13900TIP3    H263192   3.372   1.587   1.153 -0.8315  0.2016 -0.8565
13901TIP3   OH263193   4.666   4.516  13.911 -0.5167 -0.1537 -0.2620
13901TIP3    H163194   4.731   4.524  13.981 -0.4665 -0.1062 -0.3141
13901TIP3    H263195   4.585   4.550  13.949 -0.4734 -0.0642 -0.2487
13902TIP3   OH263196   0.748   2.707   5.950 -0.1235 -0.0666  0.1188
13902TIP3    H163197   0.804   2.721   5.874  1.3450  0.1604  1.1919
13902TIP3    H263198   0.782   2.628   5.991 -1.8670 -1.0545 -0.2608
13903TIP3   OH263199   5.936   0.974  15.692  0.6023 -0.2410  0.5170
13903TIP3    H163200   5.891   0.916  15.631 -0.4782 -0.6271  1.6348
13903TIP3    H263201   5.931   1.060  15.652  1.6784 -0.7747 -0.8694
13904TIP3   OH263202   0.665   0.959  14.225 -0.8845  0.2136  0.2814
13904TIP3    H163203   0.749   0.949  14.270 -0.3665  2.1273 -0.1586
13904TIP3    H263204   0.677   0.916  14.140 -1.0392 -1.2197  0.9484
13905TIP3   OH263205   1.312   2.231   6.124  0.3568 -0.1758 -0.6896
13905TIP3    H163206   1.252   2.305   6.118 -0.2817 -0.4366  1.5329
13905TIP3    H263207   1.387   2.257   6.071 -0.8393  1.0288 -1.8730
13906TIP3   OH263208   3.950   1.208  14.912 -0.1315  0.0866 -0.7715
13906TIP3    H163209   3.952   1.286  14.966  2.3817  0.4854 -1.3084
13906TIP3    H263210   3.976   1.137  14.970 -1.2939 -0.1860 -0.5588
13907TIP3   OH263211   0.204   2.402  15.993 -0.1563  0.2822 -0.5278
13907TIP3    H163212   0.188   2.314  15.961 -0.5991  0.2716 -0.2965
13907TIP3    H263213   0.181   2.398  16.086  1.5253  0.2016 -0.0969
13908TIP3   OH263214   0.845   0.633   0.307 -0.7885  1.0559 -0.1645
13908TIP3    H163215   0.855   0.631   0.402  1.3986  0.4455 -0.3539
13908TIP3    H263216   0.787   0.708   0.291  0.6995  2.6686  1.5290
13909TIP3   OH263217   4.566   3.341  12.614 -0.1382  0.1600  0.3245
13909TIP3    H163218   4.486   3.298  12.643 -0.7164  1.5254  0.8455
13909TIP3    H263219   4.580   3.411  12.678 -0.1414  1.7777 -1.3662
13910TIP3   OH263220   2.116   1.700  16.657  0.1488 -0.0191  0.1084
13910TIP3    H163221   2.091   1.620  16.703 -0.7605 -1.3909 -2.5451
13910TIP3    H263222   2.036   1.753  16.656 -0.1882 -0.5219 -0.8499
13911TIP3   OH263223   6.007   6.745  14.321 -0.1272 -0.4557  0.1566
13911TIP3    H163224   6.051   6.758  14.405 -1.5717  0.0116  0.8721
13911TIP3    H263225   5.932   6.805  14.324 -1.0093 -1.4666 -0.8698
13912TIP3   OH263226   0.919   3.643   0.607  0.6829  0.3787  0.6347
13912TIP3    H163227   0.913   3.563   0.659 -1.6418 -0.7953 -1.2135
13912TIP3    H263228   1.012   3.661   0.600  1.3160 -2.5059  0.6631
13913TIP3   OH263229   2.043   1.638  17.184  0.1121  0.3740 -0.4769
13913TIP3    H163230   2.050   1.622  17.090 -1.6011  0.7176 -0.6842
13913TIP3    H263231   2.023   1.553  17.222  0.2911  0.3309 -0.4777
13914TIP3   OH263232   5.028   4.267   4.527  0.0482  0.0561 -0.1190
13914TIP3    H163233   5.074   4.287   4.445 -0.6283  1.7917 -0.1128
13914TIP3    H263234   4.953   4.325   4.527 -0.0437 -0.0062  1.6895
13915TIP3   OH263235   5.316   1.814   0.813 -0.1448  0.1835  0.0965
13915TIP3    H163236   5.221   1.811   0.809 -0.2815 -1.1715  2.2994
13915TIP3    H263237   5.341   1.729   0.851  2.0166  0.1347 -1.2462
13916TIP3   OH263238   2.827   3.577  15.850  0.0278 -0.2761 -0.7938
13916TIP3    H163239   2.885   3.594  15.924 -0.5677  0.3220 -0.4536
13916TIP3    H263240   2.859   3.495  15.813 -0.9238 -1.7338  1.3803
13917TIP3   OH263241   2.615   5.374   0.815 -0.6720 -0.0707 -0.2288
13917TIP3    H163242   2.587   5.452   0.766 -0.2129 -0.9002 -1.9125
13917TIP3    H263243   2.708   5.387   0.829 -0.9992  0.6644  1.4568
13918TIP3   OH263244   2.599   1.153  11.005 -0.1818 -0.3000  0.1586
13918TIP3    H163245   2.537   1.122  11.071  0.1548 -0.9053  0.1962
13918TIP3    H263246   2.555   1.138  10.921  0.8630 -3.1430 -0.0015
13919TIP3   OH263247   0.308   0.736   5.659 -0.1697 -0.9798 -0.0483
13919TIP3    H163248   0.258   0.659   5.630 -0.8002 -0.3504 -0.6672
13919TIP3    H263249   0.399   0.712   5.644 -0.2015 -2.3648  1.6080
13920TIP3   OH263250   3.434   2.349  16.775 -0.8640  0.2167 -0.5631
13920TIP3    H163251   3.492   2.421  16.751 -1.6347  1.5366  1.2797
13920TIP3    H263252   3.349   2.372  16.736 -0.4253 -1.3261 -2.6055
13921TIP3   OH263253   1.686   5.439  16.137 -0.6215 -0.4352  0.3829
13921TIP3    H163254   1.655   5.488  16.213  2.2632  1.2606  0.6021
13921TIP3    H263255   1.736   5.366  16.174  2.1023  1.2570  0.2745
13922TIP3   OH263256   3.576   0.687  11.827 -0.3938 -0.4811  0.1113
13922TIP3    H163257   3.570   0.647  11.740 -0.2643 -0.4562  0.0916
13922TIP3    H263258   3.641   0.756  11.818 -1.0894  0.1626 -0.0166
13923TIP3   OH263259   2.287   0.848   0.386 -0.0449 -0.1997  0.1792
13923TIP3    H163260   2.270   0.757   0.412 -0.0047 -0.2566  0.0092
13923TIP3    H263261   2.368   0.844   0.336 -0.2007 -0.1155 -0.0845
13924TIP3   OH263262   0.555   0.707  14.219 -0.0793  0.2010  0.0961
13924TIP3    H163263   0.523   0.789  14.257 -1.0022  0.1498 -0.5351
13924TIP3    H263264   0.596   0.733  14.137 -1.4631 -0.0670 -0.7165
13925TIP3   OH263265   6.456   1.795   0.659  0.0604 -0.1300  0.3860
13925TIP3    H163266   6.440   1.870   0.601 -0.0959  0.1842  0.8255
13925TIP3    H263267   6.370   1.756   0.673  0.2064 -0.6758 -0.2137
13926TIP3   OH263268   5.291   2.780   0.903 -0.1170 -0.0274 -0.0205
13926TIP3    H163269   5.377   2.799   0.943  0.9297 -3.1208 -0.5747
13926TIP3    H263270   5.267   2.694   0.936 -1.7399 -0.4091 -1.9757
13927TIP3   OH263271   4.128   0.993  16.818  0.3149 -0.0202 -0.4285
13927TIP3    H163272   4.174   1.076  16.824  1.2770 -0.4994 -0.8550
13927TIP3    H263273   4.153   0.946  16.898 -0.1760  0.0681 -0.2185
13928TIP3   OH263274   0.117   2.569   5.600  0.2779 -0.0435  0.3589
13928TIP3    H163275   0.163   2.509   5.660 -2.0998 -1.3871  0.9972
13928TIP3    H263276   0.142   2.656   5.630  1.2747 -0.6908  1.5485
13929TIP3   OH263277   4.407   2.101   2.572 -0.0903 -0.7534  0.1823
13929TIP3    H163278   4.392   2.043   2.497 -0.2992  0.6559 -0.9012
13929TIP3    H263279   4.502   2.113   2.574 -0.1920  0.6111 -1.0125
13930TIP3   OH263280   5.521   1.586   0.840 -0.4074 -0.0795 -0.0914
13930TIP3    H163281   5.531   1.635   0.758  0.7679 -1.6204 -0.9137
13930TIP3    H263282   5.571   1.506   0.827 -0.0841 -0.3254  2.2035
13931TIP3   OH263283   1.127   5.349  15.720  0.5533 -0.1196 -0.2107
13931TIP3    H163284   1.137   5.254  15.705 -0.9708 -0.3316 -0.0331
13931TIP3    H263285   1.118   5.357  15.815  0.0921  0.1315 -0.2742
13932TIP3   OH263286   2.295   3.008   1.066  0.3898 -0.4846  0.1375
13932TIP3    H163287   2.358   3.027   0.997 -0.4411  3.1844  0.1367
13932TIP3    H263288   2.219   2.973   1.020  0.4872  0.2597 -0.6224
13933TIP3   OH263289   2.477   4.910  15.547  0.1551 -0.1444  0.4435
13933TIP3    H163290   2.452   4.863  15.467 -0.9792  0.4621  0.4114
13933TIP3    H263291   2.468   4.844  15.617  2.7053 -1.1288 -0.0719
13934TIP3   OH263292   1.864   2.146   0.999  0.4070 -0.1594  0.1812
13934TIP3    H163293   1.857   2.231   1.042  0.7431 -0.2942  0.5120
13934TIP3    H263294   1.940   2.154   0.942  1.2954 -0.6701  1.2529
13935TIP3   OH263295   2.049   0.475  13.796 -0.0682  0.3391  0.1901
13935TIP3    H163296   2.087   0.422  13.727  1.9552  0.8852  0.8069
13935TIP3    H263297   2.047   0.417  13.873 -2.1965 -0.2306 -0.2326
13936TIP3   OH263298   5.262   3.360   1.425  0.7399  0.0971  0.3090
13936TIP3    H163299   5.234   3.312   1.503 -0.3114  0.6084  0.2670
13936TIP3    H263300   5.310   3.296   1.374  2.1270 -0.0495  1.7244
13937TIP3   OH263301   4.747   2.931  13.288 -0.1550  0.0308 -0.3982
13937TIP3    H163302   4.709   2.984  13.218 -1.7179  1.6265  1.5098
13937TIP3    H263303   4.786   2.995  13.348  0.5242 -1.2189  0.5536
13938TIP3   OH263304   2.233   3.608  12.711  0.2884  0.5291 -0.4995
13938TIP3    H163305   2.285   3.646  12.782  1.1658 -1.5259  0.0347
13938TIP3    H263306   2.148   3.652  12.718 -0.0067 -0.2686  2.5127
13939TIP3   OH263307   1.866   6.759   1.597  0.1250 -0.4653 -0.7548
13939TIP3    H163308   1.955   6.725   1.589  1.0851  1.6401  0.2455
13939TIP3    H263309   1.810   6.681   1.592  2.1484 -2.1923  1.2678
13940TIP3   OH263310   2.534   4.729  12.714  0.1031  0.2793 -0.5522
13940TIP3    H163311   2.611   4.764  12.669  2.4288 -2.6058  0.8816
13940TIP3    H263312   2.556   4.733  12.807 -1.0806 -1.4452 -0.1564
13941TIP3   OH263313   1.273   3.848  13.077 -0.1506  0.0335  0.2797
13941TIP3    H163314   1.322   3.798  13.011  0.8334  1.1754  0.1094
13941TIP3    H263315   1.261   3.786  13.149  0.7073 -0.5814 -0.0816
13942TIP3   OH263316   3.785   2.840   1.087 -0.2178 -0.5141 -0.3822
13942TIP3    H163317   3.799   2.757   1.042  0.8408  0.5723 -2.1635
13942TIP3    H263318   3.870   2.862   1.126 -0.5000 -0.2742  0.1192
13943TIP3   OH263319   4.720   2.691  16.548  0.3839 -0.1234 -0.0385
13943TIP3    H163320   4.807   2.712  16.514 -0.5169  0.1014 -2.3766
13943TIP3    H263321   4.677   2.776  16.557  0.7344 -0.1227  2.2797
13944TIP3   OH263322   0.008   4.138   0.736  0.5972 -0.9428 -0.6121
13944TIP3    H163323   0.089   4.124   0.785 -0.0048 -0.9309  0.4065
13944TIP3    H263324   0.024   4.094   0.652  0.7888 -3.0313  0.4444
13945TIP3   OH263325   1.908   3.078  11.265  0.1524 -0.2727 -0.4387
13945TIP3    H163326   1.839   3.119  11.214  0.4206  2.7755  1.3812
13945TIP3    H263327   1.979   3.063  11.203 -0.3711  1.1225 -1.4186
13946TIP3   OH263328   6.205   0.986  13.736 -0.4976 -0.2499 -0.1416
13946TIP3    H163329   6.216   0.951  13.647  0.5395  0.6755 -0.4100
13946TIP3    H263330   6.293   0.984  13.773 -0.5343  1.2583  0.1101
13947TIP3   OH263331   5.620   3.066   0.751  0.0547  0.6432  0.3718
13947TIP3    H163332   5.694   3.006   0.763 -0.4825 -0.1327 -0.0352
13947TIP3    H263333   5.643   3.116   0.672 -1.3618 -2.0790 -1.9702
13948TIP3   OH263334   3.738   1.650  17.033 -0.3183 -0.6646  0.7656
13948TIP3    H163335   3.827   1.676  17.059 -0.2726  1.4572 -1.1738
13948TIP3    H263336   3.730   1.559  17.063  2.3035 -0.7486  1.4863
13949TIP3   OH263337   5.135   1.570   5.205 -0.3940  0.5755  0.2239
13949TIP3    H163338   5.101   1.633   5.268 -0.6092  0.5245  0.1627
13949TIP3    H263339   5.170   1.498   5.258  1.8840  1.7109  0.3800
13950TIP3   OH263340   4.797   0.642   5.463  0.5087  0.2361 -0.7584
13950TIP3    H163341   4.808   0.723   5.512 -0.1865 -0.4698  0.6478
13950TIP3    H263342   4.880   0.629   5.418  1.0024  1.1824 -0.1480
13951TIP3   OH263343   0.799   1.753  13.785  0.7001  0.3110 -0.6390
13951TIP3    H163344   0.811   1.820  13.718 -0.9419  0.6784 -0.6171
13951TIP3    H263345   0.705   1.731  13.781  0.8722 -0.7800  0.4843
13952TIP3   OH263346   4.853   1.008  16.127  0.4410  0.0033 -0.5142
13952TIP3    H163347   4.873   1.066  16.200 -0.3285  0.1731 -0.4409
13952TIP3    H263348   4.869   1.061  16.049  0.0759  0.2042 -0.4522
13953TIP3   OH263349   5.308   2.812  11.411 -0.4390  0.0754 -0.1298
13953TIP3    H163350   5.348   2.890  11.449  0.2005 -0.0794 -0.4701
13953TIP3    H263351   5.216   2.819  11.434 -0.1959  0.3523  0.8161
13954TIP3   OH263352   1.502   0.261  15.338 -0.3513  0.1047 -0.5446
13954TIP3    H163353   1.430   0.308  15.380 -0.8922 -0.7566 -0.4800
13954TIP3    H263354   1.548   0.218  15.410  0.3354  0.7757 -0.5689
13955TIP3   OH263355   0.043   6.228   4.382 -0.0505  0.4542  0.1324
13955TIP3    H163356   0.055   6.316   4.345 -2.5080  0.8228  0.0313
13955TIP3    H263357   0.100   6.172   4.330 -0.4974  1.5763 -1.6528
13956TIP3   OH263358   2.719   1.757  14.561 -0.0962  0.6183  0.4645
13956TIP3    H163359   2.639   1.717  14.526  0.9963  0.0528 -1.5768
13956TIP3    H263360   2.727   1.839  14.513 -0.2231  1.4306  1.7803
13957TIP3   OH263361   2.340   4.206   1.030 -0.3503 -0.2808  0.2668
13957TIP3    H163362   2.327   4.113   1.015  0.1457 -0.3174  0.0550
13957TIP3    H263363   2.434   4.216   1.042 -0.4232  0.1635  0.4950
13958TIP3   OH263364   0.629   3.160  14.804  0.4459  0.4409  0.0812
13958TIP3    H163365   0.622   3.070  14.773  0.2283  0.2608  0.6295
13958TIP3    H263366   0.544   3.178  14.845  1.5892 -0.3052  3.0445
13959TIP3   OH263367   0.045   0.259   5.503 -0.2119  0.3237 -0.7635
13959TIP3    H163368   0.118   0.209   5.467 -0.8598 -0.1810 -1.4043
13959TIP3    H263369   0.009   0.202   5.571  0.9119  1.2081  0.6345
13960TIP3   OH263370   3.868   5.674  12.333 -0.3840 -0.0672 -0.0631
13960TIP3    H163371   3.906   5.682  12.246 -1.7750 -0.0360 -0.6910
13960TIP3    H263372   3.906   5.593  12.369  1.0226  0.4827 -0.2397
13961TIP3   OH263373   5.073   4.066   3.139 -0.1345 -0.2705 -0.2615
13961TIP3    H163374   5.073   4.154   3.179 -2.3455  0.1812 -1.1432
13961TIP3    H263375   5.025   4.012   3.201  0.1287 -0.5760 -0.3217
13962TIP3   OH263376   1.568   3.649  13.816 -0.7979  0.0929  0.8344
13962TIP3    H163377   1.552   3.723  13.758 -1.4390  1.3270  2.5409
13962TIP3    H263378   1.648   3.609  13.782  0.5338  2.5754  0.8601
13963TIP3   OH263379   4.490   0.935   5.722 -0.0101 -0.6445 -0.2290
13963TIP3    H163380   4.427   0.896   5.782  0.4485 -0.5133  0.3411
13963TIP3    H263381   4.558   0.869   5.712  1.4729  0.4660  1.8153
13964TIP3   OH263382   5.249   0.884  15.002  0.1317  0.2450 -0.6223
13964TIP3    H163383   5.298   0.940  14.943 -0.4908 -0.0389 -1.4355
13964TIP3    H263384   5.206   0.944  15.063  1.9173  0.4713  0.4876
13965TIP3   OH263385   0.892   2.337   4.725  0.2662 -0.2185  0.0830
13965TIP3    H163386   0.942   2.419   4.725  1.9184 -1.1734  0.9070
13965TIP3    H263387   0.910   2.298   4.810  0.9137 -2.2390 -0.9069
13966TIP3   OH263388   4.318   0.878   1.128  0.0531  0.1805 -0.9539
13966TIP3    H163389   4.351   0.965   1.150 -0.0320 -0.1246  0.5170
13966TIP3    H263390   4.249   0.894   1.064 -1.0231  1.3561  0.4237
13967TIP3   OH263391   5.317   2.539  16.622 -0.2014 -0.2762  0.4364
13967TIP3    H163392   5.230   2.555  16.660 -1.0865  1.9942 -2.1873
13967TIP3    H263393   5.299   2.484  16.545  0.7576 -0.3026  0.2269
13968TIP3   OH263394   4.864   4.258   4.143  0.4420  0.6494  0.2624
13968TIP3    H163395   4.943   4.297   4.179  0.2030  0.1944  1.3054
13968TIP3    H263396   4.864   4.168   4.174  0.4846  0.0860 -1.3222
13969TIP3   OH263397   0.085   0.935  12.546 -0.3982 -0.0417  0.1783
13969TIP3    H163398   0.128   0.989  12.480  1.7970 -1.6126  0.2220
13969TIP3    H263399   0.089   0.988  12.626 -0.5094  0.6968 -0.2865
13970TIP3   OH263400   0.221   3.768  10.674 -0.2479 -0.8655 -0.7797
13970TIP3    H163401   0.160   3.756  10.746  0.2685 -0.8025 -0.3262
13970TIP3    H263402   0.233   3.863  10.667  0.6949 -0.9236 -0.0978
13971TIP3   OH263403   5.225   6.434   5.638 -0.2658  0.2369 -0.1883
13971TIP3    H163404   5.233   6.488   5.559  1.6321 -0.1496 -0.2989
13971TIP3    H263405   5.283   6.476   5.701 -1.2815  0.1678  0.8187
13972TIP3   OH263406   3.754   1.926  11.363  0.0647 -0.8982 -0.0291
13972TIP3    H163407   3.704   1.921  11.445 -0.9999 -0.5757 -0.6342
13972TIP3    H263408   3.807   2.004  11.371  1.8562 -2.1801  1.3539
13973TIP3   OH263409   1.687   5.174   1.580 -0.5133  0.1931  0.5025
13973TIP3    H163410   1.699   5.118   1.503 -0.3437  0.8588  0.0401
13973TIP3    H263411   1.724   5.258   1.554  0.3499  0.1741  1.6235
13974TIP3   OH263412   1.111   2.102  13.937  0.6434 -0.1876 -0.1734
13974TIP3    H163413   1.017   2.120  13.942  0.7250 -0.0698  3.4353
13974TIP3    H263414   1.151   2.169  13.993  2.7259 -1.2172 -0.3456
13975TIP3   OH263415   0.589   1.274  15.068  0.3535 -0.1489  0.4285
13975TIP3    H163416   0.623   1.363  15.065  3.8576 -1.3700 -1.2702
13975TIP3    H263417   0.659   1.220  15.032 -1.5001 -3.6697  1.6074
13976TIP3   OH263418   4.366   6.794   0.677 -0.0824 -0.5108 -0.2300
13976TIP3    H163419   4.328   6.869   0.722  2.4249  0.9538 -0.4002
13976TIP3    H263420   4.325   6.794   0.590 -0.9692 -0.0990  0.1757
13977TIP3   OH263421   1.937   3.063   1.375 -0.8176 -0.0307  0.4403
13977TIP3    H163422   1.909   2.973   1.359  0.2843 -0.2126 -0.6968
13977TIP3    H263423   1.938   3.103   1.288  0.1063  0.6367  0.7457
13978TIP3   OH263424   0.369   3.267   3.086 -0.2737  0.0375  0.3576
13978TIP3    H163425   0.302   3.200   3.075  0.3298 -0.4970 -0.1732
13978TIP3    H263426   0.422   3.261   3.006  0.7302  0.0774  0.9983
13979TIP3   OH263427   1.773   0.794  14.114 -0.2504  0.0576 -0.6074
13979TIP3    H163428   1.787   0.832  14.201 -1.7027  0.9528 -0.7338
13979TIP3    H263429   1.839   0.725  14.107  0.4604  0.5452  0.8526
13980TIP3   OH263430   3.984   0.403   3.104  0.4169 -0.1411 -0.0297
13980TIP3    H163431   4.045   0.368   3.168 -0.1475 -2.1750 -0.5380
13980TIP3    H263432   4.020   0.377   3.019  1.8298  3.5661 -0.7511
13981TIP3   OH263433   1.787   1.779   5.262 -0.2779  0.2445  0.2738
13981TIP3    H163434   1.755   1.754   5.349 -0.5664 -1.9702 -0.3953
13981TIP3    H263435   1.880   1.757   5.265 -0.5756 -1.2364 -0.3901
13982TIP3   OH263436   5.004   2.659   5.133  0.1221 -0.4509  0.4075
13982TIP3    H163437   5.055   2.740   5.131  1.0998 -0.9993  1.7608
13982TIP3    H263438   4.913   2.688   5.141  0.4898  0.5212  1.2979
13983TIP3   OH263439   4.767   0.533  12.597 -0.0270 -0.0662 -0.2878
13983TIP3    H163440   4.808   0.612  12.632  3.3471 -1.6567 -0.3232
13983TIP3    H263441   4.750   0.478  12.673 -0.2471 -0.2588 -0.4726
13984TIP3   OH263442   5.488   0.083  12.770  0.5222  0.3882  0.3756
13984TIP3    H163443   5.524   0.007  12.815 -0.3531  1.1796  2.5080
13984TIP3    H263444   5.554   0.151  12.779  0.4782  0.4628  0.1623
13985TIP3   OH263445   1.700   3.441  12.344  0.1924  0.1314 -0.3583
13985TIP3    H163446   1.683   3.382  12.417 -1.4322  0.2650 -0.5819
13985TIP3    H263447   1.782   3.410  12.306 -0.4584 -1.7848 -0.2890
13986TIP3   OH263448   1.460   1.307  11.243 -0.2258  0.4220 -0.2308
13986TIP3    H163449   1.502   1.393  11.242  0.0372  0.3383  1.1633
13986TIP3    H263450   1.367   1.326  11.238 -0.4388  1.0871  3.2078
13987TIP3   OH263451   2.972   0.960  11.749  0.2800 -0.5282 -0.0841
13987TIP3    H163452   3.005   0.982  11.836 -1.4555 -2.6227  1.1930
13987TIP3    H263453   3.008   1.028  11.692 -0.8797  2.6878  2.7148
13988TIP3   OH263454   1.202   3.871   1.991  0.2594 -0.0468 -0.6923
13988TIP3    H163455   1.124   3.858   2.045  0.0220  0.8603 -0.7968
13988TIP3    H263456   1.272   3.888   2.055  0.4578 -1.1866 -0.5829
13989TIP3   OH263457   3.672   3.635   0.645  0.2339 -0.0329  0.0289
13989TIP3    H163458   3.634   3.695   0.709  1.2172 -0.6168  1.1949
13989TIP3    H263459   3.715   3.692   0.581 -0.1109  0.5416  0.3005
13990TIP3   OH263460   4.460   6.413   6.631 -0.0767  0.0077 -0.4051
13990TIP3    H163461   4.537   6.370   6.668 -1.4209 -1.3399  0.9369
13990TIP3    H263462   4.496   6.484   6.577  2.0713 -0.2663  0.5693
13991TIP3   OH263463   1.251   4.138  14.367  0.0720  0.3788  0.5793
13991TIP3    H163464   1.268   4.211  14.426  2.0957  1.0496 -0.7161
13991TIP3    H263465   1.332   4.130  14.315  0.3904 -3.4404  1.3445
13992TIP3   OH263466   2.043   5.328   4.338 -0.4726  0.2157  0.4217
13992TIP3    H163467   2.015   5.418   4.353  0.9334  0.6622  0.4885
13992TIP3    H263468   2.034   5.285   4.423  0.5713  0.7943  0.8411
13993TIP3   OH263469   3.041   6.537   1.221  0.3076  0.0103  0.2019
13993TIP3    H163470   3.027   6.471   1.289 -1.0826  0.5128  0.4354
13993TIP3    H263471   2.953   6.564   1.195  0.8395  0.9910 -0.6632
13994TIP3   OH263472   2.595   5.117   1.640 -0.3881  0.1037 -0.0285
13994TIP3    H163473   2.541   5.146   1.714  0.0986  0.9519  0.0143
13994TIP3    H263474   2.685   5.130   1.671 -0.1132 -1.8927  0.1494
13995TIP3   OH263475   3.733   2.190   0.318 -0.1870 -0.1866 -0.8178
13995TIP3    H163476   3.813   2.138   0.318 -0.4331 -0.7198  1.8011
13995TIP3    H263477   3.757   2.272   0.360 -1.3072 -1.0931  1.8532
13996TIP3   OH263478   0.351   5.387   1.552 -0.2128  0.1431  0.1616
13996TIP3    H163479   0.256   5.396   1.550 -0.3691 -1.2597  0.0010
13996TIP3    H263480   0.384   5.468   1.513 -1.4142 -0.1521 -1.6297
13997TIP3   OH263481   1.736   5.920   4.409 -0.4477  0.3058 -0.0191
13997TIP3    H163482   1.831   5.911   4.408 -0.3744  0.9783  0.2291
13997TIP3    H263483   1.717   5.989   4.346 -0.6500  1.1310  0.9208
13998TIP3   OH263484   6.667   5.638   1.635  0.6382 -0.5413  0.3778
13998TIP3    H163485   6.576   5.608   1.629  1.3738 -3.2611  1.2687
13998TIP3    H263486   6.667   5.697   1.711 -0.4667 -0.0051 -0.0086
13999TIP3   OH263487   2.001   2.181   0.751 -0.0272 -0.1048  0.0134
13999TIP3    H163488   2.005   2.219   0.664  0.2755 -1.3616 -0.5519
13999TIP3    H263489   2.091   2.182   0.782 -0.1451  0.4075  0.3488
14000TIP3   OH263490   4.781   4.913   5.566 -0.0961  0.4864  0.1197
14000TIP3    H163491   4.821   4.841   5.616 -0.3266  0.3248  0.0722
14000TIP3    H263492   4.713   4.947   5.624  0.0231  0.6795  0.1489
14001TIP3   OH263493   3.127   1.887  15.755 -0.1608  0.0755 -0.2976
14001TIP3    H163494   3.213   1.885  15.713 -0.2589  0.3943 -0.5180
14001TIP3    H263495   3.071   1.833  15.699 -0.3182  0.5887 -0.6429
14002TIP3   OH263496   0.257   0.079  12.131  0.0105 -0.0178  0.7246
14002TIP3    H163497   0.265   0.174  12.136 -2.5323  0.2690  0.4917
14002TIP3    H263498   0.214   0.054  12.212 -1.5818 -0.6297 -0.2612
14003TIP3   OH263499   6.184   5.911  12.494 -0.0425 -0.1767 -0.1752
14003TIP3    H163500   6.191   5.942  12.584 -3.3897  2.6625 -0.6594
14003TIP3    H263501   6.274   5.912  12.461  0.8511  3.1724  1.8633
14004TIP3   OH263502   6.054   3.866   6.535 -0.2261 -0.2045  0.2858
14004TIP3    H163503   6.005   3.831   6.609 -2.0957  1.7308  0.0389
14004TIP3    H263504   6.074   3.789   6.481 -0.8533 -1.3415  1.6254
14005TIP3   OH263505   5.574   4.851  14.640  0.2932  0.8630  0.2102
14005TIP3    H163506   5.509   4.880  14.576 -0.1733  3.0576  1.5615
14005TIP3    H263507   5.527   4.791  14.697 -0.7307  2.6167  1.3270
14006TIP3   OH263508   6.765   4.512  12.285  0.1690 -0.4484  0.2528
14006TIP3    H163509   6.692   4.452  12.300  0.2620 -0.8005 -0.6238
14006TIP3    H263510   6.833   4.482  12.346  0.5234 -1.8191 -0.7489
14007TIP3   OH263511   4.650   4.869  12.975 -0.1584 -0.4319 -0.2763
14007TIP3    H163512   4.565   4.911  12.987 -0.7539 -1.8824  0.8654
14007TIP3    H263513   4.629   4.783  12.939  0.5388 -1.9681  2.7157
14008TIP3   OH263514   0.588   3.540  17.000  0.0614  0.1418 -0.1484
14008TIP3    H163515   0.534   3.551  16.922  0.4691 -1.2753 -0.6498
14008TIP3    H263516   0.564   3.614  17.056 -1.3370  0.3373 -0.9675
14009TIP3   OH263517   6.797   1.573   0.942 -0.5660 -0.4261 -0.1164
14009TIP3    H163518   6.882   1.590   0.983 -1.5563 -0.4407  2.0538
14009TIP3    H263519   6.786   1.646   0.881  1.1830 -0.6842 -0.8285
14010TIP3   OH263520   3.614   1.390   0.776  0.3499  0.4996 -0.3098
14010TIP3    H163521   3.637   1.402   0.683 -0.1114  0.0691 -0.4848
14010TIP3    H263522   3.551   1.460   0.794  0.7932  0.8722 -0.1895
14011TIP3   OH263523   0.690   2.519   3.342 -0.4773 -0.5023 -0.4715
14011TIP3    H163524   0.608   2.550   3.379  0.1721  0.2022  0.4220
14011TIP3    H263525   0.681   2.534   3.248 -1.8559 -1.6352 -0.5585
14012TIP3   OH263526   6.501   6.035   4.919  0.0845 -0.2594 -0.3859
14012TIP3    H163527   6.490   6.027   5.014 -0.4088  0.6628 -0.3551
14012TIP3    H263528   6.511   6.129   4.904  2.9412 -0.5650 -0.9694
14013TIP3   OH263529   3.961   4.237  17.002  1.0372  0.2344  0.4160
14013TIP3    H163530   3.898   4.284  16.948  0.5797  1.3346  1.8497
14013TIP3    H263531   4.038   4.294  17.006  0.6888  0.6456  1.7156
14014TIP3   OH263532   4.457   2.808  13.131  0.6679  0.1465  0.0237
14014TIP3    H163533   4.495   2.732  13.087  2.2497  0.5608  0.6175
14014TIP3    H263534   4.532   2.858  13.163 -0.3435  1.7819 -0.0340
14015TIP3   OH263535   2.138   6.207   3.291 -0.1668  0.3047 -0.3778
14015TIP3    H163536   2.073   6.137   3.281  1.3704 -1.4836  1.2612
14015TIP3    H263537   2.195   6.198   3.215  2.0660 -2.6671  1.4252
14016TIP3   OH263538   2.110   6.180  13.974 -0.2752  0.2612 -0.4774
14016TIP3    H163539   2.095   6.216  13.886  0.4744 -0.1404 -0.7826
14016TIP3    H263540   2.183   6.120  13.962  1.3108  1.8247  0.8370
14017TIP3   OH263541   6.049   1.764  12.766 -0.6859 -0.2147 -0.1892
14017TIP3    H163542   6.049   1.847  12.719 -1.5894 -0.0699  0.0504
14017TIP3    H263543   5.984   1.710  12.721 -0.3655 -0.6720 -0.1217
14018TIP3   OH263544   1.212   2.441  14.791  0.3115  0.0362 -0.0286
14018TIP3    H163545   1.229   2.475  14.878 -0.2329 -0.7680  0.4039
14018TIP3    H263546   1.121   2.464  14.773 -0.3736 -1.9821  0.6696
14019TIP3   OH263547   0.398   1.474   3.016 -0.0783  0.0382  0.0911
14019TIP3    H163548   0.442   1.532   2.954  2.9075 -2.0465  0.0398
14019TIP3    H263549   0.470   1.433   3.065 -2.1763 -1.1845  2.3635
14020TIP3   OH263550   5.243   0.219  10.915 -0.1258 -0.1623  0.1251
14020TIP3    H163551   5.268   0.141  10.965  2.8332  0.9906  0.6459
14020TIP3    H263552   5.274   0.201  10.826  1.1164  0.5762  0.3770
14021TIP3   OH263553   3.468   0.052   3.915 -1.0655  0.1454 -0.1647
14021TIP3    H163554   3.478   0.125   3.855  2.4061  0.0660  0.1455
14021TIP3    H263555   3.525  -0.017   3.880 -1.1575 -0.9352  1.6722
14022TIP3   OH263556   6.141   0.828   4.019  0.0587  0.0049  0.4384
14022TIP3    H163557   6.114   0.778   3.942 -0.3120  0.3375  0.3514
14022TIP3    H263558   6.236   0.838   4.009  0.1453 -0.7151  0.4779
14023TIP3   OH263559   1.142   4.531   5.176  0.1880  0.8198 -0.0967
14023TIP3    H163560   1.123   4.623   5.157 -0.6434  0.7900  0.5268
14023TIP3    H263561   1.157   4.529   5.271  1.2335  0.4767 -0.2552
14024TIP3   OH263562   2.389   3.454  16.182 -0.1910  0.1074 -0.5601
14024TIP3    H163563   2.295   3.466  16.165 -0.2707  0.9687  0.3913
14024TIP3    H263564   2.392   3.383  16.246 -0.1368 -0.4283 -1.1468
14025TIP3   OH263565   4.856   3.721  12.534 -0.2881 -0.7541 -0.0459
14025TIP3    H163566   4.863   3.797  12.476  1.7797 -0.4932  0.4582
14025TIP3    H263567   4.808   3.753  12.611  0.1978 -0.0640 -0.0222
14026TIP3   OH263568   5.552   0.793   6.303  0.1215 -0.8606 -0.3433
14026TIP3    H163569   5.638   0.816   6.339  0.2293 -0.4126 -0.8761
14026TIP3    H263570   5.499   0.872   6.313  0.3081 -0.5568 -1.6124
14027TIP3   OH263571   2.110   0.919   3.988  0.3214 -0.2193 -0.2290
14027TIP3    H163572   2.070   0.982   3.928  1.1043 -0.5001 -1.0784
14027TIP3    H263573   2.081   0.833   3.954 -3.4277 -0.4270  2.7540
14028TIP3   OH263574   2.541   1.474  12.285  0.1571  0.1880 -0.0206
14028TIP3    H163575   2.590   1.555  12.271  1.5132  0.3281  4.0673
14028TIP3    H263576   2.449   1.501  12.288  0.6489  2.0092  2.5608
14029TIP3   OH263577   3.261   3.647   2.886 -0.0497  0.1986 -0.3892
14029TIP3    H163578   3.280   3.683   2.973 -2.6289  1.7863 -0.3776
14029TIP3    H263579   3.294   3.713   2.825 -0.7841  0.4679 -0.5052
14030TIP3   OH263580   2.825   6.133  13.165 -0.3461  0.3372  0.2924
14030TIP3    H163581   2.799   6.175  13.083 -0.9723 -0.9427 -0.1867
14030TIP3    H263582   2.742   6.113  13.209 -0.0274  0.4425  0.9521
14031TIP3   OH263583   4.184   0.349   3.288  0.0184  0.0188 -0.3118
14031TIP3    H163584   4.175   0.407   3.363 -1.2823 -1.8586  1.0775
14031TIP3    H263585   4.237   0.276   3.320 -2.0179 -1.6822 -0.5897
14032TIP3   OH263586   2.528   2.395   0.919 -0.0425 -0.7691  0.4873
14032TIP3    H163587   2.480   2.475   0.897 -0.9595 -0.4753  3.1609
14032TIP3    H263588   2.612   2.404   0.874 -0.5884  1.1218 -0.2388
14033TIP3   OH263589   0.851   4.815  14.593 -0.1880 -0.2940 -0.1288
14033TIP3    H163590   0.815   4.806  14.681  0.6100 -0.6946  0.1664
14033TIP3    H263591   0.930   4.761  14.593  1.3970  1.8852 -0.2261
14034TIP3   OH263592   2.138   0.629  16.758  0.3862 -0.3436  0.3384
14034TIP3    H163593   2.077   0.617  16.831  0.9066  0.2918  0.8945
14034TIP3    H263594   2.090   0.684  16.696 -0.6946 -2.2355 -0.6165
14035TIP3   OH263595   5.304   6.752  10.972 -0.5718  0.0505 -0.4737
14035TIP3    H163596   5.353   6.680  11.012 -0.4994  0.5584  0.3834
14035TIP3    H263597   5.332   6.752  10.881  0.0579 -0.4836 -0.2909
14036TIP3   OH263598   4.873   3.609  15.701 -0.2974  0.6605 -0.3668
14036TIP3    H163599   4.780   3.590  15.687 -0.0571 -1.2045  0.3584
14036TIP3    H263600   4.910   3.526  15.730  2.0978  0.6834 -2.9243
14037TIP3   OH263601   2.392   5.398   3.011 -0.8144  0.0038  0.1174
14037TIP3    H163602   2.433   5.452   3.079 -0.4724  1.4522 -1.1994
14037TIP3    H263603   2.446   5.320   3.007  1.6687  1.6639 -1.2619
14038TIP3   OH263604   4.950   5.190   5.251  0.7264  0.2556 -0.3321
14038TIP3    H163605   4.969   5.281   5.230 -0.5384  0.9538  1.2916
14038TIP3    H263606   4.866   5.172   5.209  0.1944  0.3744  0.6424
14039TIP3   OH263607   3.536   1.431   1.715  0.6188 -0.4830  0.1432
14039TIP3    H163608   3.547   1.460   1.806  0.7457 -0.1536  0.0240
14039TIP3    H263609   3.531   1.335   1.721 -0.2007 -0.4275  0.5849
14040TIP3   OH263610   4.717   2.619   5.945 -0.5105  0.1399 -0.3553
14040TIP3    H163611   4.663   2.546   5.914 -0.6944  0.2171 -0.2172
14040TIP3    H263612   4.801   2.606   5.900 -0.3596 -0.4641  0.0835
14041TIP3   OH263613   6.403   2.557   0.792  0.1275 -0.0010 -0.5217
14041TIP3    H163614   6.389   2.549   0.886 -0.2254  1.3413 -0.4459
14041TIP3    H263615   6.497   2.576   0.783 -0.2482  2.1848 -0.2570
14042TIP3   OH263616   0.027   4.698   2.220  0.4513  0.1896  0.2655
14042TIP3    H163617   0.069   4.622   2.181 -0.0549  0.2921 -0.5019
14042TIP3    H263618   0.094   4.766   2.217  0.0670  0.5419 -1.5552
14043TIP3   OH263619   0.986   3.494   1.259  0.6846  0.1116 -0.4657
14043TIP3    H163620   0.901   3.537   1.247  1.8520  2.3690 -1.4064
14043TIP3    H263621   1.048   3.567   1.267  2.6020 -1.4550 -0.3918
14044TIP3   OH263622   5.381   4.630   5.218  0.2516 -0.1243 -0.1036
14044TIP3    H163623   5.304   4.665   5.263 -0.1831 -1.9540  0.6823
14044TIP3    H263624   5.349   4.607   5.131  0.1912  0.1012 -0.1429
14045TIP3   OH263625   2.842   4.849  14.148 -0.1723 -0.0735  0.6166
14045TIP3    H163626   2.795   4.928  14.122 -0.3970 -0.9574 -1.9365
14045TIP3    H263627   2.935   4.873  14.141 -0.2137 -0.3555 -1.4914
14046TIP3   OH263628   5.308   5.829  15.024 -0.1983  0.0234  0.3053
14046TIP3    H163629   5.366   5.759  15.055 -0.4064  0.2664  1.2535
14046TIP3    H263630   5.353   5.910  15.045 -0.0184  0.1886 -0.6777
14047TIP3   OH263631   1.957   4.336   5.958 -0.0289  0.0444 -0.1501
14047TIP3    H163632   2.034   4.370   5.914 -0.0119 -0.1539 -0.2756
14047TIP3    H263633   1.941   4.397   6.030 -0.5513  0.8575 -0.9290
14048TIP3   OH263634   6.062   6.372   3.501 -0.0135 -0.3947  0.0784
14048TIP3    H163635   6.152   6.381   3.470  0.0894 -0.1610  0.4485
14048TIP3    H263636   6.025   6.460   3.493 -0.2758 -0.5318 -0.2705
14049TIP3   OH263637   4.576   1.959   3.478  0.3241  0.3026 -0.2765
14049TIP3    H163638   4.639   2.016   3.524  0.7735 -0.2002 -0.2565
14049TIP3    H263639   4.508   2.019   3.448  0.8083  0.8650 -0.2894
14050TIP3   OH263640   4.675   1.173  14.521 -0.3879  0.1461 -0.4926
14050TIP3    H163641   4.595   1.215  14.554 -1.4492 -2.6368  0.9117
14050TIP3    H263642   4.746   1.212  14.572 -1.1296  1.1753 -0.2213
14051TIP3   OH263643   5.045   1.998   2.243 -0.0457  0.2753  0.2458
14051TIP3    H163644   5.074   2.079   2.202  0.5811 -0.4437 -0.7881
14051TIP3    H263645   4.970   2.023   2.297 -0.4375  1.3946 -0.7710
14052TIP3   OH263646   1.963   4.333  11.012  0.3540 -0.0669 -0.4551
14052TIP3    H163647   2.038   4.378  11.049 -0.6305  0.0423  1.5602
14052TIP3    H263648   1.928   4.394  10.947  0.4134  1.0821  0.5571
14053TIP3   OH263649   6.590   1.798   6.411 -0.2457  0.5049  0.1406
14053TIP3    H163650   6.685   1.795   6.399 -0.3205  1.9873 -1.1444
14053TIP3    H263651   6.578   1.785   6.505  1.0233 -2.3975 -0.0056
14054TIP3   OH263652   1.969   4.161  12.065 -0.2642  0.2479  0.4901
14054TIP3    H163653   2.034   4.200  12.007 -1.1554 -1.5306 -1.8948
14054TIP3    H263654   2.014   4.149  12.148  1.5452  1.5589 -0.2349
14055TIP3   OH263655   0.694   4.335   0.107 -0.2699  0.1339  1.0227
14055TIP3    H163656   0.768   4.277   0.125 -0.0861  0.2832  0.7690
14055TIP3    H263657   0.699   4.402   0.176  0.3220  0.6030  0.5447
14056TIP3   OH263658   1.345   3.858  13.694  0.5435 -0.2824  0.2726
14056TIP3    H163659   1.385   3.941  13.668 -0.5204  0.5336  1.1447
14056TIP3    H263660   1.357   3.855  13.789  1.3708 -1.5772  0.1466
14057TIP3   OH263661   4.106   0.981  16.129  0.2255  0.1708  0.3224
14057TIP3    H163662   4.042   0.910  16.124  0.8124 -0.2760 -1.6920
14057TIP3    H263663   4.091   1.020  16.215  0.2287 -2.6993  1.7504
14058TIP3   OH263664   4.744   4.675  14.147 -0.5944  0.5032 -0.3930
14058TIP3    H163665   4.706   4.762  14.148  1.1117  1.2796 -0.1269
14058TIP3    H263666   4.707   4.631  14.224  0.4881  1.9045  0.9829
14059TIP3   OH263667   6.374   3.863  15.390 -0.3434  0.2861  0.5520
14059TIP3    H163668   6.378   3.946  15.438  0.6094  0.2273  0.5944
14059TIP3    H263669   6.421   3.801  15.446 -0.4207 -0.1101  0.1827
14060TIP3   OH263670   2.336   4.343  16.635 -0.0615 -0.0819  0.3756
14060TIP3    H163671   2.382   4.426  16.619  0.8398 -0.9052 -1.5854
14060TIP3    H263672   2.261   4.346  16.576 -0.1837 -0.5542  0.5027
14061TIP3   OH263673   3.186   4.525  17.140 -0.3443  0.3010 -0.0377
14061TIP3    H163674   3.216   4.496  17.226 -2.5476  0.1744  0.7580
14061TIP3    H263675   3.227   4.610  17.127  0.4805  0.0589  0.8705
14062TIP3   OH263676   2.460   6.382   4.819  0.0495 -0.3475  0.2457
14062TIP3    H163677   2.472   6.299   4.774 -1.7615 -0.4879 -0.0532
14062TIP3    H263678   2.515   6.375   4.897  2.9962 -0.2153 -1.6865
14063TIP3   OH263679   2.217   6.232   0.972 -0.0505  0.3220 -0.2635
14063TIP3    H163680   2.155   6.305   0.974 -0.5745 -0.1299  0.6048
14063TIP3    H263681   2.165   6.156   0.996  0.9829  0.0459  1.2093
14064TIP3   OH263682   6.335   2.384  12.861 -0.0166  0.3120 -0.3882
14064TIP3    H163683   6.345   2.437  12.782 -0.1760 -0.5561 -1.0131
14064TIP3    H263684   6.343   2.294  12.829 -2.9394 -0.2299  0.0958
14065TIP3   OH263685   4.866   2.915  13.710  0.0822 -0.2467  0.4643
14065TIP3    H163686   4.894   2.825  13.696  0.5084 -0.6097  3.1502
14065TIP3    H263687   4.926   2.967  13.656  1.0253 -1.4727  0.2867
14066TIP3   OH263688   2.135   4.588   5.297 -0.6594  0.2562 -0.3129
14066TIP3    H163689   2.089   4.585   5.381  2.1005 -0.8152  1.2877
14066TIP3    H263690   2.210   4.645   5.312  1.0909 -1.6383 -1.3149
14067TIP3   OH263691   2.749   3.169   3.464 -0.2973 -0.2510 -0.5390
14067TIP3    H163692   2.713   3.182   3.552 -1.8996 -1.8968 -0.8851
14067TIP3    H263693   2.809   3.095   3.473 -0.4423 -0.4035 -0.8178
14068TIP3   OH263694   4.111   2.169   0.775  0.0023 -0.2145 -0.1921
14068TIP3    H163695   4.156   2.088   0.795  1.4579  0.4768 -0.5351
14068TIP3    H263696   4.135   2.229   0.846  0.5254  0.4916 -0.9389
14069TIP3   OH263697   2.942   4.066  15.027 -0.1753 -0.3623 -0.3733
14069TIP3    H163698   2.881   4.002  14.989 -0.3734  0.2031 -1.0285
14069TIP3    H263699   2.885   4.133  15.065 -0.1103  1.8492 -3.7360
14070TIP3   OH263700   4.525   3.341   5.826 -0.4245 -0.2030  0.3498
14070TIP3    H163701   4.478   3.262   5.854  0.4394  0.2488  3.5165
14070TIP3    H263702   4.617   3.322   5.846 -0.0773  1.2526  0.2280
14071TIP3   OH263703   6.367   0.748   2.752  0.0749 -0.2836  0.8657
14071TIP3    H163704   6.312   0.758   2.674 -0.2059  2.2370  1.3070
14071TIP3    H263705   6.347   0.660   2.784 -1.8655 -0.3526 -0.3571
14072TIP3   OH263706   2.001   3.592  15.420  0.1668 -0.0405  0.0331
14072TIP3    H163707   2.000   3.537  15.342 -0.5354  0.8736 -0.6187
14072TIP3    H263708   1.946   3.546  15.483 -0.4242 -0.0860 -0.5117
14073TIP3   OH263709   2.733   0.214  12.970  0.0771 -0.0595  0.2116
14073TIP3    H163710   2.744   0.262  12.887 -0.0303  1.8327  1.2253
14073TIP3    H263711   2.822   0.198  13.000  0.1166 -0.2222  0.0057
14074TIP3   OH263712   4.932   6.328   2.141  0.0101  0.0073  1.0887
14074TIP3    H163713   4.956   6.407   2.092  2.7968 -0.1753  1.9897
14074TIP3    H263714   4.958   6.255   2.084 -0.1353 -0.2228  1.3153
14075TIP3   OH263715   6.348   1.754   1.922  0.0349 -0.0260  0.0477
14075TIP3    H163716   6.260   1.751   1.884  0.3976  0.4352 -0.8728
14075TIP3    H263717   6.338   1.806   2.002 -0.4597  0.3461 -0.2470
14076TIP3   OH263718   3.258   4.148   3.971 -0.2712 -0.2443  0.2174
14076TIP3    H163719   3.262   4.184   4.060 -2.6093 -0.3450  0.4328
14076TIP3    H263720   3.184   4.087   3.973 -1.0106  0.4801 -2.0338
14077TIP3   OH263721   5.208   2.222  14.586  0.4928 -0.1286  0.0090
14077TIP3    H163722   5.303   2.223  14.595  0.6625  1.5194 -1.4791
14077TIP3    H263723   5.193   2.225  14.491 -1.0407  0.0228  0.2357
14078TIP3   OH263724   1.542   6.248  15.071 -0.6192 -0.0492  0.0618
14078TIP3    H163725   1.589   6.297  15.139  1.0588 -1.6011  0.1208
14078TIP3    H263726   1.583   6.276  14.989  1.5912 -2.4237  0.2090
14079TIP3   OH263727   4.050   1.405   0.931  0.0491 -0.2625  0.1638
14079TIP3    H163728   4.125   1.463   0.944 -0.2878  0.1178  0.4462
14079TIP3    H263729   4.003   1.407   1.015 -1.3100  0.9936 -0.5632
14080TIP3   OH263730   2.223   4.027   0.631 -0.2198 -0.0011  0.4435
14080TIP3    H163731   2.173   4.052   0.708  0.2975 -0.1822  0.8437
14080TIP3    H263732   2.315   4.040   0.656 -0.0707  0.8391 -0.4542
14081TIP3   OH263733   1.887   3.840  15.285 -0.0469  0.3110  0.5030
14081TIP3    H163734   1.793   3.826  15.296 -0.5448  1.1303 -1.9785
14081TIP3    H263735   1.929   3.767  15.330 -1.9604 -1.2620 -0.1450
14082TIP3   OH263736   6.083   3.394   1.279  0.3342 -0.3999 -0.3614
14082TIP3    H163737   6.120   3.373   1.365  0.4191  0.7072 -0.1160
14082TIP3    H263738   6.125   3.477   1.254  0.7774 -1.0084 -1.7565
14083TIP3   OH263739   4.998   2.691  16.198 -0.3534  0.0919 -0.0032
14083TIP3    H163740   5.007   2.674  16.292 -0.2582 -1.6246 -0.2828
14083TIP3    H263741   4.919   2.744  16.191  0.6730  1.9043  1.1780
14084TIP3   OH263742   5.530   1.035  12.739 -0.0883  0.4404  1.0506
14084TIP3    H163743   5.513   0.989  12.657  0.4674 -0.7557  1.5699
14084TIP3    H263744   5.546   1.125  12.713  2.0067 -0.2633 -0.4114
14085TIP3   OH263745   1.882   5.162  12.645 -0.2813  0.0780  0.3996
14085TIP3    H163746   1.930   5.150  12.562 -1.8130 -0.7671 -0.4165
14085TIP3    H263747   1.849   5.251  12.641  2.7890  1.4128  1.8905
14086TIP3   OH263748   2.975   2.158  12.238 -0.2746  0.0206  0.5090
14086TIP3    H163749   2.913   2.110  12.183  0.1023  0.1891 -0.0792
14086TIP3    H263750   2.984   2.243  12.195  0.3639 -0.0056  0.5774
14087TIP3   OH263751   6.136   5.240   3.684 -0.6303 -0.0396  0.2265
14087TIP3    H163752   6.188   5.161   3.699  0.1809  0.5378  0.5299
14087TIP3    H263753   6.174   5.279   3.605  1.9473  2.3494  2.4344
14088TIP3   OH263754   6.049   3.872   5.250  0.2270 -0.1601  0.8076
14088TIP3    H163755   6.012   3.919   5.176 -2.0195  0.8564  2.4464
14088TIP3    H263756   6.126   3.922   5.275  0.3810  0.0985 -0.1484
14089TIP3   OH263757   2.956   6.418  12.022 -0.7598  0.0183  0.2140
14089TIP3    H163758   2.915   6.458  12.099 -1.6567  0.3711 -0.4260
14089TIP3    H263759   2.928   6.474  11.949 -0.1852 -0.4940 -0.4078
14090TIP3   OH263760   5.859   2.907   1.705  0.8863 -0.1222  0.3226
14090TIP3    H163761   5.819   2.974   1.649  0.7851 -0.7873 -0.4133
14090TIP3    H263762   5.924   2.865   1.649  0.2830 -1.2889  0.4682
14091TIP3   OH263763   1.741   5.266  15.718 -0.5226  0.5992 -0.7559
14091TIP3    H163764   1.790   5.230  15.792  0.8571  2.1777 -0.8368
14091TIP3    H263765   1.734   5.360  15.736 -0.9595  0.8702 -2.1771
14092TIP3   OH263766   0.813   4.731   5.307  0.6513 -0.2148  0.0272
14092TIP3    H163767   0.856   4.699   5.387  1.1548 -3.5081 -1.4102
14092TIP3    H263768   0.816   4.826   5.316  0.7090 -0.3911  3.8787
14093TIP3   OH263769   2.051   3.989  13.557  0.0273 -0.2276  0.1873
14093TIP3    H163770   1.977   3.972  13.499  0.1136 -1.7728  0.4698
14093TIP3    H263771   2.056   4.084  13.564 -0.9891 -0.0691 -1.0300
14094TIP3   OH263772   6.176   1.124  16.268 -0.5271 -0.6317  0.0376
14094TIP3    H163773   6.235   1.136  16.193  0.1285 -0.1394  0.6133
14094TIP3    H263774   6.145   1.212  16.288 -0.1147 -0.6497  0.7977
14095TIP3   OH263775   0.278   4.296  17.205  0.1856  0.0049  0.4688
14095TIP3    H163776   0.193   4.291  17.160  0.7237 -0.0090 -0.5737
14095TIP3    H263777   0.308   4.385  17.189  0.8601 -0.3178 -0.0964
14096TIP3   OH263778   5.969   4.017  14.586  0.7134 -0.1634  0.1860
14096TIP3    H163779   5.972   3.981  14.675  0.8936 -1.1381 -0.2091
14096TIP3    H263780   5.902   3.965  14.542  0.7907  0.1671 -0.3240
14097TIP3   OH263781   4.847   0.275   1.913  0.4630 -0.0801 -0.1475
14097TIP3    H163782   4.811   0.280   1.824 -1.0506 -0.5343  0.4079
14097TIP3    H263783   4.929   0.227   1.903 -0.9458 -2.4754 -0.9973
14098TIP3   OH263784   2.335   5.145   0.534  0.5790 -0.4773  0.1778
14098TIP3    H163785   2.328   5.240   0.547  0.6500 -0.6098  1.2860
14098TIP3    H263786   2.249   5.119   0.501  1.3231  0.3105 -2.5859
14099TIP3   OH263787   2.283   6.557  12.375 -0.5126  0.1698  0.0071
14099TIP3    H163788   2.251   6.646  12.393 -2.8009 -0.6186  0.1218
14099TIP3    H263789   2.247   6.504  12.445  0.8906 -0.8774 -0.0211
14100TIP3   OH263790   2.749   1.461   0.514  0.4954 -0.1700 -0.1406
14100TIP3    H163791   2.679   1.409   0.552 -0.8584  1.1368 -0.7284
14100TIP3    H263792   2.733   1.457   0.419  1.1674  0.2092 -0.2788
14101TIP3   OH263793   4.426   6.237   0.371 -0.0017 -0.1425 -0.2673
14101TIP3    H163794   4.463   6.219   0.284 -1.9438 -0.8684 -0.9921
14101TIP3    H263795   4.346   6.285   0.354 -0.8292 -0.9832  1.0621
14102TIP3   OH263796   2.325   3.451   2.129 -0.6017  0.5218  0.4097
14102TIP3    H163797   2.235   3.419   2.136 -0.1369 -0.8544  0.2901
14102TIP3    H263798   2.362   3.402   2.056 -0.4456  2.8211 -1.1470
14103TIP3   OH263799   5.555   3.534   1.444  0.0896  0.0388 -0.3357
14103TIP3    H163800   5.650   3.525   1.450  0.1642 -0.3372 -1.7547
14103TIP3    H263801   5.534   3.507   1.354 -1.4172 -0.3519  0.1126
14104TIP3   OH263802   4.290   6.447  16.631 -0.1808 -0.1021 -0.0057
14104TIP3    H163803   4.258   6.476  16.546  3.1885  1.6809 -0.7989
14104TIP3    H263804   4.242   6.501  16.694 -0.7219  0.5211 -0.9310
14105TIP3   OH263805   3.401   2.792  12.141  0.0434  0.1060  0.1158
14105TIP3    H163806   3.482   2.807  12.092  0.3438  0.1790  0.6222
14105TIP3    H263807   3.423   2.722  12.203 -1.1890 -2.2236 -1.8939
14106TIP3   OH263808   2.994   1.774   0.994 -0.3067 -0.0964  0.3589
14106TIP3    H163809   3.080   1.777   1.036 -0.0678 -0.4778 -0.1136
14106TIP3    H263810   3.001   1.836   0.922 -0.7678  0.6730  0.9531
14107TIP3   OH263811   2.691   3.606  16.798 -0.4060 -0.1136  0.6903
14107TIP3    H163812   2.625   3.604  16.867 -1.1761  1.2537  0.0303
14107TIP3    H263813   2.648   3.568  16.721  0.2464 -1.0582  0.7724
14108TIP3   OH263814   1.425   6.021   1.867 -0.1554  0.0947  0.4254
14108TIP3    H163815   1.371   6.095   1.894 -0.3885 -0.1645  0.6672
14108TIP3    H263816   1.457   5.982   1.949  1.8724  1.3092  0.2928
14109TIP3   OH263817   3.647   4.018   1.382 -0.2703  0.6756 -0.4728
14109TIP3    H163818   3.666   4.045   1.471 -1.3396 -2.1394  0.7353
14109TIP3    H263819   3.559   4.051   1.364 -0.3173  0.6691 -0.2462
14110TIP3   OH263820   6.528   1.375  15.516 -0.5090  0.4954 -0.1179
14110TIP3    H163821   6.478   1.379  15.434 -1.7864  1.3869  0.6855
14110TIP3    H263822   6.619   1.384  15.488 -0.8808  0.2864 -1.4808
14111TIP3   OH263823   3.580   2.683  15.780  0.1135 -0.9731  0.3042
14111TIP3    H163824   3.517   2.750  15.753  0.5458 -0.9608 -0.7236
14111TIP3    H263825   3.659   2.704  15.730  0.6949 -1.4325  1.0153
14112TIP3   OH263826   4.603   5.649  11.536 -0.3744 -0.0126 -0.0580
14112TIP3    H163827   4.558   5.718  11.585  1.0315  0.4996  0.5381
14112TIP3    H263828   4.631   5.586  11.602  0.4984  0.0863 -0.3234
14113TIP3   OH263829   0.152   6.657   1.148  0.2142  0.2534 -0.2242
14113TIP3    H163830   0.198   6.735   1.177 -0.0800 -0.2422  1.6950
14113TIP3    H263831   0.197   6.585   1.191 -0.0998 -0.5650 -1.2183
14114TIP3   OH263832   1.553   5.498   2.097 -0.2062  0.7091 -0.1871
14114TIP3    H163833   1.525   5.479   2.187 -0.5943  0.6702 -0.3185
14114TIP3    H263834   1.645   5.469   2.095  0.2228  1.9340  0.5803
14115TIP3   OH263835   2.600   5.344  13.626  0.2833  0.2671 -0.0958
14115TIP3    H163836   2.589   5.386  13.540  0.2426 -0.8107 -0.6395
14115TIP3    H263837   2.670   5.280  13.612 -0.5599 -0.7761  0.3376
14116TIP3   OH263838   0.705   3.162  12.414 -0.3827  0.1319 -0.2094
14116TIP3    H163839   0.748   3.245  12.437  1.0836 -0.4687 -0.6777
14116TIP3    H263840   0.732   3.101  12.483  0.3073 -0.5024 -1.0285
14117TIP3   OH263841   3.082   5.596   4.841 -0.3629  0.3606 -0.6502
14117TIP3    H163842   3.032   5.596   4.922 -1.4027  0.0119 -1.2695
14117TIP3    H263843   3.033   5.537   4.783 -0.3835  1.6341 -1.9697
14118TIP3   OH263844   5.442   0.536  16.635  0.4028 -0.0394 -0.0836
14118TIP3    H163845   5.469   0.447  16.656 -1.0477 -0.7164 -0.8778
14118TIP3    H263846   5.523   0.582  16.614  1.4484 -0.5041  2.5428
14119TIP3   OH263847   6.535   0.833   2.136 -1.0762  0.2990 -0.0275
14119TIP3    H163848   6.579   0.760   2.093 -1.7880 -1.3549  1.8752
14119TIP3    H263849   6.597   0.906   2.130 -0.8204 -0.0386 -3.0024
14120TIP3   OH263850   1.839   2.725   5.435  0.4415 -0.0331  0.5402
14120TIP3    H163851   1.823   2.688   5.348  1.6488 -0.7483  0.5941
14120TIP3    H263852   1.761   2.701   5.485  0.1689 -0.4734 -0.0728
14121TIP3   OH263853   0.482   1.339  12.978  0.1576 -0.4376  0.8222
14121TIP3    H163854   0.412   1.274  12.974 -0.3287  0.1327 -1.7399
14121TIP3    H263855   0.437   1.423  12.983  0.6883 -0.1245  0.5022
14122TIP3   OH263856   1.427   2.447  11.740 -0.2162 -0.6563  0.2612
14122TIP3    H163857   1.432   2.515  11.807  1.4269  0.1195 -0.5659
14122TIP3    H263858   1.413   2.496  11.659  3.2163 -0.9506 -0.6888
14123TIP3   OH263859   0.348   4.684   0.298 -0.3091  0.5402  0.3100
14123TIP3    H163860   0.278   4.635   0.255  0.9278  0.0250 -1.2326
14123TIP3    H263861   0.323   4.776   0.287 -0.2424  0.4066 -1.2082
14124TIP3   OH263862   5.365   1.014  12.003  0.0853 -0.5115 -0.1678
14124TIP3    H163863   5.392   0.924  11.982  1.2077 -0.3488  0.4963
14124TIP3    H263864   5.411   1.068  11.939  1.0877 -0.2623  0.7304
14125TIP3   OH263865   0.320   1.471   3.483  0.0023 -0.4087  0.6356
14125TIP3    H163866   0.415   1.467   3.495  0.3663  1.5330 -1.0327
14125TIP3    H263867   0.295   1.383   3.456  1.6006 -0.5595 -0.4786
14126TIP3   OH263868   6.044   0.191  16.608  0.2595  0.0968 -0.7377
14126TIP3    H163869   6.117   0.190  16.546  0.9572  1.8133  0.0162
14126TIP3    H263870   6.052   0.274  16.654 -2.2373  0.3794 -0.6939
14127TIP3   OH263871   0.076   4.131   5.465 -0.0455  0.3659  0.1701
14127TIP3    H163872   0.052   4.106   5.554 -0.0081 -1.7038 -0.3310
14127TIP3    H263873   0.171   4.120   5.462 -0.0122  0.6998 -0.0511
14128TIP3   OH263874   3.868   2.863  11.755 -0.1288  0.1771 -0.3152
14128TIP3    H163875   3.828   2.938  11.798 -0.6075  0.8175 -1.8108
14128TIP3    H263876   3.952   2.851  11.801 -0.3558  1.1865  0.3909
14129TIP3   OH263877   5.976   0.986   4.843  0.8991 -0.0305  0.2775
14129TIP3    H163878   5.947   0.895   4.856  3.3260 -0.5989  2.7064
14129TIP3    H263879   5.900   1.038   4.869  0.1540 -1.3987  1.0221
14130TIP3   OH263880   4.232   5.471   6.288  0.3868 -0.0541  0.4066
14130TIP3    H163881   4.175   5.522   6.346  1.2932  0.4840  0.8452
14130TIP3    H263882   4.192   5.384   6.286 -0.5218  0.3480  0.5898
14131TIP3   OH263883   3.870   3.012  16.157  0.3403  0.3024  0.0435
14131TIP3    H163884   3.956   2.979  16.183  0.3603  0.7389  0.5462
14131TIP3    H263885   3.856   2.976  16.070  0.2386 -1.2674  0.6748
14132TIP3   OH263886   1.381   1.697  16.063 -0.6129  0.1154  0.4780
14132TIP3    H163887   1.313   1.747  16.108  0.3541  1.7504  0.2142
14132TIP3    H263888   1.393   1.743  15.980 -0.1512 -0.9799 -0.0840
14133TIP3   OH263889   5.385   6.178  13.892  0.3715  0.2086 -0.2111
14133TIP3    H163890   5.481   6.175  13.899  0.2677  0.6616  1.9376
14133TIP3    H263891   5.355   6.187  13.982 -1.8262 -2.5386 -0.5386
14134TIP3   OH263892   5.524   2.320   2.322 -0.1978 -0.0683  0.4391
14134TIP3    H163893   5.446   2.360   2.284  0.4210 -0.5314 -1.4291
14134TIP3    H263894   5.505   2.226   2.323  0.2014 -0.1547  0.2587
14135TIP3   OH263895   1.249   0.995   2.269 -0.0457 -0.6504  0.3520
14135TIP3    H163896   1.173   0.936   2.278  0.2820 -0.9305  1.4177
14135TIP3    H263897   1.323   0.944   2.302  0.9726 -1.0012 -2.2001
14136TIP3   OH263898   4.906   3.422   1.195  0.9048 -0.3396 -0.9514
14136TIP3    H163899   4.852   3.345   1.174 -1.1510  0.8549 -0.3916
14136TIP3    H263900   4.880   3.487   1.129 -1.1705  1.4600  1.4353
14137TIP3   OH263901   0.577   2.431   4.277  0.1428  0.2785 -0.2513
14137TIP3    H163902   0.656   2.397   4.235  1.2866  1.3076  0.9762
14137TIP3    H263903   0.528   2.353   4.302  1.9354 -0.4966  1.0860
14138TIP3   OH263904   2.724   5.102   0.250 -0.8299  0.0783  0.0828
14138TIP3    H163905   2.749   5.038   0.184  0.7981 -0.1263  0.8466
14138TIP3    H263906   2.706   5.050   0.328  1.5498  0.5395  1.0224
14139TIP3   OH263907   3.669   5.736  15.127  0.4083  0.2182  0.4161
14139TIP3    H163908   3.616   5.744  15.048  1.7249  1.2259 -0.3896
14139TIP3    H263909   3.606   5.747  15.199 -0.6082  0.4962 -0.4999
14140TIP3   OH263910   4.438   5.765  15.740 -0.1027  0.0663  0.6824
14140TIP3    H163911   4.429   5.770  15.644  0.2269 -1.6948  0.5278
14140TIP3    H263912   4.352   5.791  15.774 -0.2030  0.7782 -0.0712
14141TIP3   OH263913   5.514   3.436  11.338 -0.0010  0.0550  0.1849
14141TIP3    H163914   5.556   3.511  11.382 -0.7412 -0.8136  2.5323
14141TIP3    H263915   5.588   3.381  11.310  0.5497 -0.0705  1.7379
14142TIP3   OH263916   1.734   0.451  16.724 -0.0106  0.3085  0.5602
14142TIP3    H163917   1.690   0.517  16.779  2.4132  0.9039  1.9233
14142TIP3    H263918   1.825   0.454  16.752  0.2653 -3.5523  0.5494
14143TIP3   OH263919   6.469   0.672   3.534  0.1164 -0.4737  0.1097
14143TIP3    H163920   6.487   0.579   3.522 -0.9470 -0.4927 -1.8480
14143TIP3    H263921   6.537   0.716   3.483  0.0065 -0.2234  0.1790
14144TIP3   OH263922   1.434   1.772  13.002 -0.0862 -0.2317  0.6407
14144TIP3    H163923   1.446   1.763  12.908 -0.9142 -1.5904  0.6369
14144TIP3    H263924   1.406   1.685  13.031  2.9099 -0.6904  2.5952
14145TIP3   OH263925   0.847   2.153  16.909  0.1614  0.4103  0.1315
14145TIP3    H163926   0.939   2.161  16.886  0.6552 -4.5765 -0.6532
14145TIP3    H263927   0.801   2.158  16.825  0.0891 -0.2614  0.1266
14146TIP3   OH263928   1.322   1.842   6.416  0.1495  0.3226  0.5046
14146TIP3    H163929   1.352   1.920   6.464  0.5732  0.7559 -0.4332
14146TIP3    H263930   1.247   1.873   6.364 -0.0301 -0.0317  0.5500
14147TIP3   OH263931   1.795   0.259  11.840 -0.1357 -0.0430  0.8229
14147TIP3    H163932   1.845   0.189  11.799 -2.6164 -0.9605 -0.8821
14147TIP3    H263933   1.839   0.340  11.813  2.1729 -0.8041  1.9922
14148TIP3   OH263934   0.258   3.682  10.403  0.3249 -0.3784 -0.2392
14148TIP3    H163935   0.279   3.589  10.414  1.3283  0.0451  1.9928
14148TIP3    H263936   0.197   3.701  10.474  1.3502  0.9773  0.3259
14149TIP3   OH263937   0.247   4.080   4.932  0.1206  0.8524 -0.2163
14149TIP3    H163938   0.160   4.058   4.966  0.4191  0.4436  0.2922
14149TIP3    H263939   0.260   4.172   4.958  0.7615  0.2633  1.7235
14150TIP3   OH263940   4.834   0.270  11.492 -0.0787  0.5943  0.3119
14150TIP3    H163941   4.888   0.342  11.457 -2.0618  1.9929 -0.0168
14150TIP3    H263942   4.754   0.273  11.439 -1.7228  0.5058  2.6538
14151TIP3   OH263943   3.027   6.706   5.503 -1.2632  0.1671 -0.1853
14151TIP3    H163944   3.013   6.614   5.482 -1.8339  0.1163  0.3865
14151TIP3    H263945   3.119   6.711   5.531 -1.2845 -0.2607 -0.0416
14152TIP3   OH263946   3.683   2.538  15.055 -0.4935  1.3245 -0.2260
14152TIP3    H163947   3.608   2.552  15.113 -2.1462  1.1859 -2.2369
14152TIP3    H263948   3.666   2.593  14.979  1.2621  0.9782 -0.9265
14153TIP3   OH263949   3.593   3.460  12.445 -0.0215 -0.1844 -0.3737
14153TIP3    H163950   3.579   3.372  12.412  3.0943 -0.6296 -0.8349
14153TIP3    H263951   3.664   3.495  12.392  0.7053  1.5628  1.5823
14154TIP3   OH263952   0.382   5.653   1.506  0.1548  0.4371  0.6278
14154TIP3    H163953   0.305   5.709   1.501 -0.6583 -0.7413 -0.8437
14154TIP3    H263954   0.450   5.701   1.458 -0.3974  0.4035 -0.2073
14155TIP3   OH263955   5.671   1.751  11.392 -0.2268 -0.4686 -0.0992
14155TIP3    H163956   5.659   1.828  11.336 -0.4852 -0.4821 -0.0635
14155TIP3    H263957   5.765   1.751  11.413 -0.4485  0.6118  1.0084
14156TIP3   OH263958   0.611   4.676  13.475  0.1165  0.5348  0.1167
14156TIP3    H163959   0.698   4.638  13.488  0.0900  0.4069 -0.0718
14156TIP3    H263960   0.613   4.758  13.524 -0.1609 -0.1795  1.3675
14157TIP3   OH263961   4.961   6.017  13.664 -0.3385  0.0069 -0.3565
14157TIP3    H163962   4.885   6.036  13.719  0.2625  1.2128  0.0998
14157TIP3    H263963   5.035   6.014  13.726 -0.1810 -2.6611 -0.5701
14158TIP3   OH263964   2.298   0.472   2.445 -0.4009  0.0910  0.4167
14158TIP3    H163965   2.208   0.456   2.416 -0.0456 -2.0986  0.2945
14158TIP3    H263966   2.311   0.410   2.517  0.6934  1.1129  1.1353
14159TIP3   OH263967   0.073   4.519   5.899 -0.3374  0.2441  0.9012
14159TIP3    H163968   0.084   4.472   5.816 -0.8289  1.9419 -0.1730
14159TIP3    H263969   0.154   4.570   5.909 -1.0020  1.4187  0.5171
14160TIP3   OH263970   3.903   2.038   0.531 -0.1725 -0.0151  0.3075
14160TIP3    H163971   3.856   1.978   0.473 -1.1765 -0.4802  1.5533
14160TIP3    H263972   3.970   1.984   0.571 -0.3869 -0.0469  0.6260
14161TIP3   OH263973   5.256   4.138  12.850  0.1802 -0.0944  0.1665
14161TIP3    H163974   5.173   4.102  12.819 -0.0856  0.4768  0.1993
14161TIP3    H263975   5.289   4.190  12.777  1.8158 -2.3581 -0.8367
14162TIP3   OH263976   5.720   4.688  11.599 -0.5087  0.4169 -0.6548
14162TIP3    H163977   5.725   4.688  11.503 -2.3011 -0.4818 -0.7952
14162TIP3    H263978   5.626   4.689  11.618 -0.3446 -2.7590  1.0330
14163TIP3   OH263979   4.023   3.724  13.377 -0.4062 -0.1388 -0.3099
14163TIP3    H163980   3.954   3.725  13.311  0.9302 -0.3183 -1.7450
14163TIP3    H263981   4.033   3.632  13.401 -1.4335  0.0046  0.7747
14164TIP3   OH263982   4.160   4.657  16.720 -0.5868 -0.1088 -0.3405
14164TIP3    H163983   4.121   4.743  16.740 -1.2102 -0.2048 -1.1244
14164TIP3    H263984   4.231   4.649  16.784 -2.0850 -0.1143  1.4076
14165TIP3   OH263985   3.275   5.471  12.359 -0.1338 -0.2301  0.0267
14165TIP3    H163986   3.288   5.392  12.307 -0.1318 -0.8124  0.8848
14165TIP3    H263987   3.231   5.440  12.439  1.2566  0.3688  1.0723
14166TIP3   OH263988   3.732   3.603   4.673  0.6933  0.1033  0.2024
14166TIP3    H163989   3.745   3.518   4.630  1.2313  0.9621 -1.3968
14166TIP3    H263990   3.801   3.659   4.638  1.0604  0.9233  2.0956
14167TIP3   OH263991   1.625   3.079   4.949  0.7902  0.5354 -0.2539
14167TIP3    H163992   1.678   3.143   4.995  0.1982  0.7437  0.1562
14167TIP3    H263993   1.655   2.994   4.982  1.4988  0.6034 -0.7158
14168TIP3   OH263994   6.790   0.918   3.010  0.6504  0.1757 -0.4364
14168TIP3    H163995   6.861   0.981   2.998 -0.1690  0.9100 -1.6104
14168TIP3    H263996   6.712   0.973   3.022 -0.0987 -0.5995 -1.6143
14169TIP3   OH263997   0.170   3.348  17.004  0.5048 -0.7068  0.1203
14169TIP3    H163998   0.260   3.319  16.992  0.9963  1.2714 -1.5006
14169TIP3    H263999   0.164   3.370  17.097  0.6749 -3.8626  0.9818
14170TIP3   OH264000   1.499   0.351  16.219  0.3025 -0.2591  0.4849
14170TIP3    H164001   1.592   0.333  16.236  0.5205  0.0837 -0.3139
14170TIP3    H264002   1.482   0.432  16.267  0.7634  0.3801 -0.4009
14171TIP3   OH264003   6.198   4.047  15.010 -0.8336  0.8890 -0.1526
14171TIP3    H164004   6.241   3.970  15.047 -0.2136  0.9894 -0.6495
14171TIP3    H264005   6.118   4.056  15.061  0.0049  1.0455  1.1869
14172TIP3   OH264006   2.715   3.707  15.619 -0.7849  0.4980 -0.8326
14172TIP3    H164007   2.750   3.792  15.644 -0.5547  0.5325 -1.2611
14172TIP3    H264008   2.719   3.654  15.698  0.4857  0.4133 -0.9429
14173TIP3   OH264009   1.799   4.065  17.306  0.4463  0.2546  0.0868
14173TIP3    H164010   1.884   4.099  17.277 -0.8503  2.5460 -1.3990
14173TIP3    H264011   1.774   4.002  17.238  0.5907  0.2155  0.0701
14174TIP3   OH264012   0.550   5.541   3.459  0.6087 -0.2783  0.1158
14174TIP3    H164013   0.469   5.592   3.452  0.7644  0.0135  0.3790
14174TIP3    H264014   0.533   5.461   3.409 -0.2221 -0.6981  1.0299
14175TIP3   OH264015   5.302   3.953  14.764 -0.0706  0.2337 -0.0549
14175TIP3    H164016   5.343   3.940  14.850 -0.9117  2.5619  0.7534
14175TIP3    H264017   5.374   3.941  14.701  0.5901 -1.3438  0.9339
14176TIP3   OH264018   1.307   6.199   0.076 -0.1296  0.6732  0.6719
14176TIP3    H164019   1.261   6.131   0.027  0.7045  0.5075  0.0901
14176TIP3    H264020   1.239   6.262   0.101 -0.8680 -0.2153  0.9689
14177TIP3   OH264021   3.983   1.318   0.685  0.2397 -0.4969  0.2933
14177TIP3    H164022   3.908   1.357   0.640 -0.6234 -2.1383  0.2104
14177TIP3    H264023   3.999   1.376   0.759 -0.9906  0.0244  0.1863
14178TIP3   OH264024   1.709   3.856  13.633  0.3466  0.7074  0.0796
14178TIP3    H164025   1.783   3.847  13.692 -0.7810  1.4071  1.6805
14178TIP3    H264026   1.748   3.871  13.547  2.0584 -1.1190  0.4596
14179TIP3   OH264027   1.531   2.111  13.413 -0.1139 -0.0975  0.0293
14179TIP3    H164028   1.467   2.040  13.417 -3.1436  2.4774  1.1982
14179TIP3    H264029   1.520   2.158  13.496  1.2583  2.1428 -0.9799
14180TIP3   OH264030   3.461   0.927   1.662 -0.1300  0.1186  0.1945
14180TIP3    H164031   3.445   0.938   1.568  0.0823  2.6449  0.4100
14180TIP3    H264032   3.466   0.832   1.673 -1.9592 -0.3346 -2.0277
14181TIP3   OH264033   6.717   5.479  11.760 -0.3054 -0.1483 -0.2353
14181TIP3    H164034   6.793   5.428  11.790 -1.6499 -0.5632  2.8941
14181TIP3    H264035   6.755   5.560  11.726  1.5868 -0.0052  1.9385
14182TIP3   OH264036   5.293   5.542  12.435  0.0863 -0.0165 -0.2007
14182TIP3    H164037   5.382   5.513  12.454 -0.0541 -0.0403  0.4564
14182TIP3    H264038   5.269   5.595  12.511 -1.4186 -2.1617  0.9150
14183TIP3   OH264039   5.833   6.629   4.292 -0.1042  0.8258 -0.2557
14183TIP3    H164040   5.912   6.683   4.298 -1.3914  2.9950 -1.6306
14183TIP3    H264041   5.761   6.691   4.294 -1.7633 -0.9876 -0.4575
14184TIP3   OH264042   0.899   2.235  11.374 -0.0517  0.3495 -0.0035
14184TIP3    H164043   0.812   2.273  11.385  1.3076  3.6339  0.3199
14184TIP3    H264044   0.959   2.299  11.412  2.6475 -1.1279 -1.4529
14185TIP3   OH264045   2.227   4.364  16.915 -0.4328  0.2896  0.0178
14185TIP3    H164046   2.265   4.370  17.003 -0.2896  2.7673 -0.1631
14185TIP3    H264047   2.300   4.336  16.859 -0.3743 -0.6895  0.5529
14186TIP3   OH264048   3.688   3.024   7.048  0.4399  0.2142 -0.1891
14186TIP3    H164049   3.727   2.989   6.968  1.1513  3.0494 -1.1807
14186TIP3    H264050   3.657   3.111   7.023 -2.0320  0.0274  1.8904
14187TIP3   OH264051   4.603   2.206  10.634  0.2317 -0.3145 -0.3366
14187TIP3    H164052   4.595   2.123  10.587  1.7300 -0.4476 -0.4181
14187TIP3    H264053   4.614   2.272  10.566 -0.4110 -0.1172 -0.2544
14188TIP3   OH264054   4.189   2.221  16.066 -0.2784  0.1521 -0.0907
14188TIP3    H164055   4.124   2.205  15.998  0.6284  0.4073 -1.0375
14188TIP3    H264056   4.236   2.299  16.037  0.0609  0.3343  0.8881
14189TIP3   OH264057   1.396   3.615   4.387 -0.3354 -0.0251  0.2245
14189TIP3    H164058   1.439   3.696   4.357 -0.3371 -0.0145  0.2503
14189TIP3    H264059   1.373   3.633   4.479 -3.6413  1.3343 -0.7189
14190TIP3   OH264060   0.533   1.865  15.359  0.1365 -0.2043  0.5229
14190TIP3    H164061   0.575   1.783  15.383  0.1026 -0.3617  0.0692
14190TIP3    H264062   0.521   1.858  15.264  2.9502  1.6164 -0.0840
14191TIP3   OH264063   6.725   1.712   4.678 -0.0211 -0.1775  0.2257
14191TIP3    H164064   6.673   1.748   4.750 -0.3892 -0.2972  0.0265
14191TIP3    H264065   6.729   1.783   4.614  1.1224  0.2653  0.7641
14192TIP3   OH264066   3.660   1.650   2.223  0.0817 -0.1919 -0.4775
14192TIP3    H164067   3.583   1.626   2.274 -0.6469 -0.2700 -1.5994
14192TIP3    H264068   3.698   1.725   2.270 -0.4790 -0.3643  0.2598
14193TIP3   OH264069   5.077   2.871   1.223 -1.2119 -0.5565  0.2356
14193TIP3    H164070   4.996   2.894   1.177 -1.4947 -1.1243  0.4375
14193TIP3    H264071   5.084   2.776   1.213 -1.6257 -0.7924  1.9185
14194TIP3   OH264072   5.910   5.544   0.926  0.0082 -0.4641 -0.4103
14194TIP3    H164073   5.958   5.481   0.981 -0.8078  0.4856  1.5042
14194TIP3    H264074   5.833   5.566   0.978 -0.7928  0.5534 -1.9621
14195TIP3   OH264075   4.430   0.684   5.273 -0.3355  0.1965 -0.0154
14195TIP3    H164076   4.354   0.726   5.233  0.7520  2.0944 -0.2071
14195TIP3    H264077   4.501   0.698   5.211 -0.1582 -3.2420 -0.7723
14196TIP3   OH264078   4.054   3.312  17.234  0.5909 -0.5933  0.5908
14196TIP3    H164079   4.049   3.300  17.139 -0.6573 -3.0201  0.8846
14196TIP3    H264080   3.994   3.246  17.269  1.8930 -0.5404  3.1029
14197TIP3   OH264081   4.942   1.765  17.224  0.1166 -0.0086 -0.8216
14197TIP3    H164082   4.899   1.850  17.215 -1.5923 -0.8642 -1.1471
14197TIP3    H264083   4.939   1.727  17.136 -1.9364 -1.6462 -0.1336
14198TIP3   OH264084   0.543   6.410   6.402  0.1369 -0.4448 -0.1794
14198TIP3    H164085   0.575   6.386   6.488  1.7792 -2.2527 -1.2057
14198TIP3    H264086   0.450   6.391   6.404 -0.2596  1.2771  1.6971
14199TIP3   OH264087   4.167   3.385   1.522  0.1791 -0.0725 -0.4372
14199TIP3    H164088   4.121   3.466   1.547 -1.7935 -1.2094 -0.2413
14199TIP3    H264089   4.256   3.398   1.554 -0.5327  1.3448  1.1028
14200TIP3   OH264090   3.215   2.621   2.595  0.2984 -0.0341 -0.3571
14200TIP3    H164091   3.120   2.619   2.590  0.2980 -1.3994 -0.3624
14200TIP3    H264092   3.244   2.639   2.505  0.0337 -2.8904 -1.1355
14201TIP3   OH264093   3.544   3.246  15.204  0.6973  0.1624 -0.6756
14201TIP3    H164094   3.618   3.285  15.157  0.3133  2.7654  0.6837
14201TIP3    H264095   3.581   3.217  15.287  0.3020  0.9901 -0.2067
14202TIP3   OH264096   3.187   4.117   2.875  0.1810  0.0557 -1.0148
14202TIP3    H164097   3.269   4.084   2.837  0.8101  1.1155 -0.6185
14202TIP3    H264098   3.159   4.186   2.815 -0.1901 -0.0037 -0.9114
14203TIP3   OH264099   5.857   4.232  12.968  0.4514 -0.0921 -0.5288
14203TIP3    H164100   5.926   4.272  12.915  2.1877  1.9802  2.9043
14203TIP3    H264101   5.822   4.304  13.021 -2.7157 -1.5667 -0.3593
14204TIP3   OH264102   4.705   6.012  15.682  0.1410 -0.2423 -0.0327
14204TIP3    H164103   4.772   6.079  15.698 -1.0977  0.9735  0.2636
14204TIP3    H264104   4.720   5.985  15.592  1.0846 -0.0584  0.0552
14205TIP3   OH264105   4.727   0.080  13.101  0.3460 -0.0143  0.1032
14205TIP3    H164106   4.663   0.038  13.044  1.1055 -0.8774 -0.1364
14205TIP3    H264107   4.726   0.172  13.075 -0.6258 -0.0548 -0.0395
14206TIP3   OH264108   3.959   4.660   3.446 -0.6541 -0.5564 -0.0512
14206TIP3    H164109   3.894   4.693   3.384 -0.0913 -1.3639 -1.1026
14206TIP3    H264110   3.918   4.583   3.485  0.0250 -1.7059 -1.4979
14207TIP3   OH264111   5.226   3.112   6.379 -0.0571 -0.4935 -0.6026
14207TIP3    H164112   5.267   3.141   6.461 -0.0324  0.5489 -0.9734
14207TIP3    H264113   5.276   3.155   6.310 -1.2619  0.1681 -1.0982
14208TIP3   OH264114   0.867   6.524  15.616 -0.0463 -0.1373 -0.1036
14208TIP3    H164115   0.854   6.570  15.533 -2.2312 -2.8913 -1.4904
14208TIP3    H264116   0.930   6.577  15.664  0.8185  1.9494 -3.2374
14209TIP3   OH264117   4.685   1.714  16.365  0.0094  0.3260 -0.2735
14209TIP3    H164118   4.768   1.716  16.413  0.3125  1.6092 -0.8305
14209TIP3    H264119   4.618   1.707  16.434  0.4847  1.2613  0.3111
14210TIP3   OH264120   0.881   2.863  13.754  0.0740  0.1433 -0.1023
14210TIP3    H164121   0.968   2.899  13.773  0.0892 -0.3052  0.7044
14210TIP3    H264122   0.840   2.851  13.840 -0.3264 -0.7843 -0.4136
14211TIP3   OH264123   4.911   0.642  12.206  0.0808  0.4409  0.0046
14211TIP3    H164124   4.860   0.629  12.126  0.9991  2.6495 -1.0020
14211TIP3    H264125   5.002   0.643  12.178  0.6315 -1.2317  1.4859
14212TIP3   OH264126   5.037   3.305   5.397 -0.1611 -0.2795  0.1495
14212TIP3    H164127   4.998   3.283   5.481 -0.0214 -1.6438 -0.1087
14212TIP3    H264128   4.963   3.329   5.341 -0.1728  1.4856  0.8764
14213TIP3   OH264129   4.915   6.432  15.907 -0.2789  0.0679  0.2634
14213TIP3    H164130   4.821   6.427  15.888 -0.2350 -0.0584  0.0780
14213TIP3    H264131   4.928   6.376  15.983  0.1398 -2.3809 -1.5086
14214TIP3   OH264132   2.267   5.399  12.775 -0.8537 -0.4757 -0.5846
14214TIP3    H164133   2.214   5.406  12.695  1.1201 -1.3082 -2.0795
14214TIP3    H264134   2.277   5.489  12.805 -1.7906 -0.1562 -1.1670
14215TIP3   OH264135   4.108   3.397   3.713  0.0230 -0.0160 -0.2804
14215TIP3    H164136   4.203   3.397   3.699 -0.0342 -1.0745 -0.7725
14215TIP3    H264137   4.070   3.411   3.627 -0.2738 -1.0733 -0.3350
14216TIP3   OH264138   6.587   4.855   1.238 -0.5455 -0.2575 -0.1180
14216TIP3    H164139   6.535   4.914   1.293 -0.7014 -0.2500 -0.2714
14216TIP3    H264140   6.528   4.831   1.167  0.2185  1.1758 -1.2813
14217TIP3   OH264141   3.260   4.651   3.146  0.1860 -0.5869 -0.0271
14217TIP3    H164142   3.222   4.567   3.122 -0.3122 -1.0557  2.1334
14217TIP3    H264143   3.351   4.647   3.115  0.1002 -1.8367 -0.1472
14218TIP3   OH264144   4.637   1.033   3.246  0.1252 -0.7752 -0.1643
14218TIP3    H164145   4.615   1.123   3.269  1.4724 -0.7321  1.1193
14218TIP3    H264146   4.590   1.016   3.165 -1.0374  0.7079  0.1645
14219TIP3   OH264147   0.210   1.241  15.990 -0.3436  0.2537  0.2003
14219TIP3    H164148   0.133   1.215  16.040 -0.7497 -1.3689 -1.1690
14219TIP3    H264149   0.243   1.160  15.952  1.0101  1.1635 -0.6808
14220TIP3   OH264150   5.894   1.075   5.269 -0.0896  0.2401  0.0846
14220TIP3    H164151   5.976   1.026   5.278 -0.0402  0.1215 -0.9425
14220TIP3    H264152   5.859   1.078   5.358  0.2566 -1.0479  0.2867
14221TIP3   OH264153   6.456   4.699  13.792  0.3242  0.0876  0.0803
14221TIP3    H164154   6.445   4.784  13.749  0.5896 -0.5751 -1.3604
14221TIP3    H264155   6.366   4.666  13.802  0.2567  0.2605  0.0584
14222TIP3   OH264156   4.760   3.236   3.690  0.0582 -0.0191  0.5042
14222TIP3    H164157   4.713   3.319   3.703  0.1776  0.1683 -0.1831
14222TIP3    H264158   4.748   3.188   3.771  1.0474  1.1915  1.4031
14223TIP3   OH264159   1.387   1.245  15.075  0.6656  0.0020  0.6725
14223TIP3    H164160   1.354   1.178  15.015 -0.7351 -0.6255  2.0734
14223TIP3    H264161   1.309   1.294  15.101  1.6151  1.9185  0.0245
14224TIP3   OH264162   1.329   0.420   1.320  0.1689 -0.0807 -0.0687
14224TIP3    H164163   1.325   0.339   1.372 -0.2732  1.1811  1.9991
14224TIP3    H264164   1.358   0.487   1.382  1.1840  1.2521 -1.8835
14225TIP3   OH264165   4.427   4.224  17.074 -0.0905  0.3584  0.0512
14225TIP3    H164166   4.438   4.262  16.987  0.4176 -1.2555 -0.6320
14225TIP3    H264167   4.503   4.253  17.123  0.6265 -0.2819 -0.6551
14226TIP3   OH264168   5.286   5.098  13.002  0.0730 -0.5746  0.5076
14226TIP3    H164169   5.299   5.058  13.088  0.3212 -0.7269  0.3993
14226TIP3    H264170   5.374   5.123  12.974  0.0801 -1.2078 -0.0362
14227TIP3   OH264171   3.355   3.907   3.905 -0.3255 -0.1411  0.1195
14227TIP3    H164172   3.350   3.968   3.979 -0.4590 -0.2085  0.1666
14227TIP3    H264173   3.391   3.960   3.833  0.3537 -0.2215  0.3875
14228TIP3   OH264174   1.666   1.026  10.448 -0.2111  0.2862  0.1161
14228TIP3    H164175   1.617   1.050  10.369 -1.0572  2.4683  1.2199
14228TIP3    H264176   1.751   1.069  10.438 -0.9087  1.9618  1.0805
14229TIP3   OH264177   2.730   3.652  14.174  0.1547  0.2532 -0.4376
14229TIP3    H164178   2.676   3.580  14.142 -0.2104  0.3013  0.0555
14229TIP3    H264179   2.799   3.609  14.225  1.4147  0.0975 -2.1847
14230TIP3   OH264180   6.507   3.508   4.312  0.1060  0.1806  0.3619
14230TIP3    H164181   6.497   3.416   4.338  0.9057 -0.1105 -0.3026
14230TIP3    H264182   6.463   3.513   4.226 -0.7485  0.6506  0.8114
14231TIP3   OH264183   5.968   0.776  10.573 -0.3216 -0.0551 -0.3260
14231TIP3    H164184   5.924   0.693  10.557 -1.4604  0.9525 -2.7894
14231TIP3    H264185   6.059   0.760  10.547 -0.3148 -0.7801  0.1236
14232TIP3   OH264186   4.230   1.215   3.008 -0.2474 -0.4735 -0.2206
14232TIP3    H164187   4.247   1.128   3.044 -0.8039 -0.8968 -0.9790
14232TIP3    H264188   4.274   1.274   3.070 -0.6366 -1.2235  0.8070
14233TIP3   OH264189   0.119   3.362  14.561  0.3656 -0.3733 -0.5182
14233TIP3    H164190   0.060   3.406  14.499 -1.1953  1.4074  2.0769
14233TIP3    H264191   0.061   3.312  14.618  1.6393 -0.7678  0.4650
14234TIP3   OH264192   6.354   5.537  15.929 -0.4897 -0.0554  0.2606
14234TIP3    H164193   6.376   5.560  16.019 -2.1963  0.4377  0.6031
14234TIP3    H264194   6.266   5.498  15.936  0.2096 -1.9758 -0.9517
14235TIP3   OH264195   3.429   1.275  13.665 -0.3709  0.1852  0.6094
14235TIP3    H164196   3.383   1.229  13.594  0.5740 -0.0273  0.1234
14235TIP3    H264197   3.450   1.361  13.629  1.5084 -0.4660  0.0320
14236TIP3   OH264198   1.306   4.898   4.072 -0.1090 -0.1093  0.3852
14236TIP3    H164199   1.251   4.822   4.055 -1.7647  0.9448  0.7866
14236TIP3    H264200   1.264   4.969   4.024  2.0811  0.3489 -0.9860
14237TIP3   OH264201   0.614   3.478  13.732 -0.1524 -0.4113  0.7998
14237TIP3    H164202   0.698   3.433  13.718  0.4425  0.2259  2.1006
14237TIP3    H264203   0.639   3.563  13.771 -1.1914  1.2605 -1.8980
14238TIP3   OH264204   0.122   3.602  12.105  0.7554  0.3033 -0.1166
14238TIP3    H164205   0.161   3.678  12.064  0.5356  0.8854  0.7374
14238TIP3    H264206   0.160   3.599  12.192 -0.2580  0.2407  0.3356
14239TIP3   OH264207   3.935   2.533   2.185 -0.9963 -0.1729 -0.3360
14239TIP3    H164208   3.916   2.440   2.181  1.1505 -0.7480  1.0995
14239TIP3    H264209   3.985   2.552   2.106  0.9327 -0.8998  0.6625
14240TIP3   OH264210   5.950   2.199  12.196 -0.0045  0.2622 -0.3192
14240TIP3    H164211   5.899   2.218  12.117 -0.7467  0.5983  0.2248
14240TIP3    H264212   5.960   2.104  12.195 -1.5625  0.0569  0.0874
14241TIP3   OH264213   4.274   1.253  14.996 -0.5902 -0.2393 -0.4468
14241TIP3    H164214   4.356   1.213  15.024 -0.5163 -1.5072 -2.3114
14241TIP3    H264215   4.267   1.233  14.903 -2.7487  0.3050 -0.4722
14242TIP3   OH264216   0.925   0.241   5.791  0.7585 -0.1552  0.0061
14242TIP3    H164217   0.877   0.184   5.731 -0.0187 -0.5055  0.9266
14242TIP3    H264218   0.977   0.181   5.845  1.6354  0.1695 -0.4607
14243TIP3   OH264219   1.889   0.372  14.682 -0.5477 -0.0521  0.0523
14243TIP3    H164220   1.893   0.277  14.692  0.7164  0.0189  0.4359
14243TIP3    H264221   1.802   0.396  14.714 -0.9713 -1.1019 -0.2766
14244TIP3   OH264222   0.785   3.129   4.087 -0.0499  0.2033 -0.3063
14244TIP3    H164223   0.814   3.196   4.025 -0.5446 -0.5276 -1.3628
14244TIP3    H264224   0.712   3.086   4.043  1.3674 -2.2169 -0.4732
14245TIP3   OH264225   5.409   6.149  11.382 -0.1919  0.0379  0.3353
14245TIP3    H164226   5.469   6.221  11.399  0.1405 -0.0544 -0.3908
14245TIP3    H264227   5.370   6.170  11.297  0.5718 -1.0571 -0.3117
14246TIP3   OH264228   6.784   3.007   1.881 -0.5345  0.2985  0.0693
14246TIP3    H164229   6.855   3.034   1.939 -0.7912 -1.0459  1.0763
14246TIP3    H264230   6.780   2.912   1.893 -0.3449 -0.0969 -2.4650
14247TIP3   OH264231   5.297   4.111   2.951  0.0289 -0.2282 -0.4975
14247TIP3    H164232   5.220   4.083   3.000  0.1651 -0.3872 -0.3727
14247TIP3    H264233   5.265   4.126   2.862  0.1134 -1.6663 -0.8015
14248TIP3   OH264234   0.121   5.155  16.866  0.4490  0.3017 -0.0189
14248TIP3    H164235   0.085   5.235  16.827 -1.5258 -0.1500  0.7739
14248TIP3    H264236   0.173   5.185  16.940  0.9011  0.9102 -0.5684
14249TIP3   OH264237   4.010   0.232   5.219 -0.1489 -0.0135  0.1989
14249TIP3    H164238   4.046   0.309   5.175  0.6741 -0.3889  0.1876
14249TIP3    H264239   4.001   0.257   5.311  0.5436 -0.0440  0.2780
14250TIP3   OH264240   3.868   5.469  12.087 -0.3952 -0.1472  0.2906
14250TIP3    H164241   3.777   5.498  12.073 -0.5311  0.5081  2.2258
14250TIP3    H264242   3.920   5.547  12.067 -0.5294  0.5099  2.2797
14251TIP3   OH264243   5.966   0.352  16.039  0.0060 -0.4869  0.0556
14251TIP3    H164244   6.000   0.425  15.987 -0.0866 -0.1524  0.4614
14251TIP3    H264245   5.940   0.392  16.122  1.3809 -1.2128  0.8815
14252TIP3   OH264246   4.446   3.614  14.665  0.0669  0.1325 -0.4475
14252TIP3    H164247   4.500   3.572  14.732 -0.0029 -0.2625 -0.6302
14252TIP3    H264248   4.452   3.554  14.590 -0.6396  0.0709 -0.4607
14253TIP3   OH264249   2.291   1.624  14.116  0.0710  0.1582 -0.1030
14253TIP3    H164250   2.380   1.658  14.122  0.0474  0.2185 -0.0956
14253TIP3    H264251   2.299   1.531  14.137  0.0336  0.2954  0.5375
14254TIP3   OH264252   4.308   1.799   6.397  0.1985 -0.0346  0.3878
14254TIP3    H164253   4.247   1.871   6.415  1.9216  1.1176  2.0811
14254TIP3    H264254   4.299   1.741   6.473  1.9968  0.8002  1.3108
14255TIP3   OH264255   5.882   4.480   0.128 -0.2628  0.3655  0.0315
14255TIP3    H164256   5.898   4.412   0.193  1.7834  0.0743 -0.6821
14255TIP3    H264257   5.865   4.432   0.047  1.2695  0.6255 -0.4946
14256TIP3   OH264258   1.525   1.054  12.452 -0.2229 -0.1974 -0.2797
14256TIP3    H164259   1.576   1.135  12.457 -1.6637  0.6752  1.0173
14256TIP3    H264260   1.518   1.037  12.358 -0.5639  1.6334 -0.6253
14257TIP3   OH264261   3.469   3.270   6.521  0.2117  0.5661 -0.0075
14257TIP3    H164262   3.558   3.304   6.515  0.2620  0.9450  2.2084
14257TIP3    H264263   3.479   3.180   6.551 -0.1287  0.2108 -0.9232
14258TIP3   OH264264   6.556   2.932   3.759 -0.0133 -0.0802 -0.1176
14258TIP3    H164265   6.604   2.902   3.836 -2.0447  0.7898  1.5861
14258TIP3    H264266   6.601   3.012   3.732  1.1173 -0.7547 -0.3086
14259TIP3   OH264267   3.253   2.276   3.607 -0.2072 -0.2456  0.5434
14259TIP3    H164268   3.193   2.332   3.558 -0.1568 -0.1734  0.5653
14259TIP3    H264269   3.246   2.306   3.697 -0.0880 -0.1949  0.5357
14260TIP3   OH264270   3.846   5.092   6.330  0.8392  0.2092  0.4042
14260TIP3    H164271   3.774   5.154   6.320  0.8054  0.5086  2.1891
14260TIP3    H264272   3.804   5.013   6.364  1.1398 -0.1623 -0.0842
14261TIP3   OH264273   3.467   2.734   0.819  0.5502  0.0004 -0.0572
14261TIP3    H164274   3.462   2.673   0.746  0.4814  0.0952 -0.1324
14261TIP3    H264275   3.445   2.681   0.896 -2.4474  0.5127 -0.4178
14262TIP3   OH264276   5.464   6.458   4.224 -0.3164 -0.1228  0.5458
14262TIP3    H164277   5.426   6.410   4.150 -0.2153  0.0070  0.4070
14262TIP3    H264278   5.390   6.501   4.266 -0.0234  2.7473 -1.6105
14263TIP3   OH264279   0.046   0.964   0.053 -0.3116  0.4510  0.5074
14263TIP3    H164280   0.053   0.980  -0.041 -0.6217  3.1450  0.8484
14263TIP3    H264281  -0.048   0.960   0.070 -0.3065  1.5413  0.8798
14264TIP3   OH264282   0.609   6.427   2.975  0.5682  0.5889 -0.7630
14264TIP3    H164283   0.624   6.521   2.980 -1.1074  0.8428  0.9065
14264TIP3    H264284   0.539   6.416   2.911  1.1165  0.4180 -1.3381
14265TIP3   OH264285   5.756   5.336  14.245 -0.1456 -0.7646  0.3009
14265TIP3    H164286   5.818   5.381  14.302 -0.8997 -1.2986  1.5793
14265TIP3    H264287   5.671   5.377  14.264 -0.2419 -0.1537 -1.3036
14266TIP3   OH264288   3.483   4.353  15.256 -0.4474  0.0432 -0.2513
14266TIP3    H164289   3.565   4.378  15.297  0.0021 -0.4924 -0.7999
14266TIP3    H264290   3.421   4.345  15.328  0.0778  0.0861  0.2110
14267TIP3   OH264291   2.477   1.031  14.779  0.5511  0.0233  0.0282
14267TIP3    H164292   2.396   1.001  14.738  1.0872 -2.3037  0.5441
14267TIP3    H264293   2.535   1.052  14.706  0.2434 -0.4806 -0.3616
14268TIP3   OH264294   0.743   6.327  14.421  0.0568 -0.3546  0.3813
14268TIP3    H164295   0.741   6.253  14.481  2.3381  0.6550  1.8335
14268TIP3    H264296   0.784   6.292  14.341 -2.1469 -1.4713 -0.3177
14269TIP3   OH264297   3.980   1.381   2.499 -0.2825 -0.3806 -0.1543
14269TIP3    H164298   4.002   1.391   2.406 -0.6093 -0.3742 -0.2307
14269TIP3    H264299   4.018   1.458   2.541 -2.0877  0.8273 -0.6104
14270TIP3   OH264300   3.258   4.358   5.108 -0.3728 -0.1172  0.1606
14270TIP3    H164301   3.318   4.426   5.077  0.7191 -1.0286  0.1933
14270TIP3    H264302   3.267   4.287   5.045  1.1403 -1.6048  1.9228
14271TIP3   OH264303   3.022   2.218   4.900 -0.1549  0.0041  0.0399
14271TIP3    H164304   3.081   2.290   4.923  0.2961 -0.1762 -0.5278
14271TIP3    H264305   2.961   2.213   4.974  0.4658  0.2668  0.5859
14272TIP3   OH264306   3.815   2.667   6.019  0.1883 -0.0132 -0.0594
14272TIP3    H164307   3.829   2.629   6.106  0.1228  1.7997  0.7940
14272TIP3    H264308   3.720   2.678   6.013 -0.1647 -2.8610 -1.6513
14273TIP3   OH264309   0.451   2.651   3.469 -0.1319 -0.2005 -0.1612
14273TIP3    H164310   0.378   2.652   3.531  0.6171 -0.8153  0.7592
14273TIP3    H264311   0.409   2.643   3.383 -1.2852  2.5553  0.0522
14274TIP3   OH264312   0.775   3.196  13.083  0.0349  0.2419 -0.5188
14274TIP3    H164313   0.858   3.156  13.109 -0.2184 -0.2003 -0.3799
14274TIP3    H264314   0.711   3.164  13.147 -0.6535 -1.0842 -1.7961
14275TIP3   OH264315   4.352   3.014   5.022 -0.1773  0.7135  0.5906
14275TIP3    H164316   4.338   2.992   4.929  1.9598  1.8455 -0.0592
14275TIP3    H264317   4.281   3.075   5.042 -0.2439  1.0397 -0.5356
14276TIP3   OH264318   0.074   2.649  16.233  0.0291 -0.6493  0.0075
14276TIP3    H164319   0.136   2.580  16.253 -0.5900 -1.3989 -0.6053
14276TIP3    H264320   0.093   2.718  16.297  2.2732 -0.3363 -0.8664
14277TIP3   OH264321   3.172   1.847   4.558 -0.4239  0.2481 -0.0850
14277TIP3    H164322   3.122   1.909   4.612  0.0776  0.0849  0.5803
14277TIP3    H264323   3.110   1.777   4.538 -0.6715  0.4068  0.1253
14278TIP3   OH264324   4.876   0.839   3.745  0.3224 -1.0081 -0.3710
14278TIP3    H164325   4.896   0.769   3.808  1.6335 -1.8959 -1.7195
14278TIP3    H264326   4.806   0.802   3.691  1.1026 -1.3462 -1.1639
14279TIP3   OH264327   5.219   5.993   3.813  0.0728 -0.1589 -0.1283
14279TIP3    H164328   5.233   6.064   3.751 -0.1820  1.2427  1.3600
14279TIP3    H264329   5.178   6.035   3.888 -0.2854 -1.9348  0.7028
14280TIP3   OH264330   6.297   4.592   3.634  0.3703 -0.4113  0.3333
14280TIP3    H164331   6.342   4.677   3.629 -1.3951  0.6411  1.2633
14280TIP3    H264332   6.361   4.534   3.676  1.3398  0.6574  0.3944
14281TIP3   OH264333   3.095   3.768   6.849  0.0655 -0.1507  0.5160
14281TIP3    H164334   3.104   3.754   6.755 -0.5739 -0.3608  0.4745
14281TIP3    H264335   3.001   3.754   6.866  0.0518  0.5400  1.0722
14282TIP3   OH264336   4.460   4.700  11.717 -0.3788  0.1704 -0.3395
14282TIP3    H164337   4.403   4.623  11.712 -0.1035 -0.0304 -0.3861
14282TIP3    H264338   4.527   4.676  11.781 -1.1551  0.9441  0.8165
14283TIP3   OH264339   5.076   5.409  14.707 -0.3686 -0.0742  0.1576
14283TIP3    H164340   5.109   5.459  14.781  0.0265  0.9495 -0.6764
14283TIP3    H264341   5.144   5.417  14.640  0.4130 -2.9980  0.4563
14284TIP3   OH264342   6.303   4.770   2.839  0.6690  0.4059 -0.6021
14284TIP3    H164343   6.337   4.720   2.913 -0.0575  0.4528 -0.2295
14284TIP3    H264344   6.377   4.825   2.811  0.6778  1.0681  0.6753
14285TIP3   OH264345   5.343   3.082  16.445  0.1210 -0.1181 -0.5225
14285TIP3    H164346   5.335   3.011  16.381 -1.6674 -0.7293  0.2851
14285TIP3    H264347   5.433   3.111  16.438  1.5654 -3.7750  0.3970
14286TIP3   OH264348   4.447   1.541  14.892 -0.4654 -0.2641 -0.1782
14286TIP3    H164349   4.354   1.556  14.875 -0.3150  1.2512  0.1825
14286TIP3    H264350   4.464   1.588  14.974  0.0673 -2.6713  1.1997
14287TIP3   OH264351   0.329   5.781   1.100 -0.3014  0.0589  0.1636
14287TIP3    H164352   0.324   5.686   1.109 -0.6505  0.0761  0.1838
14287TIP3    H264353   0.422   5.801   1.098 -0.2281 -0.2736  0.2792
14288TIP3   OH264354   4.648   0.967  14.780 -0.0271 -0.0814 -0.2214
14288TIP3    H164355   4.637   0.992  14.872  0.2518 -0.5084 -0.0656
14288TIP3    H264356   4.739   0.988  14.760 -0.1864  0.3384 -0.5052
14289TIP3   OH264357   1.249   1.195   5.359 -0.0839  0.1248 -0.6233
14289TIP3    H164358   1.228   1.282   5.327  0.7180  0.1648 -1.0744
14289TIP3    H264359   1.228   1.198   5.453  0.4303  0.9680 -0.5249
14290TIP3   OH264360   0.218   1.772  14.113  0.0322 -0.0026  0.4578
14290TIP3    H164361   0.170   1.832  14.170 -1.0303  0.2105 -0.6213
14290TIP3    H264362   0.257   1.707  14.172 -2.0640 -0.5150  1.3397
14291TIP3   OH264363   4.113   6.346   4.017  0.2895 -0.1948 -0.1164
14291TIP3    H164364   4.020   6.370   4.013  0.8910  2.2632 -0.5854
14291TIP3    H264365   4.135   6.322   3.927  0.1652 -0.5838 -0.0446
14292TIP3   OH264366   0.569   1.967  16.556  0.0112  0.0385  1.0007
14292TIP3    H164367   0.625   2.041  16.581 -0.1632  0.5555 -0.0947
14292TIP3    H264368   0.627   1.892  16.553  0.4336  0.3674  0.9105
14293TIP3   OH264369   4.452   2.456   2.388  0.1069  0.8222 -0.0344
14293TIP3    H164370   4.407   2.436   2.306  0.6270 -0.0370 -0.1137
14293TIP3    H264371   4.452   2.552   2.392 -1.9386  0.8733  0.0999
14294TIP3   OH264372   0.539   4.221   1.754 -0.0452 -0.0540 -0.4045
14294TIP3    H164373   0.469   4.189   1.698 -0.1491 -0.4816 -0.0364
14294TIP3    H264374   0.498   4.233   1.839  0.1425  0.4627 -0.3823
14295TIP3   OH264375   1.675   1.338  16.267  0.5609 -0.0165 -0.3682
14295TIP3    H164376   1.719   1.323  16.184 -1.7647  0.6309 -1.8270
14295TIP3    H264377   1.701   1.427  16.293 -0.9589  0.9879 -2.0249
14296TIP3   OH264378   1.422   3.954   2.782 -0.1853 -0.9282 -0.4129
14296TIP3    H164379   1.501   3.994   2.818 -0.2648 -1.0256 -0.1297
14296TIP3    H264380   1.362   3.947   2.856 -0.7024 -0.2660 -0.7653
14297TIP3   OH264381   0.857   1.761   4.303 -0.0900 -0.7547 -0.0926
14297TIP3    H164382   0.854   1.846   4.347  0.5022 -0.4101 -0.6982
14297TIP3    H264383   0.918   1.774   4.230 -0.8199 -1.4009 -0.8331
14298TIP3   OH264384   5.466   4.899   4.775 -0.1871  0.8186  0.1842
14298TIP3    H164385   5.489   4.811   4.803  0.7761  0.7338 -0.7985
14298TIP3    H264386   5.402   4.929   4.839  1.0191  0.1933  1.7601
14299TIP3   OH264387   2.103   2.347  13.418  0.1197  0.1022  0.1849
14299TIP3    H164388   2.172   2.364  13.353  0.1853  2.2408  0.7391
14299TIP3    H264389   2.022   2.366  13.371 -0.1436 -2.1038 -0.3686
14300TIP3   OH264390   0.393   3.346   4.685 -0.4951 -0.6612  0.0657
14300TIP3    H164391   0.375   3.288   4.611 -1.0017 -0.0700 -0.2796
14300TIP3    H264392   0.407   3.286   4.759  0.1665 -1.2569 -0.5323
14301TIP3   OH264393   3.193   2.680  16.900  0.3961  0.0882 -0.8925
14301TIP3    H164394   3.101   2.660  16.916  0.1036  0.7476 -1.6568
14301TIP3    H264395   3.236   2.667  16.984 -0.3599 -0.4463 -0.5826
14302TIP3   OH264396   0.346   0.028  14.810  0.1463  0.2141  0.1593
14302TIP3    H164397   0.353   0.098  14.874  0.2192 -1.3897  1.9700
14302TIP3    H264398   0.407   0.053  14.740 -0.4341  2.3269  0.3373
14303TIP3   OH264399   1.507   1.736  14.089  0.6304 -0.2603 -0.2251
14303TIP3    H164400   1.503   1.776  14.002  0.0289  0.5391  0.1557
14303TIP3    H264401   1.576   1.784  14.134 -0.8982  1.2597  0.6395
14304TIP3   OH264402   3.935   2.121  12.871 -0.8449 -0.2384  0.3999
14304TIP3    H164403   4.000   2.191  12.871 -0.8058 -0.2497 -1.1712
14304TIP3    H264404   3.930   2.094  12.963  0.1166  0.9054  0.8200
14305TIP3   OH264405   4.743   5.557   3.358 -0.6048  0.4912  0.4061
14305TIP3    H164406   4.749   5.632   3.299  1.2513  1.0084  1.1748
14305TIP3    H264407   4.677   5.583   3.423  0.5338  1.8099  1.0860
14306TIP3   OH264408   0.328   0.749  13.804 -0.6369  0.1229 -0.9400
14306TIP3    H164409   0.352   0.705  13.723 -0.0858  2.1257 -1.9102
14306TIP3    H264410   0.232   0.755  13.800 -0.6261  0.0535 -1.3493
14307TIP3   OH264411   1.108   3.075  14.486 -0.2496  0.0442  0.1853
14307TIP3    H164412   1.167   3.074  14.561  0.8896  1.6497 -0.6301
14307TIP3    H264413   1.054   3.152  14.499  0.7542  1.0310 -1.1805
14308TIP3   OH264414   0.429   5.838   4.959  0.0589  0.1869 -0.1200
14308TIP3    H164415   0.505   5.853   4.903  0.6619  0.0864  0.6515
14308TIP3    H264416   0.386   5.761   4.922  0.1777  0.4079 -0.7207
14309TIP3   OH264417   5.347   0.126  12.538  0.8565  0.0435 -0.1728
14309TIP3    H164418   5.404   0.122  12.615  0.1163  0.0765  0.3849
14309TIP3    H264419   5.407   0.132  12.464  1.6353 -1.6555  0.2696
14310TIP3   OH264420   5.958   3.450   5.185  0.0270 -0.1926  0.2932
14310TIP3    H164421   5.944   3.513   5.114 -3.9532 -0.9447  0.1428
14310TIP3    H264422   5.925   3.495   5.263  1.6451 -0.4234  1.1348
14311TIP3   OH264423   3.685   2.183  12.273 -0.1903 -0.1675  0.3783
14311TIP3    H164424   3.658   2.116  12.211  1.4754 -1.2120  0.7200
14311TIP3    H264425   3.696   2.136  12.356 -0.2604  0.7841  0.9446
14312TIP3   OH264426   4.308   3.916   3.270 -0.5115  1.3663  0.2420
14312TIP3    H164427   4.260   3.846   3.226  0.7446  1.6281 -1.6763
14312TIP3    H264428   4.250   3.946   3.340 -2.0934  0.0788 -0.4747
14313TIP3   OH264429   4.029   0.425  16.702 -0.2121  0.0548  0.8338
14313TIP3    H164430   4.078   0.504  16.681 -1.5178  0.5578 -0.4677
14313TIP3    H264431   4.051   0.407  16.794  1.6896  0.7312  0.5556
14314TIP3   OH264432   4.881   2.281  13.677  0.1535  0.0977 -0.0142
14314TIP3    H164433   4.845   2.279  13.766 -0.0212 -0.2334 -0.0901
14314TIP3    H264434   4.854   2.197  13.639  0.5330  0.0849 -0.2579
14315TIP3   OH264435   2.562   5.378   5.203  0.0543 -0.7453  0.0273
14315TIP3    H164436   2.574   5.473   5.196 -1.1671 -0.5808  0.0553
14315TIP3    H264437   2.475   5.362   5.167 -0.4229 -1.6597  1.5264
14316TIP3   OH264438   3.219   3.910  11.676  0.3150  0.0130  0.5498
14316TIP3    H164439   3.165   3.893  11.599  0.6889 -1.0974  0.5117
14316TIP3    H264440   3.156   3.929  11.746 -0.0857 -0.4200  0.3101
14317TIP3   OH264441   3.375   0.324   5.024  0.1685 -0.3069 -0.6072
14317TIP3    H164442   3.339   0.295   4.940  0.1628  1.6385 -1.3183
14317TIP3    H264443   3.298   0.334   5.080  0.2622 -2.8454  0.1183
14318TIP3   OH264444   6.683   2.141   3.525 -0.4478 -0.1627  0.1853
14318TIP3    H164445   6.738   2.070   3.493 -1.0657 -0.0914 -1.1002
14318TIP3    H264446   6.651   2.110   3.610 -1.7991 -2.0418 -0.9339
14319TIP3   OH264447   2.828   2.663   1.300  0.0851  0.0049  0.0958
14319TIP3    H164448   2.738   2.634   1.286  0.0733 -1.2185  2.2441
14319TIP3    H264449   2.868   2.660   1.213 -1.6244 -0.4938 -0.7243
14320TIP3   OH264450   3.261   5.872   5.196  0.7173  0.1573 -0.6844
14320TIP3    H164451   3.225   5.959   5.214  1.5639  0.9200 -2.4594
14320TIP3    H264452   3.250   5.825   5.278 -2.4991  0.9455 -0.5357
14321TIP3   OH264453   3.665   2.186  12.793 -0.0103 -0.0255 -0.7527
14321TIP3    H164454   3.684   2.144  12.709 -0.4494  0.6961 -1.2289
14321TIP3    H264455   3.739   2.163  12.848  0.0912 -0.8502 -1.2053
14322TIP3   OH264456   1.319   3.118   1.421 -0.1656 -0.1059  0.2799
14322TIP3    H164457   1.304   3.204   1.383  1.8119  0.0375 -0.2941
14322TIP3    H264458   1.341   3.136   1.513 -0.5219 -0.0686  0.3580
14323TIP3   OH264459   5.601   0.891  14.759 -0.2403 -0.1621  0.1106
14323TIP3    H164460   5.662   0.889  14.685 -1.4826 -1.2413 -0.9424
14323TIP3    H264461   5.604   0.802  14.795 -0.6848 -0.0357  0.4673
14324TIP3   OH264462   4.738   0.213   3.488 -0.2304  0.7428  0.0229
14324TIP3    H164463   4.795   0.290   3.485  2.3815 -1.0751  0.0161
14324TIP3    H264464   4.747   0.180   3.577  0.2061 -0.5884 -0.4914
14325TIP3   OH264465   5.831   4.485   3.870  0.1695  0.2212  0.0056
14325TIP3    H164466   5.821   4.433   3.950 -0.6126 -0.5423 -0.5720
14325TIP3    H264467   5.925   4.502   3.864  0.6344 -2.0874 -0.3513
14326TIP3   OH264468   1.409   3.533  17.169 -0.4308 -0.3139  0.1052
14326TIP3    H164469   1.424   3.527  17.263 -2.9709  0.8330  0.6785
14326TIP3    H264470   1.374   3.621  17.156 -2.1189 -1.1569 -1.5521
14327TIP3   OH264471   4.862   0.967   4.398  1.3911 -0.3455  0.4272
14327TIP3    H164472   4.786   0.915   4.373 -0.2843  2.6988 -1.4211
14327TIP3    H264473   4.840   1.001   4.485  0.2798  0.9980 -0.3428
14328TIP3   OH264474   3.956   0.731   2.884 -0.0881  0.1748  0.0531
14328TIP3    H164475   3.875   0.694   2.919  0.5045  1.1389  2.6809
14328TIP3    H264476   4.016   0.657   2.876 -0.0284 -0.0057  1.8774
14329TIP3   OH264477   3.435   2.317  15.063  0.1158 -0.4357  0.2824
14329TIP3    H164478   3.387   2.352  14.987  0.6099 -1.7999 -0.6884
14329TIP3    H264479   3.458   2.395  15.114 -0.3684  0.5088 -0.8769
14330TIP3   OH264480   0.243   0.168   1.112 -0.2192  0.3428  0.0595
14330TIP3    H164481   0.155   0.147   1.080  0.9767 -4.0735 -1.0443
14330TIP3    H264482   0.245   0.136   1.202 -0.0429  1.7015  0.5739
14331TIP3   OH264483   4.505   6.037  11.962 -0.5101  0.0990  0.1682
14331TIP3    H164484   4.499   6.029  12.057 -0.9391 -0.2007  0.1192
14331TIP3    H264485   4.423   6.001  11.929  0.0703 -0.7869 -0.3710
14332TIP3   OH264486   1.795   3.075   0.179  0.2209  0.1730  0.0418
14332TIP3    H164487   1.757   2.987   0.174  1.4135 -0.3152 -1.0782
14332TIP3    H264488   1.807   3.101   0.088  0.0865  1.4242  0.3654
14333TIP3   OH264489   0.537   5.563   0.538 -0.5799  0.7543 -0.3103
14333TIP3    H164490   0.596   5.554   0.463 -1.1734  0.0578 -0.7064
14333TIP3    H264491   0.585   5.523   0.611 -1.5545 -2.3174 -1.1861
14334TIP3   OH264492   0.239   6.310  10.275  0.0802 -0.2005  0.3778
14334TIP3    H164493   0.249   6.323  10.369 -0.9629 -0.7536  0.5748
14334TIP3    H264494   0.181   6.382  10.247  1.1659  0.5469 -0.0314
14335TIP3   OH264495   2.375   2.592   3.768 -0.0428 -0.1708  0.4203
14335TIP3    H164496   2.392   2.551   3.853  1.2773 -3.9592 -1.4672
14335TIP3    H264497   2.282   2.614   3.771 -0.2196 -0.9257  2.5507
14336TIP3   OH264498   4.901   0.132   5.686 -0.7267  0.0165  0.2819
14336TIP3    H164499   4.923   0.195   5.618 -2.0499  0.4878  0.2630
14336TIP3    H264500   4.811   0.106   5.667 -0.9290 -0.2727  1.5172
14337TIP3   OH264501   6.572   3.070  12.458  0.1657 -0.1339  1.1135
14337TIP3    H164502   6.490   3.097  12.417  0.6961  0.4992  0.4474
14337TIP3    H264503   6.630   3.144  12.447  1.5758 -1.4055 -0.4743
14338TIP3   OH264504   5.649   6.173  14.958 -0.1221  0.3468 -0.1663
14338TIP3    H164505   5.724   6.159  14.900 -0.5088 -1.4887 -0.2740
14338TIP3    H264506   5.614   6.258  14.932  0.5863  0.2128 -1.6523
14339TIP3   OH264507   6.123   3.042  13.102 -0.1682 -0.8838 -0.7538
14339TIP3    H164508   6.105   2.974  13.037  0.9496 -0.4567 -1.5292
14339TIP3    H264509   6.061   3.023  13.173 -1.0719 -1.6592 -1.7051
14340TIP3   OH264510   2.508   1.861  16.292 -0.4214 -0.2779 -0.2781
14340TIP3    H164511   2.496   1.938  16.237  0.4423 -0.8440 -1.2830
14340TIP3    H264512   2.568   1.891  16.361  0.4086 -0.2152 -1.0188
14341TIP3   OH264513   4.597   5.611   5.641 -0.0064  0.3252 -0.0239
14341TIP3    H164514   4.663   5.673   5.610  0.2763 -0.0020 -0.0936
14341TIP3    H264515   4.643   5.557   5.705 -0.5689  0.9452  0.9302
14342TIP3   OH264516   3.052   3.702   0.044  0.0825  0.2615 -0.2266
14342TIP3    H164517   3.049   3.734  -0.046 -0.8315 -3.4961 -1.7316
14342TIP3    H264518   2.974   3.647   0.052  0.9010 -0.6489  2.3732
14343TIP3   OH264519   5.872   1.248   0.917  0.1246  0.3242  0.1735
14343TIP3    H164520   5.876   1.180   0.985  0.6216  0.1232 -0.0516
14343TIP3    H264521   5.954   1.238   0.869 -0.4102  0.1842 -0.7354
14344TIP3   OH264522   1.024   1.255   3.843 -0.2596 -0.0134  0.8875
14344TIP3    H164523   1.108   1.209   3.836 -1.2241 -1.6436 -0.6036
14344TIP3    H264524   0.967   1.212   3.779 -1.5381  2.6500  0.1044
14345TIP3   OH264525   5.012   3.787  17.200 -0.4917  0.5376  0.3044
14345TIP3    H164526   4.917   3.773  17.194 -0.8731  2.9681 -0.6361
14345TIP3    H264527   5.048   3.736  17.127 -1.4527  1.9372 -1.2415
14346TIP3   OH264528   0.444   0.133  13.771 -0.4262 -0.1069 -0.4571
14346TIP3    H164529   0.406   0.048  13.751 -0.5117 -0.2989  0.4459
14346TIP3    H264530   0.539   0.117  13.775 -0.3674  0.0415 -1.1911
14347TIP3   OH264531   5.750   4.044   1.396  0.1625  0.1939 -0.4962
14347TIP3    H164532   5.794   4.061   1.313 -0.6458  0.7317 -0.8206
14347TIP3    H264533   5.705   3.961   1.382  0.4462  0.0259 -0.4193
14348TIP3   OH264534   1.383   0.277  16.809  0.0556 -0.7094 -0.7410
14348TIP3    H164535   1.349   0.188  16.813  0.1563 -0.7399 -0.5637
14348TIP3    H264536   1.307   0.333  16.825  0.3359 -0.8063  1.1788
14349TIP3   OH264537   2.796   2.590  13.227 -0.4352 -0.0384 -0.1690
14349TIP3    H164538   2.760   2.671  13.191 -2.9984 -0.9011  0.2440
14349TIP3    H264539   2.808   2.533  13.151  0.6490  0.4244 -0.3684
14350TIP3   OH264540   3.178   2.051  13.791 -0.7245 -1.0090  0.2887
14350TIP3    H164541   3.232   2.123  13.823 -1.1573 -0.3173 -0.4841
14350TIP3    H264542   3.231   2.009  13.723 -1.1686 -0.2786 -0.5280
14351TIP3   OH264543   0.187   5.379  13.576  0.1346  0.0835  0.1272
14351TIP3    H164544   0.209   5.303  13.523 -1.0580 -0.0202 -0.2396
14351TIP3    H264545   0.248   5.375  13.650  0.7333 -0.6703 -0.3920
14352TIP3   OH264546   1.451   1.536   2.876  0.2493  0.2844 -0.3735
14352TIP3    H164547   1.384   1.501   2.936  1.0967  0.6047  0.7849
14352TIP3    H264548   1.421   1.508   2.789 -1.2393  0.1790  0.1353
14353TIP3   OH264549   3.481   1.283  15.718 -0.8484  0.1253  0.2848
14353TIP3    H164550   3.517   1.308  15.803 -0.2458  1.2267 -0.2664
14353TIP3    H264551   3.503   1.190  15.708 -0.2605  0.1834  1.0026
14354TIP3   OH264552   3.812   1.038  13.533  0.3650 -0.1543 -0.6155
14354TIP3    H164553   3.778   0.987  13.460 -1.1078  1.8767 -1.4229
14354TIP3    H264554   3.770   1.001  13.610 -1.3076  0.3077 -1.2714
14355TIP3   OH264555   3.342   6.650  13.101  0.5082 -0.6661  0.1040
14355TIP3    H164556   3.275   6.585  13.079 -0.1517 -0.0196  0.1724
14355TIP3    H264557   3.315   6.730  13.056  0.5888 -0.0628  1.0894
14356TIP3   OH264558   2.841   0.635  17.001  0.6603  0.2817 -0.2823
14356TIP3    H164559   2.847   0.612  17.094 -1.1097  0.0916 -0.1711
14356TIP3    H264560   2.780   0.571  16.964 -0.5418  1.7822 -1.0391
14357TIP3   OH264561   0.284   6.684  13.255  0.5906  0.8135 -0.5034
14357TIP3    H164562   0.242   6.770  13.252  0.4756  0.7536 -0.6113
14357TIP3    H264563   0.228   6.628  13.201  0.4353  0.5710 -0.1021
14358TIP3   OH264564   6.478   4.729  15.484 -0.1935  0.8243 -0.7214
14358TIP3    H164565   6.510   4.682  15.561 -2.3332 -0.3211 -0.4828
14358TIP3    H264566   6.507   4.820  15.498  1.0097  0.2922  0.5031
14359TIP3   OH264567   4.464   2.579  12.337 -0.2196  0.1117  0.4116
14359TIP3    H164568   4.521   2.505  12.356 -0.2160  0.5791  2.4416
14359TIP3    H264569   4.511   2.630  12.271  1.8892  0.6275  2.2025
14360TIP3   OH264570   1.214   2.265  15.415 -0.5015  0.9911  0.1167
14360TIP3    H164571   1.240   2.351  15.449  1.4443  0.4411  0.1060
14360TIP3    H264572   1.270   2.203  15.461  0.0383 -0.0356 -1.8078
14361TIP3   OH264573   1.984   4.002   2.502 -0.0797 -0.2660  0.0591
14361TIP3    H164574   2.036   4.033   2.427 -0.9367 -0.3446 -0.5817
14361TIP3    H264575   2.007   4.062   2.573 -0.7975  1.1408 -0.8254
14362TIP3   OH264576   1.128   0.245  14.501  0.6726 -0.1167 -0.0977
14362TIP3    H164577   1.037   0.242  14.469  0.4556  1.1801  0.3631
14362TIP3    H264578   1.177   0.193  14.437 -0.3808 -0.8394 -0.3589
14363TIP3   OH264579   5.175   0.117  13.675 -0.1179  0.4973  0.5624
14363TIP3    H164580   5.117   0.058  13.723 -2.3008  0.2352 -2.2115
14363TIP3    H264581   5.262   0.079  13.687 -1.3060 -2.8777 -0.3694
14364TIP3   OH264582   6.421   3.001   5.653 -0.2100  0.2825  0.3473
14364TIP3    H164583   6.485   3.064   5.685 -0.3916  0.8443 -0.3672
14364TIP3    H264584   6.463   2.961   5.577  0.8997 -2.2249  2.1404
14365TIP3   OH264585   0.650   4.443  17.212  0.2986  0.2706  0.0174
14365TIP3    H164586   0.746   4.441  17.203  0.3029  2.0576 -0.6848
14365TIP3    H264587   0.633   4.400  17.295  1.5983 -1.3470 -0.4840
14366TIP3   OH264588   1.138   2.063  13.492  0.4449 -0.3167  0.2885
14366TIP3    H164589   1.161   1.988  13.436  1.1083 -0.5696  0.8936
14366TIP3    H264590   1.154   2.140  13.437 -0.3910 -0.6100 -0.3901
14367TIP3   OH264591   0.928   5.883  13.219 -0.2441  0.8581 -0.2553
14367TIP3    H164592   0.855   5.830  13.252  0.5246  0.6909  1.2525
14367TIP3    H264593   0.949   5.943  13.291  1.1908  0.8095 -0.6039
14368TIP3   OH264594   0.646   0.357   4.119  0.1123 -0.3555 -0.0630
14368TIP3    H164595   0.589   0.432   4.140  0.0211 -0.1843 -0.9010
14368TIP3    H264596   0.710   0.393   4.057  1.2340 -0.5099  0.9711
14369TIP3   OH264597   1.774   4.297   4.714 -0.4285 -0.0255 -0.2418
14369TIP3    H164598   1.693   4.247   4.720 -0.6810  0.4178  0.1249
14369TIP3    H264599   1.745   4.387   4.701  0.0244 -0.0290 -1.3461
14370TIP3   OH264600   4.691   6.488   6.485 -0.0254  0.3926  0.1252
14370TIP3    H164601   4.781   6.459   6.468 -1.0637 -2.9045 -0.5572
14370TIP3    H264602   4.652   6.492   6.398 -1.2335 -1.0103  0.5698
14371TIP3   OH264603   0.359   4.078   1.363 -0.2030  0.6762 -0.1359
14371TIP3    H164604   0.289   4.073   1.298  0.4803 -0.5322 -0.8140
14371TIP3    H264605   0.404   3.994   1.356  2.0013  1.8091 -0.5040
14372TIP3   OH264606   0.108   1.950  15.175 -0.1636 -0.7059 -0.4873
14372TIP3    H164607   0.140   1.952  15.265 -2.5578 -0.8593  0.4549
14372TIP3    H264608   0.154   2.022  15.132  0.4818 -0.1272  1.0797
14373TIP3   OH264609   3.578   2.873  11.632  0.4704  0.0140  0.1617
14373TIP3    H164610   3.550   2.877  11.723 -0.1474  0.2764 -0.0412
14373TIP3    H264611   3.593   2.964  11.607  0.9802 -0.0818  0.1024
14374TIP3   OH264612   4.638   0.490  17.264  0.3036  0.2781 -0.2542
14374TIP3    H164613   4.610   0.561  17.205  0.3131  1.0332  0.6307
14374TIP3    H264614   4.726   0.468  17.234 -0.8313 -1.5640 -2.5450
14375TIP3   OH264615   4.321   3.400  11.407 -0.2652  0.1492  0.3414
14375TIP3    H164616   4.333   3.311  11.374  0.2765 -0.4399  1.9900
14375TIP3    H264617   4.317   3.455  11.329 -0.4340 -1.2981 -0.7073
14376TIP3   OH264618   2.290   6.313  14.823  0.2521  0.0946  0.2077
14376TIP3    H164619   2.334   6.397  14.822  1.0759 -0.3275  0.2300
14376TIP3    H264620   2.308   6.277  14.910 -0.1337 -0.0809  0.2171
14377TIP3   OH264621   0.292   6.096  17.197  0.2544 -0.6270 -0.2330
14377TIP3    H164622   0.241   6.105  17.277  0.9365  0.4311  0.0980
14377TIP3    H264623   0.273   6.175  17.146  0.8121 -0.6830 -0.5384
14378TIP3   OH264624   5.180   1.554   0.934  0.1222 -0.2326  0.6175
14378TIP3    H164625   5.195   1.538   1.028 -0.5748 -0.8964  0.6227
14378TIP3    H264626   5.231   1.486   0.890 -0.9015 -0.9989  0.5736
14379TIP3   OH264627   2.332   3.153  16.134  0.1261 -0.0699 -0.1629
14379TIP3    H164628   2.366   3.069  16.167  0.2421  0.1453  0.2740
14379TIP3    H264629   2.345   3.214  16.207 -0.1035  0.2928 -0.4246
14380TIP3   OH264630   5.882   5.782  16.259 -0.2709  0.4998  0.0859
14380TIP3    H164631   5.960   5.738  16.226  0.3508  2.7546 -1.7321
14380TIP3    H264632   5.915   5.860  16.304 -1.3836 -0.1129  2.0828
14381TIP3   OH264633   3.713   4.495  17.114  0.0633 -0.3096  0.3229
14381TIP3    H164634   3.689   4.421  17.058 -0.9537  0.0592  0.2441
14381TIP3    H264635   3.670   4.475  17.198  0.6383 -0.3071  0.6202
14382TIP3   OH264636   3.897   3.778  16.033 -0.2449  0.0686 -0.3994
14382TIP3    H164637   3.991   3.778  16.048 -0.1965  0.8640 -0.6283
14382TIP3    H264638   3.859   3.770  16.120  0.0411  1.1162 -0.1613
14383TIP3   OH264639   6.597   5.453   2.628 -0.4022  0.3498 -0.0734
14383TIP3    H164640   6.628   5.491   2.710  3.0706  1.0153 -1.5178
14383TIP3    H264641   6.624   5.515   2.560 -0.4780 -1.5516 -1.9696
14384TIP3   OH264642   5.675   1.596   6.560 -0.0188  0.6476 -0.3089
14384TIP3    H164643   5.651   1.677   6.606  2.5206  1.1271  0.3174
14384TIP3    H264644   5.668   1.528   6.626 -0.1871  0.6848 -0.2873
14385TIP3   OH264645   6.641   6.686   1.982  0.3035 -0.6966 -0.5409
14385TIP3    H164646   6.672   6.627   2.051  0.3108 -1.1980 -0.9693
14385TIP3    H264647   6.590   6.752   2.029  0.7508 -0.7291  0.0038
14386TIP3   OH264648   3.008   4.933   4.803 -0.3682  0.3659 -0.4660
14386TIP3    H164649   3.093   4.904   4.836 -1.2894 -2.0484 -0.0148
14386TIP3    H264650   3.009   4.909   4.710 -1.0666 -0.9884 -0.1357
14387TIP3   OH264651   0.809   5.788   2.789  0.3041  0.5800 -0.2249
14387TIP3    H164652   0.827   5.773   2.881 -0.1609 -2.0664 -0.4929
14387TIP3    H264653   0.829   5.881   2.775  0.8616  0.9146  2.3864
14388TIP3   OH264654   3.267   3.081  12.026  0.2731 -0.1603 -1.2876
14388TIP3    H164655   3.207   3.008  12.013 -0.7963  0.3624  0.4376
14388TIP3    H264656   3.218   3.159  12.000 -0.5267  0.4627  1.7048
14389TIP3   OH264657   0.108   1.449  11.076 -0.1822  0.0542  0.0247
14389TIP3    H164658   0.091   1.382  11.143  1.2854 -1.6702 -1.2342
14389TIP3    H264659   0.043   1.431  11.008  0.3663 -0.2772 -0.4217
14390TIP3   OH264660   3.253   1.599   1.816 -0.1764 -0.1915  0.2814
14390TIP3    H164661   3.338   1.640   1.799  0.3010 -0.4371  1.8722
14390TIP3    H264662   3.217   1.581   1.730  1.2111  0.2875 -0.4288
14391TIP3   OH264663   2.689   0.082   0.343  0.1016 -0.3555  0.0035
14391TIP3    H164664   2.695   0.132   0.424  0.6583 -0.0860 -0.1989
14391TIP3    H264665   2.649  -0.000   0.369 -0.5463  0.0747  0.3958
14392TIP3   OH264666   3.540   2.261   3.048  0.2159  0.1575  0.1091
14392TIP3    H164667   3.588   2.184   3.079  0.4390  0.7912  1.4000
14392TIP3    H264668   3.541   2.253   2.953  3.7966  0.6101 -0.0457
14393TIP3   OH264669   1.140   1.970   6.222  0.1139  0.0184 -0.1938
14393TIP3    H164670   1.214   2.030   6.215  0.6017 -0.2511  2.0164
14393TIP3    H264671   1.063   2.027   6.225  0.4217  0.4311 -0.0043
14394TIP3   OH264672   3.401   3.738   1.583 -0.3707  0.7470 -0.1562
14394TIP3    H164673   3.348   3.685   1.523 -1.8176  2.6555 -0.6416
14394TIP3    H264674   3.364   3.721   1.669  0.2982 -0.2981 -0.0443
14395TIP3   OH264675   5.699   5.596   1.328 -0.3236 -0.1830  0.7390
14395TIP3    H164676   5.689   5.655   1.253  0.2668 -1.2206 -0.1845
14395TIP3    H264677   5.768   5.535   1.302 -1.2519 -1.5879  1.4633
14396TIP3   OH264678   1.984   4.359  16.799  0.6587 -0.0700 -0.8504
14396TIP3    H164679   1.942   4.273  16.799 -1.6379  0.9725 -0.8870
14396TIP3    H264680   2.056   4.350  16.861 -1.3057 -1.2467  1.4433
14397TIP3   OH264681   3.550   1.932  15.021  0.1027 -0.3065  0.2371
14397TIP3    H164682   3.549   1.997  14.951 -0.0133 -0.9583 -0.3667
14397TIP3    H264683   3.579   1.851  14.979 -4.8413 -2.1294 -0.3543
14398TIP3   OH264684   0.889   0.793   3.539  0.8663  0.0868  0.1698
14398TIP3    H164685   0.942   0.844   3.601  0.0200  0.6082  0.4832
14398TIP3    H264686   0.801   0.793   3.578  0.1010  1.1840 -1.4677
14399TIP3   OH264687   6.722   5.563   3.893  0.1157 -0.1359  0.6357
14399TIP3    H164688   6.629   5.554   3.916 -0.0887  1.2230  0.4159
14399TIP3    H264689   6.751   5.639   3.944  1.0327 -0.3621  0.4587
14400TIP3   OH264690   5.257   5.154  14.803 -0.3146  0.2246  0.1485
14400TIP3    H164691   5.273   5.247  14.820  1.7457  0.0166 -0.3975
14400TIP3    H264692   5.161   5.146  14.801 -0.5808  2.7036 -1.6741
14401TIP3   OH264693   6.517   0.966  14.610 -0.1951 -0.2853  0.7744
14401TIP3    H164694   6.473   0.915  14.542  1.0396  0.5262 -0.6792
14401TIP3    H264695   6.609   0.968  14.583  0.2620  0.3598  2.2849
14402TIP3   OH264696   2.343   5.405   0.554 -0.1336  0.3785 -0.5558
14402TIP3    H164697   2.406   5.465   0.515 -0.5177  1.4367  0.4006
14402TIP3    H264698   2.322   5.444   0.639 -3.2916  0.9499 -1.4739
14403TIP3   OH264699   0.182   4.426  14.454 -0.5330 -0.4435  0.4759
14403TIP3    H164700   0.243   4.366  14.411 -1.5790 -1.9603  1.0261
14403TIP3    H264701   0.124   4.456  14.383  1.0288  1.3154 -0.1237
14404TIP3   OH264702   6.242   1.098  15.733  0.3511  0.3137 -0.3869
14404TIP3    H164703   6.193   1.121  15.655  1.3302 -1.6560 -1.6629
14404TIP3    H264704   6.334   1.110  15.708  0.6574  0.7424  0.8517
14405TIP3   OH264705   5.650   1.890  14.185  0.1236  0.8092 -0.3707
14405TIP3    H164706   5.730   1.840  14.199 -1.3422 -2.5453 -2.7507
14405TIP3    H264707   5.663   1.934  14.101  0.0182  1.4999 -0.0333
14406TIP3   OH264708   3.813   2.294   2.064 -0.1646 -0.9062  0.1399
14406TIP3    H164709   3.782   2.231   2.128  1.5226 -0.3343  1.6186
14406TIP3    H264710   3.892   2.254   2.027 -0.5028 -0.7435 -0.7896
14407TIP3   OH264711   3.345   6.738  16.812  0.6788 -0.3096  0.8614
14407TIP3    H164712   3.303   6.652  16.816 -2.3365  0.8754 -1.3417
14407TIP3    H264713   3.284   6.792  16.761  3.5350  2.5245  0.1307
14408TIP3   OH264714   0.545   5.088  15.549  0.2338  0.1829 -0.7474
14408TIP3    H164715   0.538   5.174  15.590 -4.8977  0.3041 -1.2465
14408TIP3    H264716   0.554   5.027  15.622  2.3554  0.9444 -0.3095
14409TIP3   OH264717   6.075   0.502  12.937  0.0101  0.2791  0.1170
14409TIP3    H164718   6.072   0.577  12.878  0.1271 -0.1795 -0.4967
14409TIP3    H264719   6.037   0.430  12.885  0.1657 -0.1482  0.5848
14410TIP3   OH264720   5.317   3.612  17.338  0.4457 -0.1597 -0.2984
14410TIP3    H164721   5.312   3.658  17.422 -0.1272 -2.0996  0.7895
14410TIP3    H264722   5.227   3.606  17.308  0.6034  0.1522 -0.8487
14411TIP3   OH264723   2.232   2.656   2.276 -0.5517  0.1131  0.0634
14411TIP3    H164724   2.275   2.715   2.337 -1.0096 -0.1952  0.7086
14411TIP3    H264725   2.141   2.686   2.273 -0.4303  0.4208 -0.8479
14412TIP3   OH264726   3.874   5.172   1.564  0.4283 -0.1399 -0.0368
14412TIP3    H164727   3.886   5.232   1.638 -0.3004 -0.7006  0.5486
14412TIP3    H264728   3.934   5.100   1.583  0.1050 -0.3727  0.1133
14413TIP3   OH264729   6.069   3.655   5.746  0.8658 -0.0584  0.0069
14413TIP3    H164730   6.162   3.675   5.761  0.6496  0.5904  0.5144
14413TIP3    H264731   6.040   3.720   5.683  0.7333 -0.2071 -0.0864
14414TIP3   OH264732   3.818   5.270  14.292 -0.1148  0.0011  0.3466
14414TIP3    H164733   3.793   5.212  14.219  2.5456  0.4803 -1.0681
14414TIP3    H264734   3.746   5.334  14.297 -0.2343  0.1639 -2.1422
14415TIP3   OH264735   6.415   4.342  15.481 -0.3662 -0.0831  0.3713
14415TIP3    H164736   6.367   4.385  15.551  1.2724  0.0594  1.4545
14415TIP3    H264737   6.501   4.322  15.519 -0.7508 -3.6056 -0.3260
14416TIP3   OH264738   0.085   4.845   0.019 -0.1339  0.7158 -0.0635
14416TIP3    H164739   0.022   4.906   0.057 -1.1300 -0.7101  0.6908
14416TIP3    H264740   0.109   4.787   0.091  1.4804  0.7382 -0.5403
14417TIP3   OH264741   2.330   2.663  13.220  0.0213 -0.4767  0.5496
14417TIP3    H164742   2.271   2.597  13.255 -0.8919  0.3859  0.6814
14417TIP3    H264743   2.403   2.666  13.283  0.9005 -2.4636 -0.2984
14418TIP3   OH264744   5.691   0.223   5.273  0.4632 -0.2837  0.2664
14418TIP3    H164745   5.741   0.163   5.328  1.1864  0.8375  0.8941
14418TIP3    H264746   5.740   0.305   5.277 -1.6555  1.0323  1.3207
14419TIP3   OH264747   0.527   6.314  15.250 -0.7260 -0.4060  0.3538
14419TIP3    H164748   0.497   6.270  15.329 -1.0796 -2.4549 -0.8372
14419TIP3    H264749   0.461   6.291  15.184  0.0203  0.5065 -0.7384
14420TIP3   OH264750   5.373   5.242  16.735  0.3156  0.0814  0.7303
14420TIP3    H164751   5.437   5.261  16.666  1.4877 -2.5289  0.9719
14420TIP3    H264752   5.289   5.238  16.689  1.3836 -4.8096 -1.5076
14421TIP3   OH264753   6.475   4.690  14.137 -0.4577  0.8189  0.6979
14421TIP3    H164754   6.476   4.602  14.100 -1.7688  0.9502  0.3038
14421TIP3    H264755   6.421   4.683  14.216  0.0209  1.1218  1.0555
14422TIP3   OH264756   2.665   6.037  11.237 -0.1338  0.0967 -0.1378
14422TIP3    H164757   2.756   6.024  11.208 -0.6611  1.0242 -2.3944
14422TIP3    H264758   2.653   5.972  11.306  2.5501  0.6552  0.9895
14423TIP3   OH264759   4.844   1.173   2.013  0.1341  0.2294  0.3439
14423TIP3    H164760   4.842   1.171   1.917  0.6488  0.9396  0.3087
14423TIP3    H264761   4.906   1.104   2.037 -0.9944 -0.8561  0.2297
14424TIP3   OH264762   6.490   2.005   2.871  0.3205 -0.5271 -0.7182
14424TIP3    H164763   6.548   1.982   2.944 -0.3324 -1.0681 -0.3515
14424TIP3    H264764   6.436   2.077   2.905  1.0590  0.2843 -1.2112
14425TIP3   OH264765   5.233   6.703  14.753  0.1395 -0.1399  0.0162
14425TIP3    H164766   5.286   6.771  14.795  0.3686 -0.9646  1.0871
14425TIP3    H264767   5.283   6.680  14.674  0.6800  0.0597  0.2941
14426TIP3   OH264768   2.685   6.614  10.520  0.6232  0.2040  0.3682
14426TIP3    H164769   2.715   6.705  10.524  1.1238 -0.0056  2.0360
14426TIP3    H264770   2.591   6.619  10.535  0.4286  0.5391 -0.8713
14427TIP3   OH264771   3.034   1.035   2.741 -0.7028 -0.2488  0.4596
14427TIP3    H164772   3.003   1.124   2.722  0.8570  0.2876  0.2716
14427TIP3    H264773   3.103   1.048   2.807 -0.3790 -1.3137  0.3403
14428TIP3   OH264774   0.924   2.871   3.323 -0.6390  0.2089  0.5355
14428TIP3    H164775   0.849   2.861   3.265 -0.7716 -1.4274  0.9320
14428TIP3    H264776   0.913   2.802   3.389  1.2939 -0.1997  0.4965
14429TIP3   OH264777   2.250   5.302   3.342 -0.5605 -0.3337 -0.2401
14429TIP3    H164778   2.270   5.343   3.426  0.8391  0.2350 -0.8214
14429TIP3    H264779   2.271   5.209   3.355  0.1678 -0.1583 -0.0933
14430TIP3   OH264780   0.856   4.402  16.899 -0.5981  0.0889 -0.0797
14430TIP3    H164781   0.767   4.367  16.905 -0.7983  0.6517  0.3648
14430TIP3    H264782   0.902   4.365  16.975 -0.4555 -0.2002 -0.3085
14431TIP3   OH264783   5.768   2.918   2.445 -0.2091  0.1593  0.0717
14431TIP3    H164784   5.800   2.995   2.399  0.1055 -0.0737 -0.1089
14431TIP3    H264785   5.756   2.947   2.535  0.6691  0.2180  0.1763
14432TIP3   OH264786   1.130   2.055   4.190  0.4706  0.3629 -0.5181
14432TIP3    H164787   1.191   2.080   4.259  1.2845  0.8948 -1.4066
14432TIP3    H264788   1.155   1.965   4.168  0.2753  0.2280 -0.1930
14433TIP3   OH264789   2.395   4.343   4.487 -0.5954 -0.6615  0.3738
14433TIP3    H164790   2.459   4.408   4.514 -2.0777  1.5733 -1.1589
14433TIP3    H264791   2.320   4.358   4.546  0.0661 -3.0470  1.9657
14434TIP3   OH264792   1.041   3.551  14.357  0.0147  0.2091 -0.6730
14434TIP3    H164793   1.112   3.579  14.299  0.2181 -0.5625 -0.8078
14434TIP3    H264794   0.971   3.614  14.341  0.8104  1.2303 -0.2320
14435TIP3   OH264795   0.662   6.685   0.837  0.6265  0.2120  0.5725
14435TIP3    H164796   0.571   6.697   0.809  1.0195  1.5984 -0.2274
14435TIP3    H264797   0.712   6.747   0.783  2.2273 -1.4771 -0.0000
14436TIP3   OH264798   0.129   6.065  15.795  0.3093 -0.2010  0.1862
14436TIP3    H164799   0.195   6.030  15.854  1.9268  0.7314 -0.9721
14436TIP3    H264800   0.117   6.156  15.823  0.1913 -0.1106 -0.1486
14437TIP3   OH264801   4.373   6.535   2.718  0.8499 -0.1764  0.5045
14437TIP3    H164802   4.281   6.563   2.720  0.6721 -0.6604 -0.4399
14437TIP3    H264803   4.391   6.506   2.807  1.4328  4.0531  2.0123
14438TIP3   OH264804   6.661   2.813  11.949 -0.0396  0.6741  0.6890
14438TIP3    H164805   6.626   2.854  11.870  0.9860  0.4681  0.1047
14438TIP3    H264806   6.639   2.873  12.020 -2.2886  0.1490  0.4961
14439TIP3   OH264807   5.281   1.024   6.151  0.0182  0.3019 -0.0057
14439TIP3    H164808   5.356   1.082   6.140  0.7374 -0.4538  0.8001
14439TIP3    H264809   5.265   1.024   6.245  1.0072 -1.9830  0.2094
14440TIP3   OH264810   1.140   4.899   5.611 -0.5834  0.1875 -0.0492
14440TIP3    H164811   1.230   4.886   5.582 -0.7867  0.2015 -0.7046
14440TIP3    H264812   1.145   4.895   5.707  0.5265  2.7513  0.0857
14441TIP3   OH264813   4.441   3.987   4.551  0.1275  0.0192 -0.3870
14441TIP3    H164814   4.517   4.025   4.507  0.9782 -1.5795 -0.3904
14441TIP3    H264815   4.393   3.943   4.481 -0.7654  0.9213 -0.3652
14442TIP3   OH264816   0.625   6.663  11.965  0.5185 -0.3340 -0.2911
14442TIP3    H164817   0.714   6.686  11.991  0.6076  0.4690 -1.2337
14442TIP3    H264818   0.589   6.744  11.928 -0.2728 -0.8970 -0.7887
14443TIP3   OH264819   4.699   6.694  15.612  0.3704  0.5400 -0.2749
14443TIP3    H164820   4.780   6.675  15.659  0.6408  0.9407 -0.5694
14443TIP3    H264821   4.703   6.788  15.595 -0.3326  0.6304  0.0298
14444TIP3   OH264822   6.425   1.640  13.633 -0.0039 -0.2482  0.0417
14444TIP3    H164823   6.375   1.698  13.691 -0.7257 -0.4207 -0.3956
14444TIP3    H264824   6.494   1.695  13.598 -0.8221  0.4330 -0.5552
14445TIP3   OH264825   2.181   6.562  15.275  0.1698 -0.2645 -0.0485
14445TIP3    H164826   2.182   6.484  15.220 -2.7250 -0.0563 -0.5515
14445TIP3    H264827   2.145   6.532  15.358 -1.1874  0.5385 -0.3226
14446TIP3   OH264828   5.603   0.553   3.374 -0.2725 -0.2783  0.3136
14446TIP3    H164829   5.591   0.464   3.406 -0.1684 -0.1643  0.6748
14446TIP3    H264830   5.515   0.581   3.347 -0.3232 -0.4487  0.3015
14447TIP3   OH264831   2.766   6.037   3.890 -0.0025  0.2445 -0.0920
14447TIP3    H164832   2.819   6.065   3.965  0.4314  1.8653 -0.9692
14447TIP3    H264833   2.829   6.011   3.824 -0.3463  0.3098 -0.4479
14448TIP3   OH264834   1.839   1.506   1.052 -0.3646 -0.3642  0.1176
14448TIP3    H164835   1.923   1.549   1.068  0.1492 -2.0998  2.6308
14448TIP3    H264836   1.804   1.487   1.139 -2.2170 -1.8463 -0.8697
14449TIP3   OH264837   1.316   2.483  15.559  0.0495 -0.3976 -0.4492
14449TIP3    H164838   1.363   2.469  15.642  0.3241  1.8283 -0.1636
14449TIP3    H264839   1.227   2.504  15.586  0.1229  0.2668 -0.7120
14450TIP3   OH264840   5.624   4.557  16.399  0.3626  0.3321  0.0710
14450TIP3    H164841   5.566   4.629  16.423  0.8330  0.7091  0.0891
14450TIP3    H264842   5.711   4.585  16.428  0.3024 -0.9896  1.7235
14451TIP3   OH264843   2.001   3.216  16.877  0.0065 -0.3560  0.0128
14451TIP3    H164844   2.041   3.237  16.961 -0.0290 -1.0322  0.2024
14451TIP3    H264845   1.923   3.271  16.873  0.0583 -0.2557  0.3755
14452TIP3   OH264846   6.519   4.507  11.879  0.2883  0.2690 -0.1230
14452TIP3    H164847   6.537   4.459  11.959 -1.7771 -2.0650 -0.9348
14452TIP3    H264848   6.486   4.441  11.818 -1.0466  2.4376 -1.9156
14453TIP3   OH264849   6.057   0.458  12.423 -0.4809 -0.5195  0.4644
14453TIP3    H164850   6.008   0.539  12.436  1.8682  1.3133 -1.2180
14453TIP3    H264851   6.126   0.461  12.489  0.3938 -0.4498 -0.4242
14454TIP3   OH264852   3.392   2.544   3.454  0.3764  0.1787  0.1216
14454TIP3    H164853   3.300   2.567   3.438  0.2804 -0.8938 -1.0484
14454TIP3    H264854   3.440   2.583   3.381  0.9127  1.0213  0.9106
14455TIP3   OH264855   2.833   3.283  16.786 -0.0537 -0.6545  0.5256
14455TIP3    H164856   2.868   3.333  16.859  0.1778  2.9685 -1.8444
14455TIP3    H264857   2.909   3.236  16.751  1.1828  1.9920 -0.6175
14456TIP3   OH264858   1.721   3.099   4.088 -0.1367  0.2702 -0.2233
14456TIP3    H164859   1.703   3.154   4.012 -1.2445 -0.4784 -0.5340
14456TIP3    H264860   1.749   3.015   4.051 -0.8247 -0.1483  0.1793
14457TIP3   OH264861   0.901   4.198   2.945  0.3689  0.3612 -0.0772
14457TIP3    H164862   0.903   4.163   2.856  0.0236 -0.3027  0.1667
14457TIP3    H264863   0.927   4.125   3.000 -1.5386  0.0931  0.5474
14458TIP3   OH264864   3.543   4.807   6.393  0.4734  0.1896 -0.2089
14458TIP3    H164865   3.533   4.824   6.299 -0.9334 -0.8683 -0.2725
14458TIP3    H264866   3.514   4.888   6.435 -1.2640 -0.1627 -0.6426
14459TIP3   OH264867   0.162   1.677  13.352 -0.0624 -0.0717 -0.2301
14459TIP3    H164868   0.100   1.749  13.345 -0.6370 -0.4571  0.7383
14459TIP3    H264869   0.108   1.598  13.345  0.4138 -0.4150 -0.1160
14460TIP3   OH264870   2.326   2.353   4.511  0.3208  1.1248  0.3446
14460TIP3    H164871   2.410   2.316   4.538  0.0964  0.0836 -0.3027
14460TIP3    H264872   2.260   2.297   4.551 -0.0266  0.6249 -0.8714
14461TIP3   OH264873   4.113   6.603  11.480  0.4181  0.5346 -0.4665
14461TIP3    H164874   4.149   6.527  11.525 -0.7149  0.9290  1.2340
14461TIP3    H264875   4.157   6.605  11.396  0.5691 -1.9227 -0.5070
14462TIP3   OH264876   6.444   6.244  15.769 -0.0179 -0.1964 -0.2581
14462TIP3    H164877   6.487   6.199  15.841  0.7783  0.5195 -0.2730
14462TIP3    H264878   6.351   6.226  15.782  0.1939 -0.8753  0.3875
14463TIP3   OH264879   4.653   6.205  14.994 -0.7967  0.5158 -0.4925
14463TIP3    H164880   4.695   6.213  14.908 -0.5196  1.4426 -0.2746
14463TIP3    H264881   4.661   6.292  15.033 -0.6150  0.0161  0.6188
14464TIP3   OH264882   1.273   2.628   3.273  0.6269 -0.3150  0.4139
14464TIP3    H164883   1.348   2.601   3.219  0.3445  1.6104 -1.0693
14464TIP3    H264884   1.197   2.608   3.218  0.4092  3.3411 -0.8595
14465TIP3   OH264885   3.656   0.905   2.169  0.2808 -0.6574 -0.1867
14465TIP3    H164886   3.624   0.882   2.082  0.0038 -1.2071  0.0619
14465TIP3    H264887   3.680   0.822   2.209 -0.1010 -0.4584  0.4683
14466TIP3   OH264888   5.549   0.061  16.375  0.3398 -0.0800  0.0363
14466TIP3    H164889   5.479   0.126  16.365  1.0355  0.6761 -0.0618
14466TIP3    H264890   5.628   0.113  16.391  0.4880 -1.0003  2.6532
14467TIP3   OH264891   1.101   5.053  11.858 -0.4140  0.3959  0.4776
14467TIP3    H164892   1.127   5.023  11.945 -2.1350 -2.0572  0.2427
14467TIP3    H264893   1.023   5.106  11.874 -0.9541 -0.3696  0.4282
14468TIP3   OH264894   4.363   1.180   5.601 -0.5911  0.6900 -0.3556
14468TIP3    H164895   4.391   1.255   5.654 -1.2407  0.9646 -0.3928
14468TIP3    H264896   4.389   1.103   5.653  0.6791  0.9135 -0.6242
14469TIP3   OH264897   6.195   5.086  10.481  0.3390 -0.2776 -0.1693
14469TIP3    H164898   6.180   4.995  10.505 -0.4848  0.1714  1.1229
14469TIP3    H264899   6.289   5.100  10.494  0.4439 -0.8883 -0.2512
14470TIP3   OH264900   2.775   4.539   2.651  0.3132  0.3297  0.0243
14470TIP3    H164901   2.763   4.634   2.660 -0.3198  0.1442  1.4550
14470TIP3    H264902   2.854   4.530   2.597 -0.1878  1.6513 -0.9953
14471TIP3   OH264903   0.951   1.261   4.871 -0.0092  0.1122 -0.0818
14471TIP3    H164904   0.887   1.254   4.942  0.1260 -1.7185 -0.0966
14471TIP3    H264905   0.922   1.338   4.821 -1.0352  0.4811  1.0235
14472TIP3   OH264906   1.540   4.304   5.805  0.1665  0.5271  0.1877
14472TIP3    H164907   1.451   4.312   5.771  0.2983 -0.9353 -0.5949
14472TIP3    H264908   1.535   4.232   5.868  1.3384 -1.8323 -2.1847
14473TIP3   OH264909   3.597   0.905  16.428  0.3590 -0.0379  0.2172
14473TIP3    H164910   3.544   0.982  16.406 -0.2601 -0.4090  0.3971
14473TIP3    H264911   3.678   0.942  16.463 -0.5697  0.5499  1.8357
14474TIP3   OH264912   1.578   6.728   0.708 -0.1692  0.1773 -0.7227
14474TIP3    H164913   1.611   6.744   0.797 -0.4354  3.8681 -1.0998
14474TIP3    H264914   1.490   6.693   0.721 -0.0087  0.1601  0.4716
14475TIP3   OH264915   6.527   1.013   3.339 -0.3691 -0.5901 -0.2886
14475TIP3    H164916   6.487   1.052   3.261 -0.9428  0.1621  0.3715
14475TIP3    H264917   6.531   1.084   3.403  0.3025 -1.1389  0.3024
14476TIP3   OH264918   1.146   1.474  16.800  0.2834 -0.5274  0.0612
14476TIP3    H164919   1.101   1.506  16.722  1.0444  0.2365 -0.0829
14476TIP3    H264920   1.209   1.543  16.821 -0.0872 -0.5818  1.5088
14477TIP3   OH264921   3.472   3.956  15.793 -0.4040  0.4505  0.2244
14477TIP3    H164922   3.536   4.018  15.829  1.4415 -0.5343 -1.2167
14477TIP3    H264923   3.466   3.980  15.700 -0.7444 -0.6313 -0.0388
14478TIP3   OH264924   0.873   3.802   0.355  0.1844 -0.1804  0.0797
14478TIP3    H164925   0.822   3.862   0.410 -1.9972  0.5338 -2.4861
14478TIP3    H264926   0.942   3.857   0.317 -0.4012  0.1882 -0.4793
14479TIP3   OH264927   1.750   6.718   0.108 -0.1140  0.3422 -0.2886
14479TIP3    H164928   1.686   6.683   0.170  1.1586  0.1293  0.9533
14479TIP3    H264929   1.756   6.811   0.131 -0.3562  0.4758 -0.7585
14480TIP3   OH264930   4.559   2.591  15.148  0.4010 -0.2299 -0.5679
14480TIP3    H164931   4.613   2.643  15.207  0.1571  2.6366 -2.6443
14480TIP3    H264932   4.619   2.525  15.113  2.0696  1.5391 -1.2256
14481TIP3   OH264933   2.772   0.952   3.970 -0.0529  0.8270  0.0439
14481TIP3    H164934   2.690   0.940   3.922  0.4493  2.1615 -1.2134
14481TIP3    H264935   2.785   0.870   4.017  0.3310 -1.2983 -3.4509
14482TIP3   OH264936   3.730   0.924  11.902  0.2145 -0.2681 -0.0577
14482TIP3    H164937   3.744   0.953  11.992  0.9155  0.3082 -0.3402
14482TIP3    H264938   3.811   0.947  11.856 -0.1361 -0.5419 -0.8386
14483TIP3   OH264939   2.307   3.965  14.999  0.2690 -0.3237 -0.6322
14483TIP3    H164940   2.285   3.881  15.039  0.6672  0.1622  0.6677
14483TIP3    H264941   2.234   3.983  14.940 -1.2760 -0.2338  1.2096
14484TIP3   OH264942   2.682   3.329  14.394 -0.0254  0.4447 -0.1980
14484TIP3    H164943   2.715   3.270  14.462  1.2879  1.3069 -0.0558
14484TIP3    H264944   2.677   3.415  14.436 -2.6208  0.3605 -0.1943
14485TIP3   OH264945   4.321   3.677   0.542  0.7814 -0.4768 -0.0099
14485TIP3    H164946   4.270   3.618   0.486  1.1607 -1.9729  1.1720
14485TIP3    H264947   4.412   3.665   0.514  1.1242 -2.1065  1.6007
14486TIP3   OH264948   3.290   3.100  12.326  0.1002  0.3476  0.7336
14486TIP3    H164949   3.337   3.025  12.361  1.0418  0.8117  0.4986
14486TIP3    H264950   3.307   3.098  12.232  0.0917  0.8249  0.7167
14487TIP3   OH264951   3.049   5.090  17.286  0.0434  0.8383 -0.1982
14487TIP3    H164952   3.069   5.124  17.374  1.1683 -0.4333  0.0680
14487TIP3    H264953   3.099   5.146  17.227  0.0954  1.0614  0.0533
14488TIP3   OH264954   1.405   0.139  16.079  0.0740 -0.4632  0.4335
14488TIP3    H164955   1.443   0.209  16.132  2.0398 -1.2112  0.0876
14488TIP3    H264956   1.377   0.073  16.142 -1.9186  0.6150  0.7736
14489TIP3   OH264957   6.405   1.478   0.103  0.2702  0.2678 -0.2268
14489TIP3    H164958   6.425   1.570   0.087 -0.5135  0.2564 -1.4237
14489TIP3    H264959   6.333   1.458   0.043  0.6353 -1.2094 -0.2311
14490TIP3   OH264960   1.950   3.637   7.141  0.2916 -0.0098 -0.6029
14490TIP3    H164961   1.908   3.679   7.065 -0.5961 -1.6306 -1.0519
14490TIP3    H264962   2.037   3.611   7.109 -0.8847 -2.7568 -1.8977
14491TIP3   OH264963   3.825   0.447  11.651  0.6690 -0.2796  0.4892
14491TIP3    H164964   3.739   0.458  11.611  0.1609 -1.4386  1.2352
14491TIP3    H264965   3.813   0.380  11.718  1.6373  1.1593  2.1965
14492TIP3   OH264966   5.750   3.445  16.347  0.1845 -0.1600  0.5319
14492TIP3    H164967   5.758   3.375  16.411  0.0132 -0.0204  0.7038
14492TIP3    H264968   5.737   3.399  16.264  0.0693 -0.3306  0.6437
14493TIP3   OH264969   4.984   5.264   3.549  0.1140 -0.1401 -0.5216
14493TIP3    H164970   5.046   5.336   3.538 -0.3018  0.5115  1.1988
14493TIP3    H264971   4.976   5.253   3.644 -2.7183  0.0764 -0.6509
14494TIP3   OH264972   2.680   5.796   0.081 -0.2672 -0.4473  0.6213
14494TIP3    H164973   2.762   5.790   0.131  0.4152  3.6075  0.3463
14494TIP3    H264974   2.611   5.794   0.147  0.0472 -2.7026  0.9569
14495TIP3   OH264975   3.493   2.205  13.701 -0.0531  0.0201  0.3883
14495TIP3    H164976   3.511   2.252  13.620 -1.4648  0.6626  0.4322
14495TIP3    H264977   3.471   2.273  13.764 -1.1070 -0.6238  0.7345
14496TIP3   OH264978   6.505   1.418  14.478  0.1789  1.1493  0.3994
14496TIP3    H164979   6.511   1.356  14.551 -0.0089 -2.3422 -2.2841
14496TIP3    H264980   6.591   1.413  14.436 -0.8726  0.0494 -1.7544
14497TIP3   OH264981   0.154   5.958  16.806  0.8430 -0.2270  0.2874
14497TIP3    H164982   0.246   5.983  16.793  0.7833 -0.7393 -1.3919
14497TIP3    H264983   0.124   6.015  16.876  2.8002 -0.9648  1.8172
14498TIP3   OH264984   0.182   5.320   6.811  0.1542  0.2598 -0.0520
14498TIP3    H164985   0.234   5.394   6.843 -1.1942  0.5977  1.4667
14498TIP3    H264986   0.093   5.353   6.806 -0.4221 -1.1618  0.3284
14499TIP3   OH264987   2.022   2.193  15.637 -0.2060 -0.1546 -0.2309
14499TIP3    H164988   2.094   2.150  15.683 -0.4507  0.5884  0.9049
14499TIP3    H264989   2.049   2.196  15.546  1.4138  0.4971  0.2350
14500TIP3   OH264990   6.575   6.351  10.850 -0.2638 -0.1580 -0.5205
14500TIP3    H164991   6.662   6.361  10.812 -0.0857 -1.8631 -0.6159
14500TIP3    H264992   6.589   6.357  10.944  0.2653 -2.1431 -0.4254
14501TIP3   OH264993   4.249   6.782   5.824 -0.4865 -0.8918 -0.1439
14501TIP3    H164994   4.293   6.708   5.866 -0.7562 -0.0597  1.6667
14501TIP3    H264995   4.272   6.858   5.878  0.1171  0.4637 -2.1828
14502TIP3   OH264996   4.251   1.726   5.289  0.5732 -0.3491 -0.4923
14502TIP3    H164997   4.174   1.735   5.233  0.3982  0.2268 -0.1631
14502TIP3    H264998   4.310   1.669   5.239 -0.4609 -1.6279 -0.3326
14503TIP3   OH264999   1.856   5.891   5.410  0.2284 -0.0950  0.2984
14503TIP3    H165000   1.939   5.887   5.362 -0.0837  1.6443 -0.4930
14503TIP3    H265001   1.859   5.975   5.456 -0.8217 -0.2981  0.7671
14504TIP3   OH265002   2.494   1.820  12.302 -0.2080 -0.2295 -0.2006
14504TIP3    H165003   2.407   1.812  12.340  0.5466 -0.8207  1.4801
14504TIP3    H265004   2.541   1.881  12.359  0.5391 -0.0264 -0.9974
14505TIP3   OH265005   1.120   4.276  13.076  0.4128  0.5895 -0.0773
14505TIP3    H165006   1.168   4.308  12.999 -0.1986  2.7306  0.3711
14505TIP3    H265007   1.069   4.351  13.105  1.5897  0.2710  3.2028
14506TIP3   OH265008   4.105   3.817  16.222  0.2103 -0.0117  0.1862
14506TIP3    H165009   4.077   3.756  16.290 -3.7305  1.0681 -0.2154
14506TIP3    H265010   4.152   3.886  16.270 -1.4674  0.1314  1.7242
14507TIP3   OH265011   6.357   2.494  12.602  0.1008 -0.3208  0.4584
14507TIP3    H165012   6.425   2.523  12.542  0.8574 -0.5089  1.2001
14507TIP3    H265013   6.294   2.447  12.547  1.2887 -1.3644 -0.0576
14508TIP3   OH265014   3.973   4.351   1.340 -0.1328 -0.0713 -0.7840
14508TIP3    H165015   4.058   4.310   1.358  0.2256  0.2087 -1.7635
14508TIP3    H265016   3.952   4.323   1.251 -0.4561  0.9025 -1.0247
14509TIP3   OH265017   4.675   4.143   1.282  0.1164  0.1731 -0.0911
14509TIP3    H165018   4.635   4.121   1.197  0.2230 -0.2546 -0.0321
14509TIP3    H265019   4.606   4.191   1.328  0.1306  0.6009 -0.5005
14510TIP3   OH265020   6.797   5.071   0.206  0.6434  0.5687  0.4007
14510TIP3    H165021   6.777   5.099   0.117  0.3137  1.2586  0.6848
14510TIP3    H265022   6.828   5.150   0.250  0.4040  0.3305  1.0161
14511TIP3   OH265023   6.362   0.467  15.518  0.3164 -0.3740  0.0655
14511TIP3    H165024   6.357   0.448  15.611  0.3505  0.4806  0.2518
14511TIP3    H265025   6.390   0.559  15.514 -2.9805  0.7244 -0.7390
14512TIP3   OH265026   1.045   1.647   2.069 -0.2385  0.0116  0.4942
14512TIP3    H165027   1.124   1.693   2.100 -0.6609  1.0876  0.0223
14512TIP3    H265028   1.015   1.597   2.145  0.0211  0.8232  1.1488
14513TIP3   OH265029   5.150   4.055   2.511  0.1776 -0.0495  0.2068
14513TIP3    H165030   5.243   4.037   2.496  0.5814  1.7185  0.3509
14513TIP3    H265031   5.112   3.970   2.533  2.0139 -0.5999  1.4647
14514TIP3   OH265032   1.727   1.781   1.978  0.2688  0.5999  0.1183
14514TIP3    H165033   1.707   1.854   1.920 -2.3060 -0.3670 -0.3430
14514TIP3    H265034   1.786   1.818   2.044 -0.0208  2.7684 -0.7677
14515TIP3   OH265035   4.560   3.738   3.319  0.2476  0.1137  0.5033
14515TIP3    H165036   4.485   3.794   3.299 -1.0793 -1.6089  0.4755
14515TIP3    H265037   4.577   3.753   3.412 -1.2805 -0.7682  0.9499
14516TIP3   OH265038   3.715   5.117   3.767  0.7788 -0.1576  0.4924
14516TIP3    H165039   3.796   5.168   3.766  0.2218  0.7429  0.5290
14516TIP3    H265040   3.733   5.044   3.826  1.3254  0.4285  1.0602
14517TIP3   OH265041   4.358   3.934  16.093  0.7849  0.0977  0.2020
14517TIP3    H165042   4.268   3.931  16.126  0.9413 -0.0129  0.6289
14517TIP3    H265043   4.388   3.843  16.096  0.0733 -0.2947 -2.3438
14518TIP3   OH265044   5.517   2.208   4.360  0.1832  0.1185 -0.9405
14518TIP3    H165045   5.580   2.241   4.425 -0.6347  0.7584 -0.4465
14518TIP3    H265046   5.527   2.268   4.286  0.5649 -0.1421 -1.1064
14519TIP3   OH265047   3.850   4.322   4.891  0.1205  0.4054 -0.2364
14519TIP3    H165048   3.800   4.271   4.827 -1.0048 -1.1439  1.7640
14519TIP3    H265049   3.918   4.365   4.839 -0.2073 -1.4187 -2.3481
14520TIP3   OH265050   2.950   1.673   0.528  0.0589 -0.4454  0.2682
14520TIP3    H165051   2.903   1.754   0.506 -0.0100  0.1861  2.5571
14520TIP3    H265052   2.884   1.604   0.516 -0.8046  0.1849  1.2522
14521TIP3   OH265053   3.113   2.564  12.679  0.2016 -0.4334 -0.1126
14521TIP3    H165054   3.033   2.609  12.705 -0.7317 -1.8578 -0.3792
14521TIP3    H265055   3.110   2.565  12.583  0.5801 -0.3878 -0.1264
14522TIP3   OH265056   0.975   4.654  11.601 -0.3051  0.0031  0.7063
14522TIP3    H165057   0.999   4.698  11.682  0.1387  0.4177  0.3584
14522TIP3    H265058   0.924   4.719  11.552  0.8162  0.3391 -0.0474
14523TIP3   OH265059   3.393   5.102   3.419 -0.4232 -0.5672  0.6742
14523TIP3    H165060   3.467   5.154   3.385 -1.0999  0.2584  0.4285
14523TIP3    H265061   3.386   5.129   3.510 -0.2605 -0.8424  0.7695
14524TIP3   OH265062   2.163   6.396   2.127 -0.1164 -0.3125 -0.4763
14524TIP3    H165063   2.113   6.398   2.046 -0.4023 -1.7388 -0.3564
14524TIP3    H265064   2.226   6.468   2.118 -1.2543  0.6229 -1.2210
14525TIP3   OH265065   4.623   1.545  11.579 -0.0306  0.3620  0.4034
14525TIP3    H165066   4.554   1.543  11.645  1.5138 -0.5288  2.0598
14525TIP3    H265067   4.676   1.622  11.601 -0.2781  0.8733 -0.6807
14526TIP3   OH265068   6.465   4.946   0.867 -0.7818 -0.1344  0.2657
14526TIP3    H165069   6.548   4.991   0.858 -0.4512 -0.8705 -0.4652
14526TIP3    H265070   6.413   5.003   0.925  0.6293 -0.2414  1.7154
14527TIP3   OH265071   1.389   2.007   2.524 -0.2982  0.3628 -0.3395
14527TIP3    H165072   1.359   1.945   2.459 -1.5499  1.4225 -0.8164
14527TIP3    H265073   1.438   1.954   2.587 -2.3307 -1.3102 -0.0625
14528TIP3   OH265074   3.261   5.880  14.249  0.0726 -0.4377  0.2816
14528TIP3    H165075   3.260   5.961  14.300  0.0392 -0.1786 -0.1250
14528TIP3    H265076   3.195   5.894  14.182  1.7906  0.2400 -1.3665
14529TIP3   OH265077   5.080   1.013   5.077  0.0516 -0.2058  0.1742
14529TIP3    H165078   5.160   1.058   5.050 -1.1751  1.2118 -1.3609
14529TIP3    H265079   5.028   1.006   4.997 -2.8775  2.2111  1.6379
14530TIP3   OH265080   1.606   3.593   1.632 -0.0041  0.1939  0.4453
14530TIP3    H165081   1.512   3.611   1.621  0.1063  0.5676  0.1028
14530TIP3    H265082   1.614   3.499   1.612 -0.3024  0.1614  0.4723
14531TIP3   OH265083   1.938   5.445   3.666 -0.1095  0.1471  0.1698
14531TIP3    H165084   1.985   5.511   3.616 -0.1966  1.6367  1.9380
14531TIP3    H265085   1.935   5.369   3.609 -0.5536  1.8460 -2.2041
14532TIP3   OH265086   1.709   1.544  12.831 -0.5321 -0.0138 -0.1925
14532TIP3    H165087   1.755   1.614  12.877  0.1807  1.0441 -2.3782
14532TIP3    H265088   1.687   1.481  12.899  0.8834  1.2152  1.4862
14533TIP3   OH265089   0.853   2.127  12.916 -0.4082  0.5859 -0.2155
14533TIP3    H165090   0.764   2.105  12.944 -0.7832  2.1182 -0.1004
14533TIP3    H265091   0.873   2.209  12.962  1.0919  0.2377 -0.1870
14534TIP3   OH265092   1.040   6.803  15.687 -0.4547  0.1040 -0.4823
14534TIP3    H165093   0.945   6.798  15.678 -0.4090  0.8518 -1.5855
14534TIP3    H265094   1.054   6.839  15.774 -1.2215  1.3679 -0.8654
14535TIP3   OH265095   3.616   5.288  12.068 -0.2199 -0.3439 -0.4332
14535TIP3    H165096   3.613   5.308  11.974  0.2194  1.0565 -0.1817
14535TIP3    H265097   3.525   5.296  12.097 -0.3814 -0.9522 -0.7664
14536TIP3   OH265098   3.141   0.726  16.512 -0.3003  0.2817 -0.2716
14536TIP3    H165099   3.221   0.694  16.471  0.5358  2.0114 -0.0913
14536TIP3    H265100   3.071   0.675  16.471  0.6506  0.6660 -2.5128
14537TIP3   OH265101   1.916   1.646   1.608  0.2258 -0.2273 -0.0360
14537TIP3    H165102   1.822   1.663   1.600  0.1492  0.1997  1.3739
14537TIP3    H265103   1.958   1.726   1.578  0.0913 -0.0082  0.3486
14538TIP3   OH265104   2.018   3.855   2.099  0.2222 -0.2275  0.2335
14538TIP3    H165105   2.011   3.798   2.175 -2.1136  0.7312  0.8184
14538TIP3    H265106   2.070   3.930   2.129  1.4357 -0.9747  0.0917
14539TIP3   OH265107   6.721   3.598   0.396 -0.0924 -0.3228 -0.3598
14539TIP3    H165108   6.671   3.612   0.476 -0.4481  0.4036 -0.6967
14539TIP3    H265109   6.682   3.520   0.357  0.4000 -0.9617  0.4088
14540TIP3   OH265110   5.334   6.629  17.232  0.3186 -0.4442 -0.1575
14540TIP3    H165111   5.293   6.712  17.256  0.9046 -0.4033  0.7216
14540TIP3    H265112   5.262   6.576  17.196 -0.5010 -0.3532  1.2957
14541TIP3   OH265113   1.630   6.618   3.869 -0.0884  1.0287  0.4333
14541TIP3    H165114   1.701   6.638   3.808  0.8562 -2.6607  0.0470
14541TIP3    H265115   1.551   6.617   3.815 -0.0489  2.5042  0.3165
14542TIP3   OH265116   6.296   5.579   4.361 -0.2030 -0.2620 -0.5164
14542TIP3    H165117   6.342   5.642   4.305  1.7007 -2.1351 -1.2053
14542TIP3    H265118   6.316   5.494   4.322 -0.9901 -1.4582  1.5288
14543TIP3   OH265119   2.288   5.099  16.778  0.0433 -0.3911 -0.4772
14543TIP3    H165120   2.238   5.029  16.736 -0.1119 -0.3774 -0.3157
14543TIP3    H265121   2.222   5.152  16.823  0.3741 -1.4397  1.3416
14544TIP3   OH265122   6.726   5.150   2.795 -0.4007  0.1142 -0.4392
14544TIP3    H165123   6.819   5.136   2.814 -0.3216 -0.7283 -1.3926
14544TIP3    H265124   6.724   5.176   2.703 -1.1293 -0.1324 -0.4948
14545TIP3   OH265125   3.336   3.761  12.110 -0.2555 -0.1350  0.1207
14545TIP3    H165126   3.354   3.694  12.176  0.0272  0.1227  0.3096
14545TIP3    H265127   3.410   3.822  12.117 -1.3889  1.2137  1.2580
14546TIP3   OH265128   4.585   0.932  14.466 -0.2074  0.6361  0.4152
14546TIP3    H165129   4.629   1.014  14.489  2.1633  0.0924 -1.8027
14546TIP3    H265130   4.626   0.867  14.522  0.7577  0.3652 -0.5935
14547TIP3   OH265131   2.078   5.625   1.518  0.0198 -0.1099 -0.0579
14547TIP3    H165132   2.066   5.623   1.613  0.2339  0.6075 -0.0090
14547TIP3    H265133   2.029   5.702   1.489 -3.1933 -2.2850 -1.0101
14548TIP3   OH265134   2.995   1.825  13.796  0.4477 -0.3069 -0.0542
14548TIP3    H165135   2.999   1.763  13.722 -0.9142 -0.7172  0.1777
14548TIP3    H265136   3.053   1.896  13.771  1.0770 -1.0932 -0.9030
14549TIP3   OH265137   6.596   6.601   4.790  0.3200  0.0586 -0.7459
14549TIP3    H165138   6.510   6.602   4.832  0.6593  0.2052 -0.0357
14549TIP3    H265139   6.656   6.572   4.858  0.9497  0.7179 -1.0012
14550TIP3   OH265140   2.977   3.459   2.760  0.1557 -0.0459 -0.2726
14550TIP3    H165141   3.008   3.542   2.724  1.9668 -0.2289  0.7358
14550TIP3    H265142   2.927   3.483   2.838 -0.2900  0.1538 -0.6209
14551TIP3   OH265143   1.782   4.677   0.003 -0.3210 -0.0161  0.7999
14551TIP3    H165144   1.728   4.754   0.021  1.4268  1.3416  0.5429
14551TIP3    H265145   1.804   4.684  -0.090  0.4979 -0.3824  0.9535
14552TIP3   OH265146   6.683   6.412  12.500  0.5502  0.3036 -0.3636
14552TIP3    H165147   6.771   6.391  12.532  0.1517 -1.5491 -0.3515
14552TIP3    H265148   6.667   6.348  12.430 -0.4230  1.2538 -1.0527
14553TIP3   OH265149   6.081   2.829  11.348 -0.7148  0.1668 -0.3906
14553TIP3    H165150   6.083   2.886  11.271 -1.3090  1.1130  0.2711
14553TIP3    H265151   6.150   2.765  11.332  0.4150  1.4547 -0.8855
14554TIP3   OH265152   4.822   6.204  13.106  0.1154  0.2320 -0.0556
14554TIP3    H165153   4.742   6.249  13.130  0.0330 -0.2163  0.5419
14554TIP3    H265154   4.873   6.199  13.187  1.0559  1.1081 -0.5642
14555TIP3   OH265155   6.288   0.314   3.052 -0.0587  0.1125 -0.3669
14555TIP3    H165156   6.212   0.352   3.096 -0.3301  0.1333 -0.8470
14555TIP3    H265157   6.359   0.320   3.117 -0.1043  1.3909 -0.4084
14556TIP3   OH265158   3.814   5.430   0.138 -0.3527  0.6445  0.3838
14556TIP3    H165159   3.747   5.362   0.128 -0.7319  1.0354  0.2575
14556TIP3    H265160   3.856   5.410   0.222 -0.1675 -0.0061  0.1368
14557TIP3   OH265161   5.355   1.646   0.070  0.3607 -0.6969 -0.2642
14557TIP3    H165162   5.412   1.724   0.066  2.0430 -1.7925  0.8304
14557TIP3    H265163   5.381   1.594  -0.006 -0.1394 -0.5841 -0.5113
14558TIP3   OH265164   1.732   5.595   1.357 -0.0556  0.0284 -0.2136
14558TIP3    H165165   1.660   5.562   1.411  1.5358  0.2020  2.1224
14558TIP3    H265166   1.723   5.547   1.274 -1.7274 -1.3234  0.6909
14559TIP3   OH265167   2.141   5.059   0.366  0.5318 -0.1512  0.6970
14559TIP3    H165168   2.064   5.112   0.344 -1.2669 -2.9934 -0.4825
14559TIP3    H265169   2.203   5.075   0.295  1.3406  2.5018  1.8794
14560TIP3   OH265170   4.822   5.847   5.960  0.1007 -0.5745 -0.2483
14560TIP3    H165171   4.908   5.848   6.001 -0.1756 -3.6960  0.6816
14560TIP3    H265172   4.779   5.769   5.996 -3.0962  0.7873 -0.7690
14561TIP3   OH265173   4.461   4.365   0.863 -0.1306  0.1923 -0.0327
14561TIP3    H165174   4.471   4.459   0.879  1.7391  0.5231 -2.4975
14561TIP3    H265175   4.440   4.359   0.769  1.6722 -1.8745 -0.3729
14562TIP3   OH265176   3.179   1.877  15.323  0.2849  0.6954  0.7921
14562TIP3    H165177   3.204   1.813  15.389 -0.5127  1.9579  2.3877
14562TIP3    H265178   3.173   1.827  15.242 -0.3568 -1.2582  1.9735
14563TIP3   OH265179   0.788   3.026  13.543  0.3073  0.3130 -0.0057
14563TIP3    H165180   0.776   2.940  13.583  1.7317  0.0895 -0.0140
14563TIP3    H265181   0.827   3.080  13.612 -1.6223  1.3187  0.3688
14564TIP3   OH265182   4.071   1.966   1.397 -0.4017 -0.7240 -0.2309
14564TIP3    H165183   4.048   1.874   1.390 -1.9612 -0.2491 -2.2306
14564TIP3    H265184   3.987   2.012   1.397  0.3637  0.7411 -0.2643
14565TIP3   OH265185   4.292   6.689  16.338  0.5706  0.0932  0.4105
14565TIP3    H165186   4.213   6.743  16.338  0.6850  0.4669 -3.2293
14565TIP3    H265187   4.336   6.712  16.420 -2.4439  0.7284  2.0170
14566TIP3   OH265188   2.087   3.743   4.125 -0.2853  0.3760 -0.3955
14566TIP3    H165189   1.997   3.768   4.104 -0.2695  0.6190 -0.1821
14566TIP3    H265190   2.137   3.766   4.046 -0.6325 -1.0752 -1.0624
14567TIP3   OH265191   2.293   3.489   3.624  0.3395 -0.2836  0.3723
14567TIP3    H165192   2.370   3.437   3.647 -0.4357 -1.5160  0.2972
14567TIP3    H265193   2.245   3.498   3.706 -0.5338 -1.4428  0.0139
14568TIP3   OH265194   2.970   5.104   5.344 -0.8566 -0.2068  0.0407
14568TIP3    H165195   3.046   5.148   5.307  0.0608 -0.8852  1.0548
14568TIP3    H265196   2.958   5.146   5.430 -3.1398  1.5731 -1.0291
14569TIP3   OH265197   6.105   3.207   2.495 -0.2825 -0.1729  0.3174
14569TIP3    H165198   6.149   3.278   2.448  1.7611 -0.9197  1.0295
14569TIP3    H265199   6.058   3.251   2.566  2.4495  0.3821  1.8827
14570TIP3   OH265200   1.126   0.006  15.981  0.3541 -0.6090 -0.6558
14570TIP3    H165201   1.192   0.008  16.051  0.7939  1.9942 -1.0320
14570TIP3    H265202   1.045  -0.018  16.025  1.0095 -0.9812  0.3801
14571TIP3   OH265203   4.741   2.667  15.651  0.2235 -0.0375  0.0999
14571TIP3    H165204   4.686   2.590  15.638 -1.4980  1.2380 -0.6466
14571TIP3    H265205   4.729   2.691  15.743  0.8400 -0.6979  0.3573
14572TIP3   OH265206   0.138   0.885  17.172 -0.1978  0.0347 -0.1806
14572TIP3    H165207   0.198   0.933  17.231 -1.6813  0.9129  0.6713
14572TIP3    H265208   0.193   0.861  17.098  1.2471  0.7307  0.6012
14573TIP3   OH265209   5.873   6.054  17.113 -0.4479 -0.0649  0.1325
14573TIP3    H165210   5.895   6.118  17.045 -0.3288  0.6984  0.8723
14573TIP3    H265211   5.950   6.053  17.170 -0.1601 -1.3895 -0.2444
14574TIP3   OH265212   5.314   4.510  17.113 -0.0446  0.2352  0.1372
14574TIP3    H165213   5.307   4.421  17.077  0.7627  0.5528 -0.8287
14574TIP3    H265214   5.372   4.501  17.189 -0.2794 -0.1233  0.2774
14575TIP3   OH265215   3.257   3.279   6.038 -0.1220  0.0131  0.6657
14575TIP3    H165216   3.316   3.349   6.009  2.4427 -1.4721  1.9300
14575TIP3    H265217   3.305   3.235   6.108 -1.2730 -3.4461 -0.5117
14576TIP3   OH265218   1.291   5.715  12.058 -0.0208  0.0779  0.6790
14576TIP3    H165219   1.333   5.782  12.004 -1.6351 -0.0210 -0.8065
14576TIP3    H265220   1.311   5.740  12.148  1.7558  0.9459  0.0788
14577TIP3   OH265221   5.641   5.277   0.884 -0.3622 -0.4767 -0.1730
14577TIP3    H165222   5.554   5.276   0.844 -0.3495  0.8840 -0.3020
14577TIP3    H265223   5.630   5.230   0.967 -1.4157  0.2872  0.1433
14578TIP3   OH265224   4.438   5.143  13.663 -0.0830 -0.8201  0.2053
14578TIP3    H165225   4.468   5.168  13.576  1.3964 -0.6829  0.7293
14578TIP3    H265226   4.454   5.220  13.717 -3.2597  0.0057  0.1665
14579TIP3   OH265227   2.565   1.577  13.036  0.6852 -0.8005 -0.5519
14579TIP3    H165228   2.622   1.561  13.111  1.2848 -0.0151 -0.8275
14579TIP3    H265229   2.598   1.658  12.998 -1.6004  0.5795  0.2025
14580TIP3   OH265230   0.021   3.163  16.864  0.3785  0.5310  0.3111
14580TIP3    H165231   0.019   3.184  16.771  1.4444  0.0458  0.1589
14580TIP3    H265232   0.082   3.226  16.902  1.3591 -0.4209  0.3502
14581TIP3   OH265233   0.213   2.595  14.904  0.0274 -0.3665  0.0049
14581TIP3    H165234   0.163   2.670  14.871  1.1337  0.2740 -0.2644
14581TIP3    H265235   0.156   2.557  14.972 -1.0716 -0.0253 -0.6898
14582TIP3   OH265236   5.053   6.713   5.468 -0.0490  0.2097 -0.2461
14582TIP3    H165237   5.008   6.664   5.537  1.6389 -0.2639  0.5722
14582TIP3    H265238   5.101   6.782   5.514  1.3340 -0.2968 -0.8801
14583TIP3   OH265239   4.547   2.682  12.749  0.0936  0.1191 -0.0896
14583TIP3    H165240   4.554   2.773  12.721 -0.9377  0.7402  1.4870
14583TIP3    H265241   4.460   2.655  12.720 -0.8265  0.6445  1.9606
14584TIP3   OH265242   4.810   3.059   2.566  0.0866  0.2662  0.2814
14584TIP3    H165243   4.744   3.120   2.599  1.5959  1.1481  1.8750
14584TIP3    H265244   4.783   2.974   2.599 -0.5633  0.5193  0.4196
14585TIP3   OH265245   0.375   2.596  15.860 -0.5605  0.1575 -1.1721
14585TIP3    H165246   0.446   2.532  15.859  0.2107  0.9036  1.1075
14585TIP3    H265247   0.305   2.553  15.909 -0.7365  0.3703 -1.2373
14586TIP3   OH265248   3.923   0.337   4.304 -0.5125  0.1055  0.6678
14586TIP3    H165249   3.965   0.357   4.220  0.5491 -2.2289  0.5682
14586TIP3    H265250   3.920   0.421   4.350 -0.8799  1.3880 -1.5628
14587TIP3   OH265251   3.231   5.198  13.453 -0.5040  0.3672  0.3259
14587TIP3    H165252   3.312   5.242  13.426 -0.1191 -0.0651  0.7544
14587TIP3    H265253   3.181   5.266  13.498  0.2909  0.2671  1.3936
14588TIP3   OH265254   5.135   0.634  11.200 -0.5828 -0.2699 -0.6319
14588TIP3    H165255   5.187   0.707  11.166  0.0364  0.2778  1.3335
14588TIP3    H265256   5.064   0.623  11.137 -1.4273  2.8758 -0.3962
14589TIP3   OH265257   0.556   3.035  11.105  0.0014  0.2525 -0.2127
14589TIP3    H165258   0.518   3.053  11.019  2.3132  2.5818 -0.8985
14589TIP3    H265259   0.643   3.001  11.086  0.2362 -0.0317  1.2306
14590TIP3   OH265260   0.932   0.966  12.586  0.2653 -0.3569 -0.3376
14590TIP3    H165261   0.932   1.051  12.542  0.6449 -0.1327  0.0803
14590TIP3    H265262   0.866   0.975  12.654  0.9574 -0.0589  0.3161
14591TIP3   OH265263   2.420   4.331  14.259 -0.2302  0.3144  0.6552
14591TIP3    H165264   2.343   4.279  14.285  0.1889 -1.2768 -1.0567
14591TIP3    H265265   2.385   4.398  14.201 -0.3112 -0.7933 -0.6274
14592TIP3   OH265266   0.169   5.741  13.923 -0.3645  0.3338  0.3834
14592TIP3    H165267   0.222   5.818  13.901 -0.6667  0.2059 -0.8602
14592TIP3    H265268   0.080   5.764  13.897 -0.4974 -0.3558  0.2046
14593TIP3   OH265269   6.345   2.032  11.785  0.3488  0.6304  0.7724
14593TIP3    H165270   6.313   2.119  11.811 -0.6055  0.7624 -0.7225
14593TIP3    H265271   6.286   1.971  11.827 -0.5439  0.8054 -0.1975
14594TIP3   OH265272   1.486   5.880   1.329 -0.1556 -0.3800 -0.1141
14594TIP3    H165273   1.468   5.830   1.409  2.1718  0.4979  1.0539
14594TIP3    H265274   1.471   5.971   1.354  1.5360 -0.0092 -0.3527
14595TIP3   OH265275   5.671   3.926  11.853 -0.6394  0.5966  0.0366
14595TIP3    H165276   5.708   3.866  11.917 -1.4785 -0.4707 -0.4380
14595TIP3    H265277   5.745   3.953  11.799 -0.4407 -1.0331 -0.5347
14596TIP3   OH265278   2.409   2.717  11.334 -0.2139 -0.5234 -0.0355
14596TIP3    H165279   2.327   2.750  11.371  1.5246  2.1922  1.7845
14596TIP3    H265280   2.386   2.688  11.246 -3.1449 -0.1049  0.4867
14597TIP3   OH265281   4.871   4.215   5.475  0.3643  0.5619 -0.1717
14597TIP3    H165282   4.823   4.205   5.392 -0.6905 -0.0007  0.4798
14597TIP3    H265283   4.802   4.221   5.541  1.0358 -3.7907  1.2417
14598TIP3   OH265284   0.401   0.913  11.586  0.2759 -0.4113  0.4293
14598TIP3    H165285   0.390   0.825  11.550 -1.7135 -0.3281  0.7289
14598TIP3    H265286   0.487   0.941  11.554 -0.4205 -1.1861 -2.4635
14599TIP3   OH265287   2.085   6.064  16.990  0.1593  0.1519 -0.1829
14599TIP3    H165288   2.171   6.033  16.960 -0.3073  1.4686 -3.2009
14599TIP3    H265289   2.104   6.141  17.044  0.8927  1.0020 -1.6011
14600TIP3   OH265290   1.034   3.101   1.637  0.2505  0.1100 -0.5877
14600TIP3    H165291   1.006   3.170   1.577 -0.5889 -0.0554 -0.4025
14600TIP3    H265292   1.106   3.139   1.686  1.0206  0.2138 -1.7620
14601TIP3   OH265293   3.924   6.163  11.398  0.1039 -0.2996  0.4452
14601TIP3    H165294   3.905   6.199  11.484 -0.4104 -0.1488  0.2707
14601TIP3    H265295   3.911   6.237  11.338 -0.7304 -0.7153  0.1095
14602TIP3   OH265296   5.516   3.394   5.448 -0.2068  0.3733  0.2059
14602TIP3    H165297   5.524   3.458   5.519  0.3889  2.6288 -1.7534
14602TIP3    H265298   5.599   3.346   5.450  0.3393  1.2902  0.2932
14603TIP3   OH265299   2.504   3.026   6.170  0.1633 -0.2217  0.0670
14603TIP3    H165300   2.519   2.932   6.169  1.5201 -0.0213  0.2217
14603TIP3    H265301   2.583   3.064   6.132  0.5450  0.9672  1.9188
14604TIP3   OH265302   3.468   1.648  12.777 -0.1488  0.0195 -0.1413
14604TIP3    H165303   3.431   1.733  12.754 -2.2016 -0.1181  2.3017
14604TIP3    H265304   3.513   1.663  12.860 -0.0902 -1.1861  0.0598
14605TIP3   OH265305   2.858   5.440   6.291  0.0322 -0.3895  0.0629
14605TIP3    H165306   2.772   5.435   6.333 -0.2839  0.3540 -0.4753
14605TIP3    H265307   2.864   5.361   6.238 -0.6129 -0.1058 -0.4396
14606TIP3   OH265308   5.732   1.917   4.659 -0.6088  0.4865 -0.3750
14606TIP3    H165309   5.656   1.861   4.676 -1.2349  1.3194 -0.3053
14606TIP3    H265310   5.723   1.943   4.567 -1.0001  1.4038 -0.0971
14607TIP3   OH265311   0.208   0.084   1.627 -0.3882  0.6939 -0.2170
14607TIP3    H165312   0.248   0.019   1.684 -1.1354  2.0770  2.0600
14607TIP3    H265313   0.123   0.102   1.668 -1.2918  1.2585 -2.2100
14608TIP3   OH265314   3.890   4.272   2.892  0.2802 -0.7410 -0.2838
14608TIP3    H165315   3.918   4.344   2.948 -2.0715  0.1816 -0.2085
14608TIP3    H265316   3.971   4.245   2.847  1.4934  0.9914  0.7158
14609TIP3   OH265317   5.703   4.914   5.530  0.1576  0.2523 -0.3325
14609TIP3    H165318   5.652   4.834   5.547 -1.1934  1.2514  0.5697
14609TIP3    H265319   5.794   4.888   5.544 -0.3683 -0.7581  1.7152
14610TIP3   OH265320   2.765   4.170   2.510  0.8734 -0.5919  0.0799
14610TIP3    H165321   2.706   4.094   2.513 -0.3077  0.3278  1.2039
14610TIP3    H265322   2.790   4.186   2.601  2.1602 -0.4052 -0.2840
14611TIP3   OH265323   4.272   0.784  16.432 -0.1723  0.2268 -0.9446
14611TIP3    H165324   4.204   0.841  16.466 -2.1478 -2.5652  0.1771
14611TIP3    H265325   4.231   0.735  16.361  1.5505  0.4286 -2.1495
14612TIP3   OH265326   0.986   0.525   3.495  0.3858 -0.2286  0.1614
14612TIP3    H165327   0.958   0.616   3.490  1.1797  0.0153 -0.0989
14612TIP3    H265328   0.906   0.474   3.487 -0.3348  0.4544  2.2809
14613TIP3   OH265329   1.728   5.766  13.595 -0.1355  0.0570 -0.1506
14613TIP3    H165330   1.647   5.754  13.645 -1.5075  2.0892 -1.7248
14613TIP3    H265331   1.701   5.759  13.503  1.5251  0.5322 -0.7118
14614TIP3   OH265332   4.081   3.051  12.042  0.1875  0.5836 -0.0069
14614TIP3    H165333   4.101   3.116  11.976  0.1724  1.0548  0.4494
14614TIP3    H265334   4.071   2.969  11.993  0.6530  0.8343 -0.5275
14615TIP3   OH265335   1.591   5.420  12.247 -0.3221  0.1571 -0.1088
14615TIP3    H165336   1.637   5.344  12.213 -2.0888 -0.2347 -1.8071
14615TIP3    H265337   1.636   5.495  12.209 -0.2844 -0.1528 -0.6788
14616TIP3   OH265338   3.074   3.762  15.915 -0.0662  0.1075 -0.6938
14616TIP3    H165339   3.124   3.833  15.873  0.4569 -1.1368 -2.2497
14616TIP3    H265340   3.121   3.682  15.891 -1.1990 -0.8689  0.2134
14617TIP3   OH265341   2.010   0.361   4.615  0.0060 -0.5248 -0.7697
14617TIP3    H165342   1.991   0.442   4.663 -0.2832 -0.4611 -0.9900
14617TIP3    H265343   1.983   0.292   4.675  0.2671 -0.4599 -0.5743
14618TIP3   OH265344   4.492   4.865  13.781 -0.0079 -0.4041 -0.7786
14618TIP3    H165345   4.494   4.803  13.707  1.7151 -0.1984 -0.9604
14618TIP3    H265346   4.545   4.939  13.751 -1.3484  0.8164 -0.2462
14619TIP3   OH265347   2.602   1.919   0.770  0.0289  0.0077 -0.5507
14619TIP3    H165348   2.525   1.868   0.744  0.6895 -0.8514 -0.8624
14619TIP3    H265349   2.566   1.996   0.813 -1.0158 -0.2422 -0.9512
14620TIP3   OH265350   0.642   5.928  12.924 -0.5266 -0.4167 -0.0153
14620TIP3    H165351   0.566   5.960  12.874  0.3244 -0.6650 -1.5423
14620TIP3    H265352   0.626   5.834  12.933 -0.4247 -0.4646 -0.3124
14621TIP3   OH265353   5.743   0.882  10.687 -0.4597 -0.1919 -0.0156
14621TIP3    H165354   5.743   0.935  10.767 -1.1816 -0.9074  0.4749
14621TIP3    H265355   5.835   0.875  10.663 -0.4327  2.7294 -1.0964
14622TIP3   OH265356   2.158   3.445  14.830 -0.3269 -0.7730 -0.7308
14622TIP3    H165357   2.249   3.470  14.846 -0.2392 -0.1825 -2.0351
14622TIP3    H265358   2.159   3.402  14.745 -1.2966 -0.6568 -0.8128
14623TIP3   OH265359   3.062   5.729   2.942 -0.1143 -0.5144 -0.3542
14623TIP3    H165360   3.092   5.715   3.032  0.0056 -0.4942 -0.3912
14623TIP3    H265361   3.010   5.809   2.946  0.9036  0.1713 -0.5362
14624TIP3   OH265362   0.452   0.500  17.327  0.5132  0.1616  0.5118
14624TIP3    H165363   0.515   0.520  17.258  0.5561 -2.2526 -0.2477
14624TIP3    H265364   0.367   0.521  17.289  0.4362 -2.2509 -0.8147
14625TIP3   OH265365   1.968   1.923  11.046  0.2167  0.3167 -0.4538
14625TIP3    H165366   1.903   1.993  11.055  1.8108  1.8488 -0.3816
14625TIP3    H265367   2.012   1.921  11.131  0.0792 -0.9352 -0.3911
14626TIP3   OH265368   4.565   5.566   3.565  0.2128  0.0179  0.4231
14626TIP3    H165369   4.498   5.595   3.502  2.2717  0.2277 -1.8400
14626TIP3    H265370   4.576   5.641   3.623 -1.3092  0.0590  0.7174
14627TIP3   OH265371   3.829   0.603   6.390  0.3419  0.1088  0.5771
14627TIP3    H165372   3.919   0.575   6.404  0.3955  0.0257  0.1070
14627TIP3    H265373   3.836   0.692   6.354  0.2542 -0.0287  0.2137
14628TIP3   OH265374   2.578   6.323  16.723 -0.3524 -0.1276 -0.2748
14628TIP3    H165375   2.593   6.230  16.704 -0.1335  0.0576 -1.0756
14628TIP3    H265376   2.601   6.367  16.641  0.3742  0.7156  0.3742
14629TIP3   OH265377   3.018   4.432  15.605  0.0856  0.0616 -0.5321
14629TIP3    H165378   3.107   4.404  15.629  0.6202  1.4118 -0.8770
14629TIP3    H265379   2.963   4.357  15.630  1.3620 -1.0029 -0.7610
14630TIP3   OH265380   3.678   4.519  12.892  0.2232  0.2706 -0.1769
14630TIP3    H165381   3.690   4.581  12.821 -1.2047 -2.1914 -2.7888
14630TIP3    H265382   3.656   4.437  12.849  1.8016 -2.0975  3.0336
14631TIP3   OH265383   6.763   2.628  15.731  0.3360 -0.0625 -0.1516
14631TIP3    H165384   6.839   2.605  15.677 -0.0751  0.6551 -1.0726
14631TIP3    H265385   6.800   2.654  15.815  1.1767  0.7703 -0.7487
14632TIP3   OH265386   3.402   5.569  15.329  0.0530 -0.1709  0.2272
14632TIP3    H165387   3.473   5.505  15.326 -0.6933 -0.9989 -1.7105
14632TIP3    H265388   3.394   5.592  15.421  0.3949 -2.8692  1.0310
14633TIP3   OH265389   1.111   1.925   4.452  0.0210  0.1340 -0.0037
14633TIP3    H165390   1.130   1.974   4.373  1.8312  0.2531  0.4684
14633TIP3    H265391   1.034   1.968   4.489 -0.9196  0.0020 -1.7236
14634TIP3   OH265392   6.272   0.799   3.679 -0.2847 -0.2326  0.2600
14634TIP3    H165393   6.257   0.888   3.647  0.8220 -0.3052 -0.5000
14634TIP3    H265394   6.356   0.773   3.641  0.0931 -1.0873  1.6099
14635TIP3   OH265395   2.213   1.034  10.751 -0.1275  0.0337  0.1931
14635TIP3    H165396   2.168   1.013  10.669  0.7889  1.3194 -0.6795
14635TIP3    H265397   2.187   0.965  10.812 -0.1418 -1.4545 -1.4396
14636TIP3   OH265398   2.355   5.601  15.767  0.2382 -0.4981  0.6734
14636TIP3    H165399   2.411   5.524  15.776  0.2467 -0.5765  0.0362
14636TIP3    H265400   2.405   5.659  15.709  0.6314  0.3729  1.8495
14637TIP3   OH265401   4.419   0.635  15.103  0.5529 -0.3169 -0.3102
14637TIP3    H165402   4.503   0.660  15.065  0.3464 -1.3020 -1.4741
14637TIP3    H265403   4.430   0.542  15.124 -0.4384 -0.6200 -1.0606
14638TIP3   OH265404   1.807   2.077  13.426  0.1636 -0.3512 -0.5030
14638TIP3    H165405   1.718   2.078  13.392  0.5550 -0.5849 -1.5849
14638TIP3    H265406   1.862   2.093  13.349  1.2661 -3.8110 -0.5847
14639TIP3   OH265407   5.790   1.968   5.096 -0.2453 -0.0938  0.5487
14639TIP3    H165408   5.780   1.952   5.190 -1.8853 -1.2031  0.2273
14639TIP3    H265409   5.734   2.044   5.079 -1.2043 -0.8590  0.2221
14640TIP3   OH265410   5.019   4.251  16.173  0.1854 -0.3788  0.1494
14640TIP3    H165411   4.960   4.225  16.102 -0.4150 -2.3334  1.2959
14640TIP3    H265412   4.960   4.272  16.246  0.8710 -1.0032  0.8879
14641TIP3   OH265413   1.178   2.061  17.247 -0.5372  0.1718  0.2207
14641TIP3    H165414   1.265   2.069  17.285  0.9459  0.0167 -2.8284
14641TIP3    H265415   1.140   2.148  17.256  0.5193  0.6387  0.3550
14642TIP3   OH265416   0.373   2.242   3.584  0.3993 -0.8858  0.0917
14642TIP3    H165417   0.433   2.315   3.592  1.3963 -1.7792  1.2504
14642TIP3    H265418   0.375   2.219   3.491 -0.0898  0.6470 -0.3282
14643TIP3   OH265419   5.798   4.820  12.649  0.3121  0.0326  0.3824
14643TIP3    H165420   5.764   4.880  12.716  1.1920  2.5615 -1.2908
14643TIP3    H265421   5.888   4.803  12.677 -0.7197 -3.0878  2.4231
14644TIP3   OH265422   2.732   4.959   4.401 -0.3439  0.2087 -0.3122
14644TIP3    H165423   2.771   4.932   4.484  0.4947 -1.0440 -1.0825
14644TIP3    H265424   2.713   5.052   4.412 -2.3851 -0.3935  2.0983
14645TIP3   OH265425   4.205   5.098  16.852  0.5238 -0.4508  0.1468
14645TIP3    H165426   4.149   5.035  16.805  0.8193 -0.5875 -0.0282
14645TIP3    H265427   4.269   5.126  16.787  1.5543 -1.3877  0.7178
14646TIP3   OH265428   3.721   2.839   0.583  0.6391  0.2321  0.0647
14646TIP3    H165429   3.710   2.926   0.622  1.2948  0.8610 -1.0938
14646TIP3    H265430   3.812   2.838   0.554  0.5615 -0.7593 -0.1505
14647TIP3   OH265431   5.728   0.609  15.902  0.0560  0.1213  0.6454
14647TIP3    H165432   5.685   0.681  15.948 -0.4974 -0.3542  0.8795
14647TIP3    H265433   5.701   0.531  15.950  1.5451 -0.1543  1.0682
14648TIP3   OH265434   4.439   0.557   0.076  0.0070 -0.0443  0.0345
14648TIP3    H165435   4.493   0.633   0.098  1.7973 -1.2801  0.0691
14648TIP3    H265436   4.492   0.507   0.014 -0.5510 -1.9280  1.0088
14649TIP3   OH265437   3.632   1.687  12.525 -0.5203 -0.5256 -0.5848
14649TIP3    H165438   3.585   1.681  12.608  0.7087  0.3662  0.2109
14649TIP3    H265439   3.564   1.699  12.460 -1.5740 -2.0331  0.1753
14650TIP3   OH265440   3.437   4.548   5.018 -0.3345 -0.3678 -0.7205
14650TIP3    H165441   3.461   4.639   5.002 -0.7683 -0.0720  0.1851
14650TIP3    H265442   3.509   4.497   4.983  0.1636  0.3510 -0.7671
14651TIP3   OH265443   2.994   2.103   5.437  0.2502  0.4707 -0.0552
14651TIP3    H165444   2.905   2.070   5.443  0.3459  0.1045 -0.5376
14651TIP3    H265445   3.037   2.073   5.517  0.3867 -0.7529 -0.5699
14652TIP3   OH265446   1.709   3.272   3.866  0.0129 -0.5382 -0.1455
14652TIP3    H165447   1.777   3.330   3.899 -0.0551 -0.2684 -0.4758
14652TIP3    H265448   1.627   3.315   3.890 -0.0375 -0.5471 -0.2997
14653TIP3   OH265449   3.944   3.521  11.707  0.1360 -0.5339 -0.0377
14653TIP3    H165450   3.891   3.537  11.785 -0.2185 -0.2698 -0.3280
14653TIP3    H265451   3.889   3.550  11.634 -0.4024 -2.7135 -0.5799
14654TIP3   OH265452   5.954   5.957   0.916  0.0432 -0.7862 -0.5783
14654TIP3    H165453   5.975   5.886   0.856  0.8579 -1.1958  0.1629
14654TIP3    H265454   6.039   5.998   0.935 -0.3838  0.2307 -0.8050
14655TIP3   OH265455   3.899   3.927   1.302  0.1264 -0.5139 -0.5347
14655TIP3    H165456   3.814   3.968   1.318 -0.1794 -1.6827  1.0561
14655TIP3    H265457   3.963   3.996   1.318 -0.4110 -0.4181  1.4688
14656TIP3   OH265458   2.814   0.004   2.187 -0.4251  0.1248 -0.2519
14656TIP3    H165459   2.762  -0.075   2.170  0.9010 -0.8608  0.0945
14656TIP3    H265460   2.817   0.049   2.103 -1.4115 -0.0371 -0.3940
14657TIP3   OH265461   2.319   5.890  17.105 -0.5638  0.2668 -0.5227
14657TIP3    H165462   2.405   5.929  17.089 -0.2886 -0.2491 -0.3317
14657TIP3    H265463   2.319   5.810  17.051 -0.0581 -0.9030  1.1300
14658TIP3   OH265464   4.672   4.299   2.977  0.1867 -0.0776 -0.8296
14658TIP3    H165465   4.709   4.289   2.890 -1.2669  0.4404 -1.5382
14658TIP3    H265466   4.726   4.367   3.018  1.4515 -0.9624 -0.9590
14659TIP3   OH265467   2.269   3.708   1.186  0.3830 -0.1119  0.6889
14659TIP3    H165468   2.247   3.792   1.226 -0.7435  0.4842 -1.0285
14659TIP3    H265469   2.362   3.716   1.162  0.6474  0.1016  1.7497
14660TIP3   OH265470   1.043   3.713  12.947 -0.1251  0.6753 -0.4083
14660TIP3    H165471   0.966   3.669  12.983  0.7148  0.2548  0.9537
14660TIP3    H265472   1.043   3.799  12.988  0.6644  0.3092  0.3948
14661TIP3   OH265473   5.873   1.544   1.185 -0.3655  0.1783 -0.6389
14661TIP3    H165474   5.951   1.490   1.196 -0.3679 -0.2747 -2.5550
14661TIP3    H265475   5.890   1.623   1.236  0.6014 -0.6477  0.3509
14662TIP3   OH265476   3.007   3.499   4.699 -0.3511 -0.1023  0.0561
14662TIP3    H165477   2.987   3.430   4.763 -0.4227 -0.9722 -0.8856
14662TIP3    H265478   3.055   3.565   4.750  1.7979 -1.8930  0.5291
14663TIP3   OH265479   4.487   3.736  12.179  0.5005 -0.1580 -0.0969
14663TIP3    H165480   4.524   3.740  12.268  1.5732 -0.8519 -0.4925
14663TIP3    H265481   4.398   3.768  12.189  0.9509  0.8326  1.0468
14664TIP3   OH265482   5.683   1.760   3.977  0.2129 -0.0092 -0.0287
14664TIP3    H165483   5.666   1.845   4.019  1.2114 -0.0492  0.4757
14664TIP3    H265484   5.597   1.731   3.947 -0.1569  1.1579 -0.1688
14665TIP3   OH265485   5.058   2.485  11.857  0.5026 -0.1785  0.0277
14665TIP3    H165486   5.122   2.524  11.917 -0.1750 -0.2732  0.8160
14665TIP3    H265487   4.995   2.555  11.841  1.2384  0.2029 -1.4432
14666TIP3   OH265488   3.348   6.201   1.641 -0.1113  0.0206 -0.1026
14666TIP3    H165489   3.351   6.208   1.737  0.5810 -0.7013 -0.0609
14666TIP3    H265490   3.440   6.197   1.614 -0.1960  2.3082 -0.9973
14667TIP3   OH265491   5.744   2.410   2.017 -0.0315 -0.4016 -0.0797
14667TIP3    H165492   5.835   2.427   2.042 -0.9159  0.9126  2.6905
14667TIP3    H265493   5.713   2.346   2.080 -1.0075 -0.9319 -1.0720
14668TIP3   OH265494   5.323   4.591  15.607 -0.1327  0.8940 -0.0839
14668TIP3    H165495   5.349   4.682  15.597 -0.1057  0.8095 -0.8982
14668TIP3    H265496   5.298   4.582  15.699 -0.3160  1.7672 -0.0444
14669TIP3   OH265497   4.791   3.071  12.881  0.1114  0.3707  0.5289
14669TIP3    H165498   4.879   3.036  12.885  0.2414 -0.2430 -3.5328
14669TIP3    H265499   4.802   3.162  12.855 -0.4630  1.0118  2.3799
14670TIP3   OH265500   2.424   1.364  13.810 -0.1315  0.2766  0.4027
14670TIP3    H165501   2.429   1.341  13.717  0.9767 -0.5147  0.6335
14670TIP3    H265502   2.511   1.397  13.831 -1.1283  3.0322  0.5576
14671TIP3   OH265503   5.649   4.672   0.051 -0.0857  0.3128  0.0367
14671TIP3    H165504   5.738   4.639   0.050 -0.3828 -0.5533  0.3899
14671TIP3    H265505   5.643   4.722   0.133 -0.2147 -0.5237  0.5538
14672TIP3   OH265506   0.423   1.510  15.300  0.6548  0.0242  0.4067
14672TIP3    H165507   0.348   1.513  15.241  3.9084  0.2941 -4.2250
14672TIP3    H265508   0.402   1.575  15.367 -2.6269  1.0720 -1.3917
14673TIP3   OH265509   1.139   3.062   4.725  0.2306  0.1598 -0.1913
14673TIP3    H165510   1.091   2.997   4.776 -0.1780  0.9339  0.4479
14673TIP3    H265511   1.231   3.042   4.741  0.1062  0.2412  0.6711
14674TIP3   OH265512   0.235   2.607   3.635  0.1323  0.4919  0.1383
14674TIP3    H165513   0.235   2.596   3.730  2.8108  0.0435  0.1673
14674TIP3    H265514   0.201   2.524   3.601  0.7877 -0.0063  0.6843
14675TIP3   OH265515   2.900   2.434  16.056 -0.1622  0.5024 -0.5486
14675TIP3    H165516   2.988   2.416  16.022  0.9467  2.4426  1.0923
14675TIP3    H265517   2.872   2.512  16.008 -0.5647  0.5030 -0.3156
14676TIP3   OH265518   0.448   6.197   1.190  0.3223 -0.4075 -0.3556
14676TIP3    H165519   0.505   6.274   1.200 -0.7026  0.2916  0.3234
14676TIP3    H265520   0.477   6.156   1.109  0.9456  0.6653 -0.6927
14677TIP3   OH265521   5.707   1.941   5.348  0.2182 -0.2222 -0.5322
14677TIP3    H165522   5.705   1.997   5.426 -1.4876 -0.0417 -0.6653
14677TIP3    H265523   5.782   1.883   5.363 -0.5078 -0.7258  1.6367
14678TIP3   OH265524   2.274   6.562   1.130  0.2174  0.2000  0.8195
14678TIP3    H165525   2.354   6.606   1.159  0.5690 -0.6929  1.2259
14678TIP3    H265526   2.242   6.615   1.057  1.6315  0.0804  0.0994
14679TIP3   OH265527   4.305   5.704  11.388 -0.0508  0.7689  0.1441
14679TIP3    H165528   4.218   5.721  11.426 -0.7414  1.3046 -1.5999
14679TIP3    H265529   4.316   5.609  11.398  0.2193  0.9704  2.4620
14680TIP3   OH265530   6.265   1.402   3.159 -0.7602  0.2374 -0.5113
14680TIP3    H165531   6.193   1.462   3.181 -1.4634 -0.7663  0.0175
14680TIP3    H265532   6.252   1.383   3.066 -2.8815 -2.0394  0.1340
14681TIP3   OH265533   5.995   0.502   1.272  0.0657  0.4305 -0.3824
14681TIP3    H165534   6.031   0.430   1.220 -0.0285 -0.0945  0.2685
14681TIP3    H265535   5.910   0.521   1.232 -0.4181 -0.5949  0.1418
14682TIP3   OH265536   6.504   0.592  17.164  0.1019 -0.1155 -0.5789
14682TIP3    H165537   6.589   0.553  17.187  0.0965  0.5134  0.6212
14682TIP3    H265538   6.440   0.529  17.195  0.1091  0.4617  0.6919
14683TIP3   OH265539   6.260   0.360  16.603 -0.1949  0.4774 -0.2029
14683TIP3    H165540   6.263   0.398  16.515 -1.2543 -1.4372 -1.1376
14683TIP3    H265541   6.291   0.270  16.592 -0.3854  0.1756  1.3864
14684TIP3   OH265542   5.941   3.795  13.808  0.9362  0.0984 -0.2286
14684TIP3    H165543   5.900   3.873  13.769  0.9028  0.0126 -0.3635
14684TIP3    H265544   5.972   3.744  13.734 -0.5573 -0.8578 -0.2278
14685TIP3   OH265545   0.209   1.464   6.039  0.0496  0.0340  0.1870
14685TIP3    H165546   0.250   1.382   6.012 -0.0992  0.4441 -1.3296
14685TIP3    H265547   0.118   1.456   6.010  0.3134  1.1918 -1.0348
14686TIP3   OH265548   2.381   2.665  16.774  0.0053  0.1194  0.4553
14686TIP3    H165549   2.371   2.571  16.789 -1.0788 -0.0230 -0.9103
14686TIP3    H265550   2.472   2.683  16.798  1.0254 -1.7883 -1.5392
14687TIP3   OH265551   2.301   5.832  10.882 -0.2662 -0.3033 -0.0474
14687TIP3    H165552   2.324   5.781  10.960  0.8882 -0.6528 -0.6042
14687TIP3    H265553   2.380   5.881  10.861 -0.7506  0.2238 -0.6784
14688TIP3   OH265554   6.310   2.865   2.743  0.2013  0.4491  0.2143
14688TIP3    H165555   6.403   2.876   2.760  0.5175 -0.9372 -0.4155
14688TIP3    H265556   6.291   2.776   2.772 -1.0139  0.8439  0.6664
14689TIP3   OH265557   5.176   4.647   4.249  0.3799  0.4712 -0.1105
14689TIP3    H165558   5.169   4.742   4.240  0.2415  0.5362  0.6332
14689TIP3    H265559   5.165   4.614   4.160 -1.7389  1.0204 -0.1078
14690TIP3   OH265560   1.640   6.539  16.980 -0.1980  0.8557  0.2729
14690TIP3    H165561   1.651   6.591  17.060  2.6421  0.0088  0.5398
14690TIP3    H265562   1.729   6.520  16.951 -1.1403 -1.1704 -1.5944
14691TIP3   OH265563   5.437   3.750  11.932 -0.4299  0.0753 -0.0251
14691TIP3    H165564   5.344   3.749  11.953  0.0515  0.9142  2.3824
14691TIP3    H265565   5.460   3.843  11.928  0.1773 -0.1087 -1.3821
14692TIP3   OH265566   5.212   5.477  14.469 -0.1833 -0.0883 -0.6620
14692TIP3    H165567   5.191   5.397  14.422  0.1616 -0.7974  0.3666
14692TIP3    H265568   5.308   5.481  14.470 -0.1982  0.4051 -0.8264
14693TIP3   OH265569   0.023   0.934   4.026  0.0677 -0.2851  0.0289
14693TIP3    H165570   0.013   0.889   3.942 -0.5841  0.6687 -0.4221
14693TIP3    H265571   0.107   0.903   4.060  0.0927 -1.0806 -0.7317
14694TIP3   OH265572   6.055   4.980   5.028 -0.3279 -0.5309  0.5050
14694TIP3    H165573   6.062   5.032   4.948 -0.1942 -1.2098  0.0631
14694TIP3    H265574   5.963   4.953   5.031 -0.5992  0.4135  1.1845
14695TIP3   OH265575   3.331   4.809   3.441 -0.6191 -0.4166 -0.4213
14695TIP3    H165576   3.397   4.878   3.444 -0.3021 -0.7238 -0.2957
14695TIP3    H265577   3.336   4.767   3.527 -0.2055 -1.1590 -0.8008
14696TIP3   OH265578   3.061   3.739   2.105 -0.2477  0.3516  0.4824
14696TIP3    H165579   3.124   3.782   2.047  0.2695  0.5546  1.1872
14696TIP3    H265580   3.016   3.811   2.150  1.1886  0.1992  2.2754
14697TIP3   OH265581   2.405   6.423   1.399  0.2069 -0.0426 -0.3043
14697TIP3    H165582   2.417   6.510   1.436 -0.8895 -0.3503  0.8640
14697TIP3    H265583   2.315   6.424   1.365 -0.6090 -1.3182  1.6216
14698TIP3   OH265584   2.365   5.120   0.191 -0.3215 -0.4055 -0.4625
14698TIP3    H165585   2.442   5.172   0.215  0.1518 -0.0499 -2.5287
14698TIP3    H265586   2.401   5.038   0.158 -1.0229 -1.6116  1.5977
14699TIP3   OH265587   3.099   1.848  16.041 -0.1841  0.1425  0.0714
14699TIP3    H165588   3.007   1.846  16.068 -0.1055 -0.4558  0.3047
14699TIP3    H265589   3.096   1.851  15.946 -0.4714  2.4248  0.0767
14700TIP3   OH265590   0.135   6.470  16.310 -0.4024 -0.0099 -0.0332
14700TIP3    H165591   0.140   6.541  16.374  0.2582 -0.6473  0.6409
14700TIP3    H265592   0.191   6.499  16.237  0.7070 -0.2768  0.6900
14701TIP3   OH265593   5.382   2.947  14.127  0.0129 -0.1409  0.3607
14701TIP3    H165594   5.330   3.025  14.106  1.1443  0.8278  1.0424
14701TIP3    H265595   5.472   2.978  14.130  0.6839 -1.8385 -0.9854
14702TIP3   OH265596   0.226   2.899   3.997  0.0204 -0.1892 -0.3591
14702TIP3    H165597   0.190   2.870   4.080 -1.5021 -0.6051 -1.1326
14702TIP3    H265598   0.302   2.843   3.983  0.2712 -0.1403  0.7149
14703TIP3   OH265599   3.281   2.656   2.324  0.3414 -0.5564 -0.7026
14703TIP3    H165600   3.284   2.741   2.280 -1.2942 -0.2668 -0.2991
14703TIP3    H265601   3.278   2.593   2.252 -1.4751 -0.1208 -1.0649
14704TIP3   OH265602   2.631   2.650  15.762 -0.3766  0.5029  0.1241
14704TIP3    H165603   2.580   2.573  15.737  1.8424 -0.5116 -1.6478
14704TIP3    H265604   2.603   2.718  15.701 -0.3649  0.2750 -0.1378
14705TIP3   OH265605   5.722   5.110  10.287  0.2271 -0.1696 -0.0576
14705TIP3    H165606   5.810   5.143  10.268 -0.5991  1.6052 -1.0012
14705TIP3    H265607   5.667   5.187  10.286 -1.2685 -1.1533  1.2355
14706TIP3   OH265608   1.980   5.442  13.334 -0.1564 -0.3046 -0.0285
14706TIP3    H165609   1.921   5.417  13.405 -0.6934 -0.0677 -0.3940
14706TIP3    H265610   2.058   5.476  13.379 -0.5657  0.0134  0.4450
14707TIP3   OH265611   3.864   3.137  11.847  0.1617 -0.4037  0.0756
14707TIP3    H165612   3.872   3.222  11.890 -1.4963 -0.3755  0.4150
14707TIP3    H265613   3.894   3.153  11.757  1.2803  0.1549  0.5270
14708TIP3   OH265614   3.502   5.140   5.999 -0.5770 -0.3908  0.6847
14708TIP3    H165615   3.460   5.072   5.947  0.2384 -1.2634  1.1383
14708TIP3    H265616   3.488   5.114   6.090 -1.4735  0.8079  0.9183
14709TIP3   OH265617   2.089   2.765   5.999 -0.0423 -0.1112  0.3905
14709TIP3    H165618   2.097   2.670   5.996  0.1462 -0.0900 -2.1967
14709TIP3    H265619   2.178   2.796   6.012 -0.0769 -0.2714  1.0399
14710TIP3   OH265620   5.819   5.928  15.995 -0.1289  0.6655 -0.5436
14710TIP3    H165621   5.818   5.923  16.090  2.4880 -1.1708 -0.5066
14710TIP3    H265622   5.894   5.874  15.968  1.0301  3.4044 -3.5193
14711TIP3   OH265623   2.829   1.191   6.841  0.2019 -0.0513  0.1547
14711TIP3    H165624   2.781   1.179   6.759  2.1765 -1.0644 -0.9327
14711TIP3    H265625   2.813   1.282   6.865  0.2996  0.5586 -1.8774
14712TIP3   OH265626   4.593   1.301   3.300  0.6709  0.1267 -0.2248
14712TIP3    H165627   4.527   1.304   3.369 -0.0815 -1.0858 -0.8659
14712TIP3    H265628   4.572   1.376   3.243 -0.9117 -0.8877 -1.0597
14713TIP3   OH265629   3.259   6.500  14.418 -0.3666 -0.0995 -0.4127
14713TIP3    H165630   3.267   6.595  14.422 -1.2070 -0.0316 -0.1680
14713TIP3    H265631   3.276   6.471  14.508  1.8733 -0.3701 -0.8616
14714TIP3   OH265632   1.781   6.707   6.817  0.2996  0.6212  0.3089
14714TIP3    H165633   1.784   6.800   6.842 -1.7173  0.5152  1.0985
14714TIP3    H265634   1.694   6.695   6.779  0.5139 -0.9652  0.2775
14715TIP3   OH265635   5.680   0.076   2.767 -0.1561  0.3193 -0.3333
14715TIP3    H165636   5.746   0.135   2.803  0.4726 -0.9822  0.7420
14715TIP3    H265637   5.642   0.033   2.844 -1.2156 -0.0403 -1.0325
14716TIP3   OH265638   2.228   5.510  13.472  0.3157 -0.6921 -0.1089
14716TIP3    H165639   2.295   5.507  13.404  0.5018  1.0766 -0.0581
14716TIP3    H265640   2.252   5.586  13.526 -2.1399  0.5284 -0.5753
14717TIP3   OH265641   1.583   6.458   4.936 -0.0267 -0.2350  0.2026
14717TIP3    H165642   1.672   6.427   4.923 -0.1123  0.0127 -1.1747
14717TIP3    H265643   1.528   6.384   4.913 -0.1892 -0.2897  0.7477
14718TIP3   OH265644   0.649   1.692   1.600  0.1897  0.6561  0.6986
14718TIP3    H165645   0.559   1.676   1.569 -0.2018  1.6235  1.2854
14718TIP3    H265646   0.697   1.717   1.521  0.3437 -1.2903  0.1025
14719TIP3   OH265647   6.493   2.591   3.857  0.6234 -0.0741  0.3432
14719TIP3    H165648   6.577   2.634   3.839  1.0532 -0.8361  0.4783
14719TIP3    H265649   6.458   2.638   3.932 -0.5672  2.2794 -1.5670
14720TIP3   OH265650   3.603   5.228   1.471 -0.5339  0.7468 -0.1424
14720TIP3    H165651   3.693   5.195   1.468 -0.0102  1.8688  1.4711
14720TIP3    H265652   3.559   5.172   1.535 -0.8519  0.4900 -0.5847
14721TIP3   OH265653   0.187   1.196  12.483 -0.2767  0.6412  0.3415
14721TIP3    H165654   0.236   1.269  12.521  2.1448 -0.5695 -0.2239
14721TIP3    H265655   0.096   1.212  12.508  0.0393  4.1381 -0.2545
14722TIP3   OH265656   4.221   3.736  12.295  0.1951 -0.3567  0.1641
14722TIP3    H165657   4.131   3.754  12.319  1.1364  2.2136  2.3030
14722TIP3    H265658   4.245   3.658  12.345 -0.4143 -0.1762  0.7485
14723TIP3   OH265659   3.166   5.490   3.571  0.3656 -0.0255  0.1417
14723TIP3    H165660   3.187   5.583   3.581  1.7857 -0.3735  0.6866
14723TIP3    H265661   3.128   5.465   3.655 -0.9359  0.2520 -0.3313
14724TIP3   OH265662   6.270   0.594   1.163 -0.0090  0.3025 -0.4263
14724TIP3    H165663   6.273   0.605   1.258  0.5039  0.5690 -0.4702
14724TIP3    H265664   6.252   0.501   1.151  2.3173 -0.2470 -0.0627
14725TIP3   OH265665   3.616   3.635   3.147 -0.4129 -0.2479  0.1468
14725TIP3    H165666   3.577   3.645   3.234  0.5727 -0.0625  0.5885
14725TIP3    H265667   3.556   3.680   3.088 -0.8003  0.1354  0.8190
14726TIP3   OH265668   6.570   5.916  14.248  0.4443  0.4666  0.1170
14726TIP3    H165669   6.574   5.999  14.202  1.5446  0.5919  0.4070
14726TIP3    H265670   6.499   5.927  14.311 -1.4716  0.0904 -1.8705
14727TIP3   OH265671   4.737   3.183   6.589 -0.2466 -0.2913  0.0187
14727TIP3    H165672   4.824   3.174   6.550  0.4397  1.6967  0.9231
14727TIP3    H265673   4.732   3.276   6.615 -2.1239 -0.6595  1.1860
14728TIP3   OH265674   4.344   0.523   4.256 -0.1498  0.2851 -0.3330
14728TIP3    H165675   4.286   0.497   4.185  1.3615 -1.1997 -1.0927
14728TIP3    H265676   4.405   0.450   4.266 -0.1353  0.5413  2.3439
14729TIP3   OH265677   4.050   5.749   0.994 -0.1322  0.0662 -0.1568
14729TIP3    H165678   4.003   5.677   1.036  0.2003  0.1492  0.3619
14729TIP3    H265679   4.140   5.739   1.024  0.0003  0.4568 -0.4171
14730TIP3   OH265680   0.393   1.917   0.411  0.3225  0.0029  0.2502
14730TIP3    H165681   0.478   1.953   0.435  1.0467 -0.6634 -1.2070
14730TIP3    H265682   0.411   1.825   0.389 -0.4853  0.2220 -1.5023
14731TIP3   OH265683   0.817   1.520   2.537  0.8611  0.0998  0.3678
14731TIP3    H165684   0.726   1.549   2.525  0.7282 -0.1646  0.7169
14731TIP3    H265685   0.810   1.426   2.551  1.0992  0.2147  1.3629
14732TIP3   OH265686   4.904   6.166   0.294  0.6870 -0.7149  0.1350
14732TIP3    H165687   4.863   6.083   0.270  0.3732 -0.1621 -1.3352
14732TIP3    H265688   4.980   6.174   0.235 -0.1744  0.7371 -0.8660
14733TIP3   OH265689   3.229   3.170  17.052 -0.5550  0.0267  0.0462
14733TIP3    H165690   3.251   3.085  17.090 -1.4050  0.4226  1.4724
14733TIP3    H265691   3.252   3.161  16.959  0.4032 -1.3777  0.3884
14734TIP3   OH265692   0.568   5.085   1.344 -0.0273 -0.6286 -0.2649
14734TIP3    H165693   0.479   5.059   1.367 -0.0242 -0.1164  0.3548
14734TIP3    H265694   0.579   5.057   1.254 -0.4165 -1.7427  0.0163
14735TIP3   OH265695   1.156   4.802  11.744 -0.1991 -0.1137 -0.2386
14735TIP3    H165696   1.248   4.781  11.760 -0.3166  0.9080  2.0457
14735TIP3    H265697   1.142   4.886  11.786 -2.5962 -1.0439  1.0358
14736TIP3   OH265698   6.321   2.938   4.753  0.3214  0.0017 -0.2976
14736TIP3    H165699   6.297   2.858   4.799  0.6380  0.4135  0.6167
14736TIP3    H265700   6.395   2.914   4.697 -0.7742 -0.7645 -1.4613
14737TIP3   OH265701   2.622   1.700   3.375  0.1460 -0.5109 -0.4922
14737TIP3    H165702   2.677   1.765   3.421  1.7285 -1.5265 -0.8732
14737TIP3    H265703   2.533   1.719   3.405  1.0327 -0.8659  2.7238
14738TIP3   OH265704   4.777   1.010  13.092 -0.2486 -0.0309  0.3499
14738TIP3    H165705   4.725   0.945  13.139  1.5317 -1.7774  0.0557
14738TIP3    H265706   4.776   0.980  13.001  2.2176 -0.8652  0.5245
14739TIP3   OH265707   1.105   3.435  13.100 -0.5994 -0.2261  0.3533
14739TIP3    H165708   1.049   3.500  13.142  1.0953 -0.4120  3.0923
14739TIP3    H265709   1.049   3.397  13.032 -2.0591  3.1479 -0.5825
14740TIP3   OH265710   3.859   3.849   6.329  0.2267  0.5731  0.9523
14740TIP3    H165711   3.910   3.886   6.401 -0.7941  1.8458  1.0553
14740TIP3    H265712   3.844   3.758   6.355  0.1894  0.9090  2.1879
14741TIP3   OH265713   4.367   4.254  12.393 -0.0612  0.8757 -0.3664
14741TIP3    H165714   4.421   4.177  12.411 -2.7049 -1.2803 -0.8972
14741TIP3    H265715   4.312   4.263  12.471  0.1435  2.1978 -0.3537
14742TIP3   OH265716   2.006   1.035  12.763 -0.4539 -0.5113 -0.0967
14742TIP3    H165717   2.038   1.046  12.853 -0.1572  3.4444 -0.4929
14742TIP3    H265718   1.911   1.045  12.770 -0.2931  1.6625 -0.3081
14743TIP3   OH265719   3.625   6.318   0.309  0.6206 -0.4223 -0.3489
14743TIP3    H165720   3.718   6.298   0.305  0.8444  0.0266  1.5723
14743TIP3    H265721   3.621   6.409   0.339 -0.4341 -0.3473 -0.6806
14744TIP3   OH265722   2.954   4.162  13.211 -0.8124  0.1411 -0.4876
14744TIP3    H165723   3.019   4.222  13.248 -0.5158  1.1702 -2.5116
14744TIP3    H265724   2.871   4.208  13.219 -1.1186 -0.5865  0.8354
14745TIP3   OH265725   1.766   2.801  10.651  0.0362  0.3980 -0.1703
14745TIP3    H165726   1.768   2.707  10.669  0.8938 -0.0891 -2.3973
14745TIP3    H265727   1.858   2.826  10.642 -0.0628  1.9126  2.1632
14746TIP3   OH265728   3.372   3.780   0.564 -0.3111  0.0019  0.7424
14746TIP3    H165729   3.277   3.793   0.569 -0.4539 -0.1503 -0.8840
14746TIP3    H265730   3.408   3.869   0.560 -0.3680  0.0617  1.4719
14747TIP3   OH265731   1.091   3.360   2.588  0.8107 -0.9575 -0.4151
14747TIP3    H165732   1.113   3.436   2.534 -1.6039 -0.1593 -0.4065
14747TIP3    H265733   1.168   3.348   2.644  0.8664  2.2745  0.4492
14748TIP3   OH265734   4.025   5.344   3.057  0.2638 -0.8449 -0.6531
14748TIP3    H165735   4.003   5.252   3.064 -0.6903 -0.6315 -0.7388
14748TIP3    H265736   4.031   5.361   2.963 -3.0634 -0.0659 -0.8498
14749TIP3   OH265737   3.373   3.000   0.334  0.5321 -0.5932  0.1669
14749TIP3    H165738   3.433   3.074   0.320 -1.1340  0.9636  0.8075
14749TIP3    H265739   3.365   2.994   0.429 -2.9394  1.6107  0.1944
14750TIP3   OH265740   1.109   6.771   1.544 -0.0985  0.3097 -0.3140
14750TIP3    H165741   1.031   6.738   1.589 -0.0648 -0.0899 -0.5432
14750TIP3    H265742   1.134   6.700   1.484  0.5473  0.3652 -0.1118
14751TIP3   OH265743   1.709   5.662  17.326  1.4752  0.1048  0.4398
14751TIP3    H165744   1.635   5.644  17.268  0.5785 -1.0540  1.8842
14751TIP3    H265745   1.714   5.758  17.329  1.4340  0.1956 -1.3572
14752TIP3   OH265746   0.526   2.454  14.011 -0.3580  0.8835  0.2690
14752TIP3    H165747   0.535   2.455  14.107 -0.1202  0.8053  0.2475
14752TIP3    H265748   0.447   2.505  13.994 -1.2486 -0.3363  0.5932
14753TIP3   OH265749   1.264   5.137   0.969  0.3096  0.2569  0.1135
14753TIP3    H165750   1.320   5.177   1.035 -0.4378  1.7659 -0.1167
14753TIP3    H265751   1.195   5.092   1.018  1.4079 -1.1967  0.3849
14754TIP3   OH265752   6.132   2.557   5.958 -0.2920 -0.4570  0.1673
14754TIP3    H165753   6.099   2.546   6.047 -0.2638 -2.4908 -0.0161
14754TIP3    H265754   6.053   2.562   5.904 -0.3015  0.0422  0.2197
14755TIP3   OH265755   0.491   1.382   1.492 -0.1312  0.2525  0.3282
14755TIP3    H165756   0.505   1.448   1.424 -1.2499 -1.4851 -1.7125
14755TIP3    H265757   0.566   1.322   1.483 -0.8859 -0.6321 -0.2195
14756TIP3   OH265758   6.371   4.716   0.060  0.7741  0.0991 -0.5620
14756TIP3    H165759   6.281   4.703   0.029  0.4314  0.2794  0.3276
14756TIP3    H265760   6.401   4.793   0.013 -0.0573  0.9158  0.2098
14757TIP3   OH265761   6.705   3.645   2.806 -0.2206 -0.1510 -0.1232
14757TIP3    H165762   6.762   3.611   2.737  0.0271 -3.3467  1.4758
14757TIP3    H265763   6.759   3.710   2.851  0.9361 -0.6901 -0.6816
14758TIP3   OH265764   6.484   5.947   5.176  0.1974  0.1869  0.1292
14758TIP3    H165765   6.399   5.927   5.138  0.5547  1.6079 -1.5138
14758TIP3    H265766   6.490   5.889   5.253 -1.3683 -1.3846 -0.8588
14759TIP3   OH265767   1.138   1.481   4.943  0.4143  0.3229  0.9247
14759TIP3    H165768   1.076   1.409   4.956 -0.4905  1.4445  3.5331
14759TIP3    H265769   1.084   1.560   4.940  1.4719  1.0350 -0.6960
14760TIP3   OH265770   4.588   0.214  15.245  0.2326  0.0102 -0.4427
14760TIP3    H165771   4.675   0.232  15.280 -0.4384 -0.8317  1.8585
14760TIP3    H265772   4.596   0.128  15.204  0.1127 -0.9930  1.5028
14761TIP3   OH265773   3.626   0.573   3.397 -0.2773 -0.0992  0.3099
14761TIP3    H165774   3.585   0.659   3.386 -0.4843 -0.2561 -0.1589
14761TIP3    H265775   3.693   0.569   3.329  0.1201 -0.0807  0.6971
14762TIP3   OH265776   2.543   3.138   4.345  0.3892  0.0177  0.4434
14762TIP3    H165777   2.565   3.224   4.309 -0.3310 -0.3526 -0.9147
14762TIP3    H265778   2.464   3.112   4.299 -1.4829  0.1458  3.3357
14763TIP3   OH265779   4.929   0.042  13.479 -0.1767 -0.0714  0.2248
14763TIP3    H165780   4.910  -0.045  13.445 -0.6185  0.0954  0.0291
14763TIP3    H265781   4.992   0.028  13.549  1.9160 -0.3085 -1.5901
14764TIP3   OH265782   4.676   5.620   1.464 -0.3896 -0.1257  0.7876
14764TIP3    H165783   4.614   5.574   1.522  0.2862 -1.1880  0.6934
14764TIP3    H265784   4.753   5.635   1.519  0.3455 -1.3347  0.1484
14765TIP3   OH265785   4.986   1.287   4.914 -0.8074 -0.3693 -0.0784
14765TIP3    H165786   5.008   1.378   4.895  1.0245 -0.3731  1.6831
14765TIP3    H265787   5.026   1.237   4.843  0.3182  0.0514  0.2398
14766TIP3   OH265788   6.254   6.578  16.381 -0.4559 -0.1997  0.0788
14766TIP3    H165789   6.342   6.598  16.412 -0.2804  0.2448 -0.6824
14766TIP3    H265790   6.255   6.484  16.364 -0.1057 -0.1770 -0.0182
14767TIP3   OH265791   2.051   6.696   5.477 -0.1926  0.5531 -0.3101
14767TIP3    H165792   2.075   6.706   5.570  2.2528 -1.3553 -0.6320
14767TIP3    H265793   2.109   6.757   5.432  0.3708 -0.2789 -0.7315
14768TIP3   OH265794   5.871   5.089   2.562  0.1954  0.0753 -0.5435
14768TIP3    H165795   5.894   5.143   2.637 -0.6664  1.6494 -1.3480
14768TIP3    H265796   5.948   5.035   2.546  0.7945  0.4989  0.7897
14769TIP3   OH265797   4.046   0.939   1.015 -0.0451  0.1565 -0.8829
14769TIP3    H165798   4.036   0.926   1.109  2.1099  2.2585 -0.2455
14769TIP3    H265799   3.961   0.917   0.978  0.0540 -4.5170  0.9995
14770TIP3   OH265800   2.896   3.284   5.240  0.4577  0.9399  0.0412
14770TIP3    H165801   2.837   3.331   5.300  0.1482  1.3985 -0.6072
14770TIP3    H265802   2.866   3.193   5.244  1.7485  0.5255  2.1393
14771TIP3   OH265803   2.086   2.724  15.208 -0.4873 -0.3875 -0.0758
14771TIP3    H165804   2.111   2.788  15.142  1.1552 -0.8115  0.0860
14771TIP3    H265805   2.169   2.698  15.248 -1.2854 -1.4082  0.9683
14772TIP3   OH265806   2.807   6.756  13.221  0.0668 -0.5269  0.3745
14772TIP3    H165807   2.795   6.720  13.309  0.1919  0.9617  1.0286
14772TIP3    H265808   2.752   6.834  13.219 -0.1160 -0.6615 -0.9635
14773TIP3   OH265809   4.166   1.287  16.048 -0.3577  1.1090  0.4565
14773TIP3    H165810   4.145   1.317  16.136  1.3691 -1.8675  2.0880
14773TIP3    H265811   4.203   1.199  16.061  1.6994  1.2363 -3.0677
14774TIP3   OH265812   3.204   3.457  11.651 -0.8923 -0.0945  0.1242
14774TIP3    H165813   3.198   3.364  11.673 -1.9951 -0.3805 -1.2391
14774TIP3    H265814   3.229   3.499  11.734  1.3746 -1.7517  0.3883
14775TIP3   OH265815   4.740   0.388  16.438  0.1144 -0.3589  0.0468
14775TIP3    H165816   4.754   0.295  16.419 -0.5133 -0.2070 -1.2235
14775TIP3    H265817   4.749   0.432  16.353 -0.9070  0.5793  0.4037
14776TIP3   OH265818   1.637   2.402  11.509 -0.2200  0.6710  0.2449
14776TIP3    H165819   1.673   2.465  11.447 -1.5640  2.0887  0.8396
14776TIP3    H265820   1.702   2.399  11.580 -0.0901  1.3170  0.1589
14777TIP3   OH265821   4.517   5.498  15.721  0.2779  0.2657  0.2049
14777TIP3    H165822   4.484   5.478  15.633  0.0452 -0.3006  0.4164
14777TIP3    H265823   4.484   5.586  15.740  0.5021  0.4778 -0.3563
14778TIP3   OH265824   1.627   3.507   3.387  0.5313  0.1672 -0.4664
14778TIP3    H165825   1.573   3.529   3.463 -0.9732  0.2305 -1.5114
14778TIP3    H265826   1.565   3.471   3.323  1.9233 -0.8682 -1.2827
14779TIP3   OH265827   2.018   5.067   3.300 -0.1878 -0.0772 -0.1362
14779TIP3    H165828   2.053   4.992   3.252  0.7752  0.0651  0.3264
14779TIP3    H265829   2.073   5.140   3.273  1.1975 -0.2196  2.0793
14780TIP3   OH265830   5.430   0.865   0.666  0.1893 -0.2380  0.9005
14780TIP3    H165831   5.374   0.943   0.665 -0.1337 -0.4577 -0.2075
14780TIP3    H265832   5.389   0.807   0.730 -1.0556 -0.5070 -0.0888
14781TIP3   OH265833   0.681   4.005   3.243 -0.3895  0.0036  0.3912
14781TIP3    H165834   0.700   3.916   3.273  1.1714  0.0750 -0.2703
14781TIP3    H265835   0.626   3.993   3.165 -1.9406 -0.2780  1.4882
14782TIP3   OH265836   0.494   3.664  14.954 -0.3912 -0.1891 -0.2088
14782TIP3    H165837   0.472   3.665  15.047  0.8431 -0.0599  0.1079
14782TIP3    H265838   0.512   3.572  14.935  0.7960 -0.0358  0.0712
14783TIP3   OH265839   3.093   5.864   4.846  0.3537  0.7034  0.3331
14783TIP3    H165840   3.089   5.771   4.825  1.1456  0.3236  1.7116
14783TIP3    H265841   3.015   5.902   4.807 -0.2304 -0.6336  0.1721
14784TIP3   OH265842   4.725   4.233  11.445 -0.3143  0.1366 -0.0715
14784TIP3    H165843   4.675   4.251  11.365 -2.1709 -2.7436  0.3198
14784TIP3    H265844   4.738   4.138  11.444 -0.5712 -0.0277  3.1098
14785TIP3   OH265845   2.222   0.224  11.457 -0.1728  0.1157  0.2310
14785TIP3    H165846   2.280   0.223  11.381  0.3984 -1.2382  0.6702
14785TIP3    H265847   2.274   0.189  11.529 -1.2236 -0.1899  0.8658
14786TIP3   OH265848   3.575   0.241   3.698 -0.6682  0.3719  0.3611
14786TIP3    H165849   3.522   0.200   3.629 -0.7786  1.4227 -0.1941
14786TIP3    H265850   3.532   0.325   3.715 -0.2737  0.3998  1.2634
14787TIP3   OH265851   2.898   1.275  13.068 -0.2610 -0.3501 -0.0700
14787TIP3    H165852   2.957   1.324  13.125 -1.2119  1.9640 -0.9503
14787TIP3    H265853   2.816   1.272  13.116 -0.9119  1.1455 -1.0216
14788TIP3   OH265854   4.630   4.152  13.107  0.2720 -0.3523  0.7313
14788TIP3    H165855   4.540   4.119  13.105 -1.1491  2.9488 -2.5977
14788TIP3    H265856   4.672   4.109  13.033  0.7744 -0.2689  0.9681
14789TIP3   OH265857   0.643   3.293  10.837 -0.1524 -0.1107 -0.3838
14789TIP3    H165858   0.689   3.347  10.772  1.1674 -0.4729  0.2209
14789TIP3    H265859   0.639   3.206  10.797  1.0245 -0.4339  0.1540
14790TIP3   OH265860   1.931   5.729   1.988  0.0441  0.4803 -0.3374
14790TIP3    H165861   1.855   5.787   1.987  1.0421  1.8168 -0.4614
14790TIP3    H265862   1.940   5.703   2.080 -0.2284  0.7616 -0.2310
14791TIP3   OH265863   3.520   2.589  12.319 -0.1281  0.3444  0.2818
14791TIP3    H165864   3.591   2.538  12.356  0.3274  0.7052 -0.0814
14791TIP3    H265865   3.442   2.535  12.331  0.6117 -1.3184 -1.8327
14792TIP3   OH265866   4.463   3.887  14.905  0.0485  0.8320  0.0346
14792TIP3    H165867   4.476   3.952  14.973  0.3546  0.9207 -0.1072
14792TIP3    H265868   4.485   3.932  14.824 -0.8511  0.8914 -0.1837
14793TIP3   OH265869   4.654   1.813   0.487  0.1216 -0.0414  0.5912
14793TIP3    H165870   4.693   1.725   0.486  0.2278  0.0021 -0.8727
14793TIP3    H265871   4.619   1.822   0.576  0.1342 -1.5476  0.7842
14794TIP3   OH265872   3.821   3.744  15.023 -0.3431 -0.1989 -0.3909
14794TIP3    H165873   3.872   3.789  14.955 -1.0582 -0.4598 -1.1068
14794TIP3    H265874   3.846   3.789  15.104 -0.1173  0.6826 -0.9261
14795TIP3   OH265875   0.317   1.579  11.492  0.2190 -0.2133 -0.3647
14795TIP3    H165876   0.236   1.575  11.441 -0.4124  1.7029  0.4018
14795TIP3    H265877   0.377   1.630  11.437  0.7403 -1.1755 -0.7002
14796TIP3   OH265878   0.779   2.127  10.635 -0.4087  0.6287 -0.3237
14796TIP3    H165879   0.771   2.221  10.616 -0.5731  0.5985 -0.4022
14796TIP3    H265880   0.766   2.121  10.730  0.4978  0.7886 -0.1763
14797TIP3   OH265881   3.527   4.270   0.223 -0.1731  0.4925 -0.5193
14797TIP3    H165882   3.524   4.193   0.280  1.2817  1.2911  0.7443
14797TIP3    H265883   3.515   4.344   0.283  0.6819  1.3386 -1.3555
14798TIP3   OH265884   4.987   1.204  12.995 -0.0564  0.0503 -0.0334
14798TIP3    H165885   4.980   1.113  13.026 -1.5769  0.6843  1.6736
14798TIP3    H265886   5.058   1.241  13.047 -1.0503  0.4634  1.0865
14799TIP3   OH265887   3.160   0.263  12.568  0.3219 -0.2230 -0.3941
14799TIP3    H165888   3.244   0.265  12.613 -0.9098 -4.1684  2.6268
14799TIP3    H265889   3.122   0.350  12.585  2.9623  1.0402 -0.3973
14800TIP3   OH265890   1.097   0.673   6.108 -1.0110 -0.0334 -0.0559
14800TIP3    H165891   1.100   0.646   6.016  1.2878  2.4392 -0.8262
14800TIP3    H265892   1.127   0.596   6.156  0.8576 -0.4362 -1.7135
14801TIP3   OH265893   1.022   5.438   0.731  0.0242  0.4006  0.3782
14801TIP3    H165894   1.067   5.519   0.755  1.4161 -0.1212 -0.3598
14801TIP3    H265895   1.091   5.381   0.697 -0.5497 -1.8874  2.7394
14802TIP3   OH265896   4.784   5.513  13.249  0.3142 -0.2985  0.5325
14802TIP3    H165897   4.800   5.567  13.172 -0.0122 -0.1427  0.5719
14802TIP3    H265898   4.696   5.538  13.278 -1.1992 -3.0474 -1.2426
14803TIP3   OH265899   6.798   4.763   3.345  0.0292  0.6554 -0.0630
14803TIP3    H165900   6.708   4.731   3.333 -0.4929  1.2880  1.7701
14803TIP3    H265901   6.840   4.751   3.260 -1.5336 -0.4696 -0.7190
14804TIP3   OH265902   5.441   5.233  15.161 -0.4839 -0.7660  0.0855
14804TIP3    H165903   5.528   5.271  15.152 -0.1432 -1.3821  0.7336
14804TIP3    H265904   5.441   5.158  15.101 -0.4188 -1.0250  0.4084
14805TIP3   OH265905   1.156   5.316  12.577 -0.1101 -0.0536 -0.1060
14805TIP3    H165906   1.195   5.277  12.499  0.1612  0.7024 -0.3567
14805TIP3    H265907   1.190   5.406  12.579  0.7481 -0.3701  1.4784
14806TIP3   OH265908   1.949   3.598  14.710  0.2055  0.0332  0.1757
14806TIP3    H165909   2.020   3.553  14.755  0.1250  0.1881  0.4593
14806TIP3    H265910   1.931   3.544  14.634 -0.8085 -1.1515  1.2224
14807TIP3   OH265911   5.758   4.981   5.262 -0.0405  0.0998 -0.3983
14807TIP3    H165912   5.764   4.960   5.356  0.0519  1.3115 -0.1196
14807TIP3    H265913   5.714   4.905   5.224  1.7119 -1.3168  0.2918
14808TIP3   OH265914   0.579   4.425  15.148  0.1470  0.9123 -0.3597
14808TIP3    H165915   0.514   4.473  15.097  0.9233  0.5445 -1.7268
14808TIP3    H265916   0.574   4.465  15.235 -1.3800  1.3807 -0.6265
14809TIP3   OH265917   4.795   6.654  14.478 -0.2722  0.1618  0.0591
14809TIP3    H165918   4.829   6.574  14.519  0.1667  0.4789  0.3242
14809TIP3    H265919   4.804   6.638  14.384 -1.3503 -0.5995  0.0618
14810TIP3   OH265920   6.733   3.792  14.789  0.0778 -0.1197 -0.0511
14810TIP3    H165921   6.737   3.717  14.849  0.4088 -0.9801 -1.1118
14810TIP3    H265922   6.754   3.755  14.704  0.7995  1.2955 -0.5183
14811TIP3   OH265923   5.394   6.291  15.906  0.2949 -0.2260 -0.2179
14811TIP3    H165924   5.383   6.213  15.961 -1.2757 -0.4896 -0.8276
14811TIP3    H265925   5.384   6.258  15.816  1.8735  0.3407 -0.6188
14812TIP3   OH265926   6.334   1.335  16.558  0.1819  0.3078 -0.0695
14812TIP3    H165927   6.389   1.383  16.496  1.3113 -0.8523 -0.0237
14812TIP3    H265928   6.397   1.283  16.609 -1.0108 -1.8547 -0.6807
14813TIP3   OH265929   4.665   6.597   0.557  0.6944 -0.0694 -0.1031
14813TIP3    H165930   4.647   6.527   0.493  1.0405  0.5122 -0.8503
14813TIP3    H265931   4.585   6.650   0.557  0.5776 -0.2406  0.1845
14814TIP3   OH265932   1.289   0.098  14.959 -0.5528 -0.4634  0.2531
14814TIP3    H165933   1.214   0.064  15.008 -1.7220 -0.9926 -1.7870
14814TIP3    H265934   1.306   0.032  14.892  0.1750  0.7932 -0.8522
14815TIP3   OH265935   2.826   4.433  11.747 -0.4652  0.1664 -0.0574
14815TIP3    H165936   2.769   4.378  11.692 -1.6318 -0.1031  1.3406
14815TIP3    H265937   2.777   4.443  11.829  0.8770  1.1799  0.6621
14816TIP3   OH265938   6.682   0.966  13.697  0.0003 -0.1485 -0.3274
14816TIP3    H165939   6.756   1.024  13.715  0.9533 -0.8608 -1.7356
14816TIP3    H265940   6.710   0.880  13.728 -1.2348  0.0202  1.3636
14817TIP3   OH265941   5.836   1.005  15.137 -0.1305  0.1750  0.2560
14817TIP3    H165942   5.777   1.031  15.066 -1.4947 -2.8790  0.1083
14817TIP3    H265943   5.778   0.990  15.212  1.1423  2.0677  1.7490
14818TIP3   OH265944   1.330   5.654  15.437  0.1569 -0.0230  0.5756
14818TIP3    H165945   1.419   5.667  15.468  0.4405  0.0973 -0.2558
14818TIP3    H265946   1.305   5.568  15.470  1.4072 -1.0626 -1.0079
14819TIP3   OH265947   0.417   1.447  12.307  0.1466 -0.4912  0.4028
14819TIP3    H165948   0.349   1.503  12.344 -0.9007 -1.1960 -0.4085
14819TIP3    H265949   0.459   1.406  12.383 -1.4557 -1.3409  0.8701
14820TIP3   OH265950   2.245   1.941  14.992 -0.6768 -0.4431  0.5258
14820TIP3    H165951   2.339   1.962  14.993 -0.9901  1.0152  1.0205
14820TIP3    H265952   2.242   1.848  14.971  0.7763  0.0742 -2.4307
14821TIP3   OH265953   5.374   1.976  15.427 -0.2452 -0.1155  0.2059
14821TIP3    H165954   5.367   2.072  15.431 -0.6270 -0.1700  1.1829
14821TIP3    H265955   5.301   1.945  15.481  0.5165 -0.9377  0.7815
14822TIP3   OH265956   2.144   1.849  11.594 -0.1296  0.0976  0.3974
14822TIP3    H165957   2.054   1.822  11.581 -0.8591  2.3330  0.2772
14822TIP3    H265958   2.145   1.890  11.681  0.3546  1.5244 -0.2451
14823TIP3   OH265959   0.962   0.904   3.792 -0.3092  0.0753 -0.7854
14823TIP3    H165960   0.917   0.887   3.875 -0.2745 -0.9310 -0.9598
14823TIP3    H265961   1.029   0.836   3.786  0.0367  0.4546 -1.3986
14824TIP3   OH265962   0.123   6.315   2.259 -0.0736 -0.3924 -0.6037
14824TIP3    H165963   0.161   6.249   2.201 -1.6877 -0.9784 -1.0545
14824TIP3    H265964   0.054   6.269   2.306 -0.4990  0.7045 -0.1095
14825TIP3   OH265965   2.688   1.643  13.667  0.0738  0.0495  0.1805
14825TIP3    H165966   2.753   1.685  13.610  1.5702 -0.5203  1.3723
14825TIP3    H265967   2.639   1.716  13.705  2.5805  0.8564  2.1642
14826TIP3   OH265968   0.995   6.071  15.527  0.2972  0.2106  0.5496
14826TIP3    H165969   0.904   6.069  15.497  0.7316  1.0618 -0.9328
14826TIP3    H265970   1.041   6.009  15.471  0.7956  0.4469  0.6857
14827TIP3   OH265971   3.638   0.698  13.716  0.7430 -0.1470  0.1478
14827TIP3    H165972   3.556   0.678  13.671  0.2067  0.0295  1.0069
14827TIP3    H265973   3.702   0.710  13.647 -0.5192  2.2863 -0.6944
14828TIP3   OH265974   2.522   5.529  16.381 -0.4944 -0.0684  0.9342
14828TIP3    H165975   2.569   5.612  16.394 -1.6644  0.7513  0.2052
14828TIP3    H265976   2.484   5.509  16.466  1.5607 -1.0308  1.6769
14829TIP3   OH265977   4.369   0.709  15.658  0.0581  0.0144 -0.0473
14829TIP3    H165978   4.407   0.795  15.675  0.5306 -0.2689  0.3639
14829TIP3    H265979   4.394   0.656  15.734 -2.7131  0.2943  1.2183
14830TIP3   OH265980   2.790   1.317   2.118  0.1870 -0.5838 -0.2340
14830TIP3    H165981   2.780   1.233   2.074 -2.3841 -0.9587  0.8920
14830TIP3    H265982   2.787   1.295   2.212 -2.4115  0.8428  0.1151
14831TIP3   OH265983   2.166   6.679   4.194  0.2465  0.1442 -0.3851
14831TIP3    H165984   2.081   6.674   4.151 -0.2821 -0.9996  0.7328
14831TIP3    H265985   2.149   6.652   4.284  1.6053  0.9360  0.1372
14832TIP3   OH265986   2.822   0.904   3.103 -0.0955  0.0383 -0.5633
14832TIP3    H165987   2.740   0.937   3.139  0.3478 -0.7937  1.3520
14832TIP3    H265988   2.799   0.821   3.061 -0.4274  0.3954 -1.0842
14833TIP3   OH265989   0.811   3.337  15.201  0.7408  0.4650  0.2851
14833TIP3    H165990   0.729   3.371  15.238  0.7081  0.0583  0.6034
14833TIP3    H265991   0.840   3.272  15.266  1.4142  0.7451  0.2631
14834TIP3   OH265992   1.799   2.531   4.818  0.9342 -0.2626  0.0903
14834TIP3    H165993   1.791   2.470   4.891  0.0397  0.4195  0.5779
14834TIP3    H265994   1.736   2.500   4.754  1.1197 -0.3637 -0.0468
14835TIP3   OH265995   3.384   3.319  14.512 -0.0177 -0.3377  0.0345
14835TIP3    H165996   3.309   3.376  14.527  0.3573  0.0456  0.4967
14835TIP3    H265997   3.450   3.376  14.472  0.1516 -0.5819 -0.0376
14836TIP3   OH265998   4.265   5.689   2.311  0.0250 -0.3257  0.4634
14836TIP3    H165999   4.322   5.755   2.272 -0.7974 -0.7818 -1.6488
14836TIP3    H266000   4.257   5.621   2.244 -1.9478 -0.8852  1.1926
14837TIP3   OH266001   0.083   4.910  12.772  0.0126 -0.1814  0.4244
14837TIP3    H166002   0.166   4.927  12.817  0.5867  0.7815 -0.9217
14837TIP3    H266003   0.083   4.815  12.759 -0.0747 -0.4685  2.1892
14838TIP3   OH266004   6.679   2.121  13.273 -0.2668  0.0160 -0.3083
14838TIP3    H166005   6.723   2.204  13.251 -0.9071  0.2967 -0.5530
14838TIP3    H266006   6.587   2.145  13.285 -0.3649 -0.5740  0.1550
14839TIP3   OH266007   4.471   3.053  15.985  0.0289  0.2312 -0.1838
14839TIP3    H166008   4.440   2.964  15.970  0.4012 -0.0026  0.3839
14839TIP3    H266009   4.459   3.098  15.901 -0.6630 -0.1999 -0.3200
14840TIP3   OH266010   2.201   2.626   1.099  0.2297  0.3065  0.3978
14840TIP3    H166011   2.177   2.672   1.180 -0.2915 -1.3859  1.2574
14840TIP3    H266012   2.281   2.579   1.121 -0.1107 -0.4494  0.0660
14841TIP3   OH266013   6.553   0.437  12.328  0.4418  0.7686 -0.1809
14841TIP3    H166014   6.618   0.385  12.281  1.2295  1.0675  0.5514
14841TIP3    H266015   6.515   0.376  12.392  0.0745  0.6293 -0.5224
14842TIP3   OH266016   3.424   4.773  14.164  0.0995  0.7182  0.2751
14842TIP3    H166017   3.516   4.759  14.186  0.1149  0.2606 -0.0601
14842TIP3    H266018   3.392   4.686  14.138 -0.7949  0.5811  1.6979
14843TIP3   OH266019   2.783   0.920   5.672  0.6609 -0.1450  0.2129
14843TIP3    H166020   2.767   0.996   5.616  1.7849  0.2826  0.4368
14843TIP3    H266021   2.838   0.862   5.619 -0.8032 -1.1835 -0.2364
14844TIP3   OH266022   1.997   4.802  12.850 -0.8169 -0.0060  0.3537
14844TIP3    H166023   2.069   4.825  12.791 -2.2939  1.1334 -1.1041
14844TIP3    H266024   1.957   4.887  12.873 -2.9539 -0.6952 -0.5691
14845TIP3   OH266025   3.676   1.562  13.758 -0.2330  0.2387  0.0820
14845TIP3    H166026   3.607   1.624  13.734 -0.7585 -0.2460  0.3099
14845TIP3    H266027   3.751   1.617  13.782 -1.0257  0.8243  1.3221
14846TIP3   OH266028   6.596   5.065   1.796 -0.3102 -0.1793  0.1956
14846TIP3    H166029   6.618   5.155   1.772  0.7269 -0.3250  0.5192
14846TIP3    H266030   6.538   5.074   1.872  0.4215  0.2289  0.7267
14847TIP3   OH266031   2.531   5.804   3.105  0.0202  0.0772  0.1951
14847TIP3    H166032   2.436   5.796   3.115  0.2343 -0.0995  2.8646
14847TIP3    H266033   2.547   5.787   3.012 -2.4550 -0.8039 -0.1477
14848TIP3   OH266034   3.131   4.544  12.967 -0.0212  0.3551 -0.3642
14848TIP3    H166035   3.146   4.590  13.050 -0.5932 -0.9534  0.5005
14848TIP3    H266036   3.204   4.571  12.911  1.2972  0.0111  1.1295
14849TIP3   OH266037   6.680   4.370   5.354 -0.0223 -0.1348 -0.5971
14849TIP3    H166038   6.646   4.427   5.285  0.9083  0.2542 -0.7467
14849TIP3    H266039   6.754   4.324   5.313  0.0920 -0.4250 -0.0720
14850TIP3   OH266040   4.839   2.008   0.655  0.3410 -0.0354  0.1699
14850TIP3    H166041   4.794   2.036   0.735 -0.3198 -0.8203  0.0932
14850TIP3    H266042   4.767   1.987   0.595  0.8167  1.2819 -0.9111
14851TIP3   OH266043   3.823   2.108   1.449  0.4896  0.0496 -0.3481
14851TIP3    H166044   3.737   2.131   1.414  0.4525 -0.4433 -0.5922
14851TIP3    H266045   3.820   2.134   1.541  0.3929  0.8597 -0.5734
14852TIP3   OH266046   4.935   5.136   1.336  0.0846  0.0558 -0.0764
14852TIP3    H166047   4.927   5.062   1.276 -1.2374 -0.8953  1.1979
14852TIP3    H266048   4.944   5.213   1.279  0.0345 -0.9265 -1.4496
14853TIP3   OH266049   2.574   3.310  11.284  0.7033 -0.4378  0.2922
14853TIP3    H166050   2.484   3.306  11.253  0.4491 -0.2675  0.9770
14853TIP3    H266051   2.628   3.300  11.205  0.1009 -1.8396  0.0358
14854TIP3   OH266052   1.241   4.313  14.573 -0.1148 -0.2626 -0.5293
14854TIP3    H166053   1.323   4.343  14.534  1.0917 -0.1956  1.8401
14854TIP3    H266054   1.173   4.364  14.530  1.3483  1.7090 -0.6381
14855TIP3   OH266055   6.367   1.881  11.055 -0.0707  0.0121 -0.3310
14855TIP3    H166056   6.370   1.791  11.023 -1.3641  0.2398 -1.1918
14855TIP3    H266057   6.420   1.931  10.993 -1.3869  0.2166 -1.3362
14856TIP3   OH266058   1.951   2.882   4.202 -0.1206  0.3636  0.2819
14856TIP3    H166059   1.966   2.970   4.237  1.5657  0.5342 -0.7301
14856TIP3    H266060   1.962   2.892   4.107  2.3473 -1.2685  0.2910
14857TIP3   OH266061   5.258   5.935  12.137 -0.4572  0.3099  0.1347
14857TIP3    H166062   5.232   6.027  12.145 -1.4327 -0.0143  0.8703
14857TIP3    H266063   5.224   5.893  12.215 -2.3247 -1.2006 -1.3823
14858TIP3   OH266064   5.446   2.061   1.180  0.2852  0.0024  0.2531
14858TIP3    H166065   5.448   2.155   1.161 -1.7820 -0.0963 -0.7803
14858TIP3    H266066   5.373   2.051   1.241  0.7973 -0.9015  0.7359
14859TIP3   OH266067   5.894   2.433   0.051 -0.3620 -0.2288 -0.3054
14859TIP3    H166068   5.911   2.339   0.051 -0.0752 -0.1776 -0.9601
14859TIP3    H266069   5.973   2.471   0.089  0.2577 -0.1340 -1.6233
14860TIP3   OH266070   6.424   2.506  14.059  0.5660 -0.2103 -0.1660
14860TIP3    H166071   6.329   2.515  14.051  0.2944 -2.4819 -0.2309
14860TIP3    H266072   6.457   2.596  14.063 -1.6685  0.6175  0.9760
14861TIP3   OH266073   1.392   0.817  15.412  0.5383 -0.2330 -0.3860
14861TIP3    H166074   1.352   0.868  15.341 -0.0014 -0.7987 -0.4983
14861TIP3    H266075   1.467   0.870  15.440 -0.8755  1.4118  0.5568
14862TIP3   OH266076   5.802   5.573   6.217  0.4734 -0.1813 -0.0082
14862TIP3    H166077   5.806   5.656   6.170 -0.7951 -0.7856 -1.2260
14862TIP3    H266078   5.713   5.569   6.252  0.5801 -0.9589  0.1960
14863TIP3   OH266079   4.410   6.444  12.062 -0.3863 -0.3589  0.1324
14863TIP3    H166080   4.461   6.435  12.142 -0.6637  0.5326  0.4336
14863TIP3    H266081   4.377   6.356  12.043 -1.8770 -0.2817  2.0675
14864TIP3   OH266082   5.686   3.869   3.367 -0.1194 -0.4418 -0.3081
14864TIP3    H166083   5.691   3.861   3.272  1.3482 -1.3511 -0.1777
14864TIP3    H266084   5.636   3.793   3.396 -1.9064  0.6304 -0.4323
14865TIP3   OH266085   5.638   2.116  15.027 -0.2393 -0.1872 -0.0604
14865TIP3    H166086   5.715   2.132  14.971  1.0919  0.3606  1.8250
14865TIP3    H266087   5.563   2.127  14.968  1.0750  0.6903 -1.6647
14866TIP3   OH266088   0.540   6.397   0.487 -0.4729  0.1680 -0.3431
14866TIP3    H166089   0.549   6.306   0.514  0.1443  0.5769  0.8847
14866TIP3    H266090   0.463   6.428   0.534  0.0019  0.6016  0.1557
14867TIP3   OH266091   0.812   1.879   1.749  0.7116  0.1469  0.7986
14867TIP3    H166092   0.757   1.806   1.720 -0.5512  0.9606  1.0894
14867TIP3    H266093   0.821   1.866   1.844  0.9630  0.0599  0.7638
14868TIP3   OH266094   0.158   1.369   3.074  0.2994  0.5079 -0.2908
14868TIP3    H166095   0.174   1.275   3.077  1.3042  0.6708 -0.3590
14868TIP3    H266096   0.245   1.409   3.071 -0.1176  1.4199 -0.8373
14869TIP3   OH266097   3.698   4.548   4.431 -0.4685  0.5136  0.2060
14869TIP3    H166098   3.665   4.627   4.387 -0.6648  0.1816 -0.2524
14869TIP3    H266099   3.764   4.581   4.492 -1.8423  1.2367  1.3596
14870TIP3   OH266100   4.553   4.075  13.775 -0.0327 -0.2861 -0.7305
14870TIP3    H166101   4.552   4.004  13.839 -0.4398  0.7186  0.4226
14870TIP3    H266102   4.585   4.035  13.695  1.4784 -1.3718  0.3530
14871TIP3   OH266103   0.951   5.482   3.833 -0.3350  0.5307 -0.5404
14871TIP3    H166104   0.890   5.530   3.776 -1.3535  1.9701  1.6044
14871TIP3    H266105   0.894   5.429   3.889  0.6206 -0.6934 -0.6819
14872TIP3   OH266106   6.381   1.766   3.279  0.1311 -0.0666  0.0217
14872TIP3    H166107   6.453   1.826   3.295 -0.0387 -0.0481  0.7820
14872TIP3    H266108   6.423   1.686   3.247  0.5944 -0.3806  1.3320
14873TIP3   OH266109   3.965   0.176   4.683 -0.3011  0.3867 -0.1765
14873TIP3    H166110   3.952   0.141   4.771  0.1310  0.5740 -0.0346
14873TIP3    H266111   3.981   0.270   4.697  3.4218 -0.1048 -0.0931
14874TIP3   OH266112   5.645   0.614  11.940  0.7393  0.6102 -0.3552
14874TIP3    H166113   5.615   0.705  11.937  0.0972  0.4175  0.0946
14874TIP3    H266114   5.701   0.605  11.863 -1.5472  0.5658 -2.1175
14875TIP3   OH266115   2.490   5.095  14.384  0.0882  0.2908 -0.2692
14875TIP3    H166116   2.584   5.089  14.364 -0.0155 -1.1060 -0.3772
14875TIP3    H266117   2.482   5.179  14.430  1.7029 -0.4488  1.4796
14876TIP3   OH266118   6.537   1.213  16.688  0.3173 -0.6146  0.3387
14876TIP3    H166119   6.514   1.137  16.634  0.6276  0.1678 -0.9296
14876TIP3    H266120   6.531   1.181  16.778 -0.2296 -1.9519 -0.1469
14877TIP3   OH266121   2.046   5.982  12.148 -0.1240  0.4413  0.1421
14877TIP3    H166122   2.137   5.959  12.164 -0.6183 -0.5005  1.9020
14877TIP3    H266123   2.022   6.036  12.224 -1.2907 -0.1463  0.2081
14878TIP3   OH266124   6.217   6.573   4.405  0.0926 -0.2624 -0.2943
14878TIP3    H166125   6.161   6.625   4.463  1.1083 -0.7338  1.1673
14878TIP3    H266126   6.294   6.628   4.391 -0.5375  0.2605 -2.0583
14879TIP3   OH266127   2.374   1.411  11.457  0.4050  0.2336  0.1582
14879TIP3    H166128   2.301   1.380  11.511  0.3711 -0.2839 -0.1835
14879TIP3    H266129   2.431   1.456  11.519  0.0187  0.2587  0.5055
14880TIP3   OH266130   4.663   2.861  14.274 -0.2269 -0.3277  0.2518
14880TIP3    H166131   4.745   2.815  14.252  0.2663  0.6480 -0.0224
14880TIP3    H266132   4.594   2.805  14.239  0.4628  0.5634 -2.8620
14881TIP3   OH266133   5.610   6.290  11.613 -0.3640 -0.6728 -0.3122
14881TIP3    H166134   5.527   6.299  11.661  0.7659  0.0999  1.5939
14881TIP3    H266135   5.676   6.275  11.681  1.4696  1.4777 -1.4879
14882TIP3   OH266136   5.446   1.585   1.112 -0.1703 -0.1059  0.1880
14882TIP3    H166137   5.490   1.557   1.032  0.3819  0.1971  0.3844
14882TIP3    H266138   5.489   1.667   1.136 -1.4951  0.7432 -0.1630
14883TIP3   OH266139   3.918   1.563  16.084  0.7056 -0.0520  0.0754
14883TIP3    H166140   3.900   1.471  16.066  0.8078  0.1681 -1.2068
14883TIP3    H266141   3.865   1.583  16.161  0.0998 -0.9827 -0.0863
14884TIP3   OH266142   4.781   1.384   3.079 -0.2931 -0.5777  0.3747
14884TIP3    H166143   4.720   1.449   3.115 -0.0875 -0.0562 -0.2143
14884TIP3    H266144   4.812   1.336   3.156 -0.8795 -0.3628  0.7553
14885TIP3   OH266145   1.849   1.782  14.524  0.5991 -0.2025  0.3756
14885TIP3    H166146   1.848   1.803  14.617  1.6441 -0.7323  0.5097
14885TIP3    H266147   1.856   1.687  14.520  0.0083 -0.2337 -0.2557
14886TIP3   OH266148   3.677   6.564   4.086  0.3481  0.3110 -0.1241
14886TIP3    H166149   3.619   6.571   4.011 -0.5061 -0.7889  0.4061
14886TIP3    H266150   3.619   6.542   4.159  1.5456 -2.0881  0.1893
14887TIP3   OH266151   5.528   1.217  16.797 -0.0340 -0.1219 -0.0219
14887TIP3    H166152   5.603   1.172  16.835  1.0263  0.8310 -0.8935
14887TIP3    H266153   5.511   1.290  16.856  0.9999  0.7942 -0.8020
14888TIP3   OH266154   1.559   2.257  12.553 -0.4580 -0.5335 -0.0639
14888TIP3    H166155   1.525   2.282  12.639  0.3634  0.3815  0.0052
14888TIP3    H266156   1.557   2.161  12.554 -0.5224 -0.5331  0.9457
14889TIP3   OH266157   3.562   5.317  15.299 -0.7272  0.4915 -0.0233
14889TIP3    H166158   3.520   5.279  15.222 -0.2584 -0.2749  0.0985
14889TIP3    H266159   3.556   5.249  15.366  1.7545 -0.1377 -0.3382
14890TIP3   OH266160   5.984   6.438   2.370  0.0999  0.6645 -0.0958
14890TIP3    H166161   5.893   6.463   2.380  0.2164  0.5326  1.5847
14890TIP3    H266162   6.026   6.515   2.330 -0.7048  0.7672 -0.7641
14891TIP3   OH266163   3.468   1.660   4.067 -0.0391  0.3691  0.1872
14891TIP3    H166164   3.524   1.642   3.992 -1.5680 -1.5733 -0.5654
14891TIP3    H266165   3.507   1.610   4.139  0.0622  0.2776  0.0691
14892TIP3   OH266166   5.580   3.156   1.506  0.4760 -0.3483  0.1213
14892TIP3    H166167   5.509   3.159   1.442 -0.7849  2.4087  1.4940
14892TIP3    H266168   5.547   3.100   1.576  0.2961 -0.2726  0.0972
14893TIP3   OH266169   0.382   1.686   6.523 -0.1675  0.1738  0.2528
14893TIP3    H166170   0.292   1.694   6.494 -0.2808  0.4241  0.6572
14893TIP3    H266171   0.431   1.749   6.469 -0.0374 -0.7549 -0.7395
14894TIP3   OH266172   3.257   1.306  12.875  0.1305  0.0137 -0.1625
14894TIP3    H166173   3.295   1.356  12.948 -1.6692  0.5784  0.4551
14894TIP3    H266174   3.256   1.367  12.802  0.7276 -0.1296 -0.2977
14895TIP3   OH266175   6.739   4.552   2.752  0.1497 -0.2763 -0.3229
14895TIP3    H166176   6.816   4.504   2.781  0.9572  1.1711 -0.0135
14895TIP3    H266177   6.755   4.571   2.659 -0.6442 -1.4710 -0.7278
14896TIP3   OH266178   5.258   5.007   0.514 -0.3580  0.0086 -0.6841
14896TIP3    H166179   5.313   4.965   0.448 -1.2333 -1.7936 -0.3560
14896TIP3    H266180   5.304   4.992   0.597 -1.0865 -1.1517 -0.4589
14897TIP3   OH266181   6.097   2.629  16.082 -0.1443  0.4075  0.1673
14897TIP3    H166182   6.055   2.544  16.098  0.6860 -0.3501 -1.3991
14897TIP3    H266183   6.164   2.610  16.015  1.7655  1.8175  1.5686
14898TIP3   OH266184   3.458   5.802   5.965  0.2416  0.6003  0.0874
14898TIP3    H166185   3.441   5.764   5.878 -1.6652  1.4928  0.0094
14898TIP3    H266186   3.538   5.759   5.995  0.6037 -0.1923 -1.8446
14899TIP3   OH266187   3.890   4.059  16.294  0.3576  0.3312 -0.0974
14899TIP3    H166188   3.981   4.081  16.318  0.7278 -2.1571  1.1060
14899TIP3    H266189   3.897   4.021  16.206  0.3259  1.0030 -0.3967
14900TIP3   OH266190   3.251   1.737  16.989 -0.2436  0.4014 -0.5318
14900TIP3    H166191   3.287   1.701  17.069 -0.8689  0.4653 -0.2134
14900TIP3    H266192   3.180   1.677  16.965 -0.3742  0.6430 -0.7658
14901TIP3   OH266193   4.894   0.373   3.095  0.2744  0.0064 -0.0127
14901TIP3    H166194   4.812   0.421   3.086  0.9750  1.3303  0.3450
14901TIP3    H266195   4.924   0.360   3.005 -1.2268 -2.2169 -0.2798
14902TIP3   OH266196   2.415   6.380   0.693 -0.0746 -0.4587  0.0264
14902TIP3    H166197   2.324   6.395   0.668 -0.2938 -1.2953  0.2686
14902TIP3    H266198   2.460   6.361   0.611 -0.0096  0.4298 -0.1514
14903TIP3   OH266199   5.545   3.050   2.030  0.6809 -0.0283 -0.2531
14903TIP3    H166200   5.600   2.971   2.030  3.0792  1.5178  0.8293
14903TIP3    H266201   5.552   3.083   2.120 -1.7034  0.5241 -0.2085
14904TIP3   OH266202   6.579   2.185  12.973 -0.2948  0.0556 -0.0862
14904TIP3    H166203   6.654   2.201  13.031  0.2784  1.6937 -1.1818
14904TIP3    H266204   6.614   2.200  12.885 -1.9273  0.9386 -0.6253
14905TIP3   OH266205   2.367   2.221  11.765  0.3507  0.4672 -0.1748
14905TIP3    H166206   2.346   2.142  11.816  1.5282  0.2625  0.0458
14905TIP3    H266207   2.456   2.204  11.733  0.9562  2.0474  0.5638
14906TIP3   OH266208   2.103   3.245   0.677  0.0282 -0.1536 -0.0107
14906TIP3    H166209   2.158   3.323   0.669  0.0961 -0.3307 -1.5662
14906TIP3    H266210   2.165   3.174   0.692  0.0452 -0.0611  0.3730
14907TIP3   OH266211   2.836   5.903   1.407  0.1732 -0.6373  0.1453
14907TIP3    H166212   2.914   5.925   1.458 -0.3725  3.4138 -0.4473
14907TIP3    H266213   2.861   5.923   1.317 -1.6646  1.4306  0.0240
14908TIP3   OH266214   6.100   6.627  16.858 -0.2486 -0.2785 -0.4374
14908TIP3    H166215   6.032   6.689  16.832 -0.1375 -0.3957 -1.0113
14908TIP3    H266216   6.080   6.607  16.950 -0.8396 -0.1202 -0.5279
14909TIP3   OH266217   2.261   0.717  17.306  0.5237 -0.0669  0.2357
14909TIP3    H166218   2.231   0.652  17.370 -1.0890 -0.3189 -0.7108
14909TIP3    H266219   2.182   0.742  17.259  1.7666 -0.6810 -2.3795
14910TIP3   OH266220   3.484   4.634   6.091  0.5603  0.4796  0.3364
14910TIP3    H166221   3.547   4.698   6.059  1.5383  0.0990  1.4265
14910TIP3    H266222   3.418   4.686   6.137 -1.0608  1.0679 -2.4828
14911TIP3   OH266223   4.117   5.069   2.866  0.1608  0.5023  0.5990
14911TIP3    H166224   4.211   5.084   2.877  0.9722 -2.8985 -0.4307
14911TIP3    H266225   4.089   5.032   2.949  0.4077 -0.9861  0.0536
14912TIP3   OH266226   1.769   1.522   1.341 -0.3781 -0.1974  0.1204
14912TIP3    H166227   1.853   1.497   1.378  0.3435 -0.9317 -1.8998
14912TIP3    H266228   1.737   1.591   1.399  2.0869  0.8211  0.4070
14913TIP3   OH266229   6.685   0.127   3.065  0.7040 -0.8272 -0.4248
14913TIP3    H166230   6.772   0.093   3.089  1.4662  1.5314  0.4980
14913TIP3    H266231   6.681   0.213   3.108 -0.9831  0.3298 -2.6933
14914TIP3   OH266232   0.303   6.507   4.841 -0.7191 -0.4161 -0.2082
14914TIP3    H166233   0.243   6.440   4.810  1.4795 -2.7318  0.2081
14914TIP3    H266234   0.390   6.472   4.821  0.5467  2.4507 -0.1717
14915TIP3   OH266235   2.400   0.012   3.988  0.1345  0.1992 -0.1527
14915TIP3    H166236   2.339   0.065   4.039 -0.8764 -1.1384  0.0823
14915TIP3    H266237   2.404  -0.072   4.035  2.5856  0.4077  0.1460
14916TIP3   OH266238   4.100   1.641  12.562 -0.5799  0.7275 -0.1947
14916TIP3    H166239   4.152   1.584  12.505 -0.2192  0.3153  0.5322
14916TIP3    H266240   4.160   1.666  12.632 -1.4814 -0.1453  0.9314
14917TIP3   OH266241   4.499   4.390   2.369 -0.1999  0.2430  0.7078
14917TIP3    H166242   4.589   4.405   2.396 -0.8808 -0.3614  3.6113
14917TIP3    H266243   4.481   4.459   2.305  1.8690  1.2520  1.1474
14918TIP3   OH266244   4.175   5.725   3.787  0.4664  0.6145  0.9236
14918TIP3    H166245   4.180   5.677   3.869  3.0498 -0.1153  0.4362
14918TIP3    H266246   4.157   5.816   3.813  0.4937  0.2681  2.2282
14919TIP3   OH266247   4.560   6.497  14.909  0.9613 -0.1302 -0.2177
14919TIP3    H166248   4.571   6.489  14.815 -2.1900  0.1324 -0.7266
14919TIP3    H266249   4.480   6.447  14.928  0.0344  1.9585  1.8680
14920TIP3   OH266250   2.564   0.886  11.776 -0.4730  0.6983  0.4597
14920TIP3    H166251   2.640   0.852  11.728 -2.7309 -1.3281 -2.0361
14920TIP3    H266252   2.584   0.978  11.790  1.8750  0.5627 -1.3137
14921TIP3   OH266253   5.952   4.245   4.716  0.1892  0.5220  0.4175
14921TIP3    H166254   5.885   4.178   4.730 -0.4857  1.0080 -0.3888
14921TIP3    H266255   5.957   4.292   4.799  1.0794 -0.8517  1.1905
14922TIP3   OH266256   0.684   4.139  17.149  0.0915 -0.4098  0.0596
14922TIP3    H166257   0.658   4.186  17.070 -0.9332 -0.8022  0.1342
14922TIP3    H266258   0.761   4.185  17.181 -0.4062  0.7232 -0.3066
14923TIP3   OH266259   4.794   2.500  14.935 -0.0866 -0.3677 -0.3946
14923TIP3    H166260   4.845   2.466  14.861  2.1423  1.7468  0.0561
14923TIP3    H266261   4.789   2.426  14.996  0.1506 -1.4168 -1.6088
14924TIP3   OH266262   1.967   6.676   2.977 -0.2604 -0.0387 -0.1579
14924TIP3    H166263   1.983   6.752   3.033  0.4533 -0.3958  0.1439
14924TIP3    H266264   1.887   6.697   2.929 -0.6205  0.4833  0.6469
14925TIP3   OH266265   3.263   5.684   1.070 -0.0261  0.0833 -0.1682
14925TIP3    H166266   3.264   5.600   1.023  1.2189 -0.1920  0.3066
14925TIP3    H266267   3.190   5.732   1.032 -0.6661 -1.1577 -0.5597
14926TIP3   OH266268   4.619   1.581  12.576 -0.0718 -0.5226  0.6255
14926TIP3    H166269   4.659   1.514  12.520 -1.3961 -1.6400  0.9682
14926TIP3    H266270   4.646   1.558  12.665 -4.1093 -3.4925  1.3630
14927TIP3   OH266271   3.423   5.423   1.872  0.4617 -0.6170  0.1749
14927TIP3    H166272   3.503   5.382   1.904  0.6717 -1.5875 -1.4893
14927TIP3    H266273   3.355   5.358   1.887  0.1129 -0.1175  0.8319
14928TIP3   OH266274   2.899   0.350  16.964 -0.3896  0.1876  0.0801
14928TIP3    H166275   2.935   0.400  16.891 -2.0599  2.0245  0.4276
14928TIP3    H266276   2.812   0.386  16.978 -0.7780 -1.2686  1.9037
14929TIP3   OH266277   4.370   4.989  15.522 -0.5065  0.0709 -0.8196
14929TIP3    H166278   4.344   4.962  15.433 -1.8265 -0.8469 -0.1853
14929TIP3    H266279   4.409   4.910  15.560 -1.6048 -0.0753  0.0223
14930TIP3   OH266280   6.461   4.513  10.619 -0.6401  0.1619  0.4630
14930TIP3    H166281   6.417   4.576  10.677 -2.6311 -1.0169  0.3098
14930TIP3    H266282   6.392   4.481  10.561  0.9471  0.0162 -1.4528
14931TIP3   OH266283   3.865   6.389   4.205  0.1765 -0.4180 -0.3531
14931TIP3    H166284   3.839   6.468   4.156  1.4501 -0.4172 -1.0995
14931TIP3    H266285   3.809   6.320   4.170 -1.1433  0.1932  0.5021
14932TIP3   OH266286   3.665   3.036   4.293  0.5644 -0.5471  0.0409
14932TIP3    H166287   3.693   3.059   4.204  0.1418  0.4297  0.1548
14932TIP3    H266288   3.585   2.984   4.280  1.3645 -1.7733 -0.2014
14933TIP3   OH266289   0.411   5.518   4.267 -0.2779 -0.0025  0.2589
14933TIP3    H166290   0.329   5.555   4.234  0.4959  1.5614 -0.0495
14933TIP3    H266291   0.438   5.579   4.336  1.6218  0.7059 -1.0167
14934TIP3   OH266292   3.684   0.576   1.783 -0.0631  0.6848  0.1197
14934TIP3    H166293   3.732   0.626   1.849  1.8825 -0.9215  0.0232
14934TIP3    H266294   3.670   0.490   1.822  0.3192 -0.0044 -1.1706
14935TIP3   OH266295   5.227   2.905  16.853 -0.5516  0.0466 -0.1852
14935TIP3    H166296   5.164   2.846  16.894 -0.1253 -1.0216 -1.0322
14935TIP3    H266297   5.283   2.933  16.925 -1.1029 -0.1313  0.3247
14936TIP3   OH266298   4.141   2.808  13.893  0.1464  0.1828  0.7039
14936TIP3    H166299   4.105   2.725  13.924 -0.9579 -0.1179 -1.1972
14936TIP3    H266300   4.076   2.841  13.832  0.4513  2.6057  1.5854
14937TIP3   OH266301   4.240   4.546  11.793  0.1530 -0.2461  0.2080
14937TIP3    H166302   4.235   4.513  11.883 -0.7886 -0.9818 -0.0894
14937TIP3    H266303   4.196   4.630  11.795 -1.6478 -1.1345  0.0864
14938TIP3   OH266304   4.724   3.546  15.235  0.0738 -0.2597  0.2863
14938TIP3    H166305   4.691   3.633  15.211  2.9068  1.3543  1.7659
14938TIP3    H266306   4.662   3.514  15.300 -2.1477 -0.3532 -1.7184
14939TIP3   OH266307   0.401   6.277  16.627 -0.2089  0.3512  0.1088
14939TIP3    H166308   0.386   6.213  16.697 -0.8623 -0.1908 -0.5246
14939TIP3    H266309   0.315   6.291  16.588  0.2818  0.0729 -1.0919
14940TIP3   OH266310   2.140   4.043  11.352 -0.3628 -0.0910  0.2080
14940TIP3    H166311   2.069   4.088  11.308  0.1846  0.8531  0.2680
14940TIP3    H266312   2.217   4.059  11.297 -0.1799 -1.0798  0.1499
14941TIP3   OH266313   5.723   1.484  16.742  0.5750  0.4669 -0.2905
14941TIP3    H166314   5.761   1.400  16.720  1.1081  0.9780 -1.3557
14941TIP3    H266315   5.689   1.472  16.831  1.4317 -0.5917 -0.0916
14942TIP3   OH266316   4.073   1.651  13.585 -0.3588  0.1798  0.0573
14942TIP3    H166317   4.090   1.742  13.609  0.0897  0.2423 -0.4585
14942TIP3    H266318   4.122   1.639  13.503 -1.6262 -0.0941 -0.6795
14943TIP3   OH266319   0.755   5.117   0.625  0.3126  0.3186  0.0469
14943TIP3    H166320   0.819   5.057   0.663  0.7644  1.1702  0.6936
14943TIP3    H266321   0.697   5.139   0.698  1.1655  1.9516  0.2770
14944TIP3   OH266322   0.568   4.133   4.834  0.4473  0.1561 -0.4294
14944TIP3    H166323   0.640   4.110   4.892 -0.0657  0.7207  0.4482
14944TIP3    H266324   0.500   4.068   4.854 -0.2360  1.1489  0.5925
14945TIP3   OH266325   0.016   5.916   2.132 -0.2577 -0.2618  0.1602
14945TIP3    H166326   0.087   5.978   2.115 -0.0591 -0.6580 -0.5108
14945TIP3    H266327   0.059   5.841   2.173 -0.4912  0.0198  0.9340
14946TIP3   OH266328   3.021   0.345   0.592  0.1284  0.2691 -0.1540
14946TIP3    H166329   3.020   0.353   0.688  1.8224 -1.4132  0.0548
14946TIP3    H266330   3.064   0.425   0.562 -1.0131  1.1281  0.4073
14947TIP3   OH266331   4.075   0.677  12.026 -0.2519  0.7395  0.3757
14947TIP3    H166332   4.070   0.758  11.974 -0.1191 -0.5169 -1.6884
14947TIP3    H266333   4.115   0.613  11.967 -0.7430 -0.9757  1.8220
14948TIP3   OH266334   3.681   5.909   3.026  0.0967  0.0391  0.0880
14948TIP3    H166335   3.720   5.940   2.944  1.2139 -0.6397  0.3399
14948TIP3    H266336   3.667   5.989   3.077 -2.1599  0.6534 -1.3709
14949TIP3   OH266337   1.350   5.736  16.162  0.0405  0.1017  0.0172
14949TIP3    H166338   1.295   5.793  16.108 -0.5238 -1.2806 -0.9064
14949TIP3    H266339   1.432   5.785  16.170 -0.4230  1.0608 -0.7427
14950TIP3   OH266340   6.279   5.092   2.881 -0.0436 -0.8832  0.0946
14950TIP3    H166341   6.326   5.169   2.850  0.9869 -0.6799  2.0241
14950TIP3    H266342   6.346   5.036   2.919 -1.1848 -1.0607  2.0113
14951TIP3   OH266343   5.472   1.960   0.125  0.0189  0.5129  0.8259
14951TIP3    H166344   5.550   2.017   0.117  1.1718 -1.0315  0.6231
14951TIP3    H266345   5.422   1.977   0.045  2.2049 -1.3479 -1.1135
14952TIP3   OH266346   5.673   1.244  17.237  0.2161 -0.0893 -0.1335
14952TIP3    H166347   5.694   1.245  17.331 -0.8020  0.4731  0.1021
14952TIP3    H266348   5.614   1.170  17.226 -0.2893  0.3111 -0.1773
14953TIP3   OH266349   5.750   5.185   0.344  0.5210 -0.2151  0.1392
14953TIP3    H166350   5.815   5.194   0.275 -0.4465 -0.9625 -0.9053
14953TIP3    H266351   5.780   5.110   0.395  1.9264  1.1074  1.3624
14954TIP3   OH266352   4.886   2.826  12.446  0.0625 -0.7654  0.1391
14954TIP3    H166353   4.925   2.904  12.407 -0.4374  0.5313  2.0634
14954TIP3    H266354   4.958   2.782  12.490  0.2330 -1.0681 -0.4357
14955TIP3   OH266355   0.246   6.749  16.741  0.6591 -0.1314 -0.1637
14955TIP3    H166356   0.244   6.839  16.773  0.7129  0.5211 -1.8596
14955TIP3    H266357   0.324   6.711  16.782 -0.3438 -0.0188  1.9889
14956TIP3   OH266358   0.732   5.385  12.392 -0.5212  0.6220  0.2861
14956TIP3    H166359   0.799   5.444  12.426  0.2594  0.2685 -0.5753
14956TIP3    H266360   0.653   5.438  12.388 -0.2328  1.1292  1.0719
14957TIP3   OH266361   2.008   4.279  17.295  0.3592 -0.1796 -0.3551
14957TIP3    H166362   2.025   4.346  17.362  1.2389 -0.2915 -0.4559
14957TIP3    H266363   2.095   4.252  17.266  0.0244 -1.7339  0.0349
14958TIP3   OH266364   1.678   0.626   3.744  0.6249 -0.2834 -0.3337
14958TIP3    H166365   1.697   0.706   3.695 -1.3018 -0.7171 -1.9330
14958TIP3    H266366   1.729   0.634   3.824  0.8164  2.3388 -0.6415
14959TIP3   OH266367   2.866   0.575   5.587 -0.2501 -0.2814  0.4091
14959TIP3    H166368   2.887   0.667   5.572  0.9308 -0.2925  1.8174
14959TIP3    H266369   2.778   0.577   5.625  0.7050  0.5179  2.7560
14960TIP3   OH266370   0.656   2.791   4.180 -0.7193 -0.4454  0.3152
14960TIP3    H166371   0.750   2.782   4.162 -0.4224  0.2721  1.3559
14960TIP3    H266372   0.625   2.853   4.113 -0.2019  0.1875  0.6471
14961TIP3   OH266373   2.003   2.397   3.403 -0.6855  0.2354  0.0154
14961TIP3    H166374   1.997   2.491   3.416  0.6779  0.3358  0.0631
14961TIP3    H266375   2.028   2.362   3.489 -2.6950 -0.3723  0.4106
14962TIP3   OH266376   5.179   1.042  17.187 -0.1541 -0.0645  0.1553
14962TIP3    H166377   5.201   0.952  17.210 -0.2329 -0.3623 -0.9031
14962TIP3    H266378   5.096   1.036  17.140  0.8429  0.3252 -1.7254
14963TIP3   OH266379   3.688   4.025   0.109  0.3015 -0.5179 -0.4475
14963TIP3    H166380   3.619   4.085   0.135  0.1879 -0.8233 -0.0443
14963TIP3    H266381   3.748   4.022   0.184  0.1497 -1.1341 -0.3466
14964TIP3   OH266382   4.231   0.185   0.242 -0.5108  0.3443 -0.6634
14964TIP3    H166383   4.237   0.143   0.328 -2.2763  2.2823  0.5287
14964TIP3    H266384   4.321   0.191   0.212  0.1248 -0.7640  0.8630
14965TIP3   OH266385   4.650   5.559  12.809 -0.2221 -0.1929 -0.3154
14965TIP3    H166386   4.645   5.488  12.872 -0.7254 -0.5122 -0.6986
14965TIP3    H266387   4.721   5.615  12.840 -0.0023 -0.7181  0.1366
14966TIP3   OH266388   6.735   0.533   6.268 -0.2032 -0.5315  0.8713
14966TIP3    H166389   6.767   0.621   6.288 -0.3544 -0.1494 -0.4787
14966TIP3    H266390   6.640   0.543   6.258 -0.1674 -0.7469  0.2571
14967TIP3   OH266391   2.633   4.892   2.332  0.4257 -0.4441  0.1201
14967TIP3    H166392   2.671   4.933   2.410  2.3796  0.3340 -1.1864
14967TIP3    H266393   2.697   4.825   2.307 -1.5565 -2.7461  0.7892
14968TIP3   OH266394   6.470   4.128  15.793 -0.0111  0.0261 -0.4042
14968TIP3    H166395   6.498   4.186  15.864  0.1882  1.3590 -1.5300
14968TIP3    H266396   6.465   4.042  15.834 -0.6685  0.8642  1.4306
14969TIP3   OH266397   4.137   4.050  12.296 -0.3986  0.6224  0.2737
14969TIP3    H166398   4.190   4.122  12.264  0.7548 -1.5213 -3.1962
14969TIP3    H266399   4.173   4.030  12.382  0.5878  2.7956  0.4265
14970TIP3   OH266400   0.579   3.945  11.550  0.0332 -0.4041 -0.2234
14970TIP3    H166401   0.589   3.964  11.644  1.2124 -0.5042 -0.3175
14970TIP3    H266402   0.644   3.878  11.532  0.5226  0.3352 -1.3275
14971TIP3   OH266403   1.345   1.532  13.145  0.4399  0.2588  0.4327
14971TIP3    H166404   1.382   1.462  13.199 -0.4942 -2.1525 -1.8269
14971TIP3    H266405   1.257   1.545  13.178  0.2154 -0.4881  0.1422
14972TIP3   OH266406   6.084   5.601  10.863 -0.4404 -0.4576 -0.4447
14972TIP3    H166407   6.078   5.649  10.946  0.5174 -1.0565 -0.0176
14972TIP3    H266408   5.999   5.556  10.857 -0.7237  0.0041 -0.0552
14973TIP3   OH266409   5.988   2.450   2.927  0.2226  0.3484 -0.3476
14973TIP3    H166410   6.020   2.417   2.843  0.5745 -0.5722  0.1421
14973TIP3    H266411   5.979   2.372   2.982 -1.4228  0.7495  0.0099
14974TIP3   OH266412   2.059   2.241  11.814 -0.0866 -0.1595 -0.0699
14974TIP3    H166413   2.133   2.184  11.834  1.8243  2.4548  0.8511
14974TIP3    H266414   2.018   2.257  11.898 -0.7152 -0.2973 -0.3475
14975TIP3   OH266415   0.252   4.314   5.050  0.5919  0.9942 -0.2940
14975TIP3    H166416   0.187   4.303   5.120  2.2617  1.2718  1.3770
14975TIP3    H266417   0.300   4.393   5.074  0.8004  1.4756 -2.1505
14976TIP3   OH266418   6.172   0.406  13.922  0.5309 -0.1185  0.1270
14976TIP3    H166419   6.091   0.402  13.973  0.2542 -1.6947 -0.3665
14976TIP3    H266420   6.158   0.342  13.852  2.2975 -0.5938  0.1828
14977TIP3   OH266421   0.147   2.229   1.903 -0.1440  0.4053  0.1099
14977TIP3    H166422   0.064   2.243   1.950  0.6263 -1.9262  2.3946
14977TIP3    H266423   0.207   2.292   1.941 -0.3759  0.8357 -0.2251
14978TIP3   OH266424   1.912   3.473   0.242  0.3033  0.3909  0.2848
14978TIP3    H166425   1.939   3.421   0.166 -0.9274  0.2319 -0.0600
14978TIP3    H266426   1.929   3.416   0.317 -0.3902 -0.2604 -0.0387
14979TIP3   OH266427   4.139   5.409   0.200 -0.2477  0.3304 -0.2943
14979TIP3    H166428   4.161   5.489   0.151 -0.0875 -0.1775 -1.0661
14979TIP3    H266429   4.081   5.360   0.141 -0.2048 -0.2083  0.1049
14980TIP3   OH266430   5.455   3.737  12.712 -0.3160  0.2415  0.0643
14980TIP3    H166431   5.514   3.680  12.762 -1.8421 -1.1875  0.3546
14980TIP3    H266432   5.503   3.819  12.703  1.5038 -0.6824  0.6791
14981TIP3   OH266433   2.579   0.706  11.466  0.3039  0.2807 -0.0719
14981TIP3    H166434   2.615   0.633  11.416 -0.5662 -0.5621  0.5041
14981TIP3    H266435   2.652   0.736  11.520  0.3783 -0.9141  0.5261
14982TIP3   OH266436   0.803   5.250   1.077  0.0576 -0.5536 -0.8765
14982TIP3    H166437   0.724   5.239   1.024  0.0510 -0.3414 -0.9083
14982TIP3    H266438   0.826   5.160   1.103 -1.6213 -0.4688  1.2423
14983TIP3   OH266439   3.945   0.097  16.154 -0.8167  0.1144 -0.0672
14983TIP3    H166440   3.994   0.104  16.236  1.0767  0.6963 -1.1956
14983TIP3    H266441   3.938   0.187  16.123  0.4187 -0.2816 -1.6064
14984TIP3   OH266442   0.647   4.418  12.415  0.2636  0.6951 -0.3726
14984TIP3    H166443   0.727   4.366  12.415 -0.3094 -0.2194 -0.8327
14984TIP3    H266444   0.644   4.458  12.328 -0.2232  0.0166 -0.6690
14985TIP3   OH266445   0.066   4.888  15.462 -0.0486 -0.0510 -0.1862
14985TIP3    H166446  -0.007   4.890  15.524  0.3169 -0.9048  0.2902
14985TIP3    H266447   0.025   4.880  15.376 -0.5487  0.8552 -0.0413
14986TIP3   OH266448   5.296   6.192  10.239 -0.0023  0.1643  0.0752
14986TIP3    H166449   5.326   6.278  10.269  0.4614 -0.3164  1.0560
14986TIP3    H266450   5.253   6.154  10.316  0.0511 -0.5866 -0.2565
14987TIP3   OH266451   4.614   0.486  10.736  0.8078 -0.3157 -0.2604
14987TIP3    H166452   4.617   0.494  10.831  0.5896 -0.8384 -0.2064
14987TIP3    H266453   4.689   0.432  10.713  0.8807 -0.1621 -0.3896
14988TIP3   OH266454   2.391   3.655  12.348 -0.3832  0.2489 -0.0836
14988TIP3    H166455   2.399   3.567  12.385  0.3116  0.0653 -0.6520
14988TIP3    H266456   2.377   3.712  12.423 -1.2244 -0.3940  0.2576
14989TIP3   OH266457   4.372   2.539   4.203 -0.5083 -0.4577  0.8742
14989TIP3    H166458   4.372   2.545   4.108 -2.0240  1.1749  0.9071
14989TIP3    H266459   4.407   2.452   4.223  0.5395 -0.5328 -1.1201
14990TIP3   OH266460   4.563   1.764   3.291  0.7126  0.1857  0.4178
14990TIP3    H166461   4.654   1.750   3.265  0.9602  2.8836 -0.4370
14990TIP3    H266462   4.565   1.843   3.345 -1.0989  0.1684  0.5714
14991TIP3   OH266463   4.866   2.658  11.793 -0.2626  0.4645  0.0030
14991TIP3    H166464   4.773   2.642  11.812 -0.2431 -1.0947 -0.9707
14991TIP3    H266465   4.867   2.744  11.750 -1.0580  1.1438  1.2918
14992TIP3   OH266466   2.226   4.227  16.142 -0.1342 -0.0746 -0.4559
14992TIP3    H166467   2.210   4.302  16.199 -1.4535 -1.5434  1.2545
14992TIP3    H266468   2.312   4.243  16.104  0.9933  0.8898  2.2187
14993TIP3   OH266469   0.029   0.139  16.950  0.3856  0.1572  0.1869
14993TIP3    H166470   0.082   0.137  16.870 -0.8595  0.2012 -0.6691
14993TIP3    H266471   0.065   0.069  17.005  1.8792  0.7539  0.0127
14994TIP3   OH266472   0.217   6.274   0.080  0.1003  0.0766 -0.1135
14994TIP3    H166473   0.121   6.271   0.079 -0.0409  1.2920  2.2036
14994TIP3    H266474   0.242   6.215   0.151  0.8580  1.8594  1.1854
14995TIP3   OH266475   1.374   6.466  14.843  0.2077 -0.0881 -0.5989
14995TIP3    H166476   1.438   6.422  14.787  0.7339  0.0324 -0.1030
14995TIP3    H266477   1.427   6.519  14.903 -0.2938 -0.9401  0.6350
14996TIP3   OH266478   6.617   3.428   6.329  0.5534  0.3218 -0.1165
14996TIP3    H166479   6.557   3.496   6.357  0.6614  0.9947 -1.4432
14996TIP3    H266480   6.695   3.475   6.300  0.5566 -0.3449 -1.2390
14997TIP3   OH266481   0.148   0.289   5.001  0.5817 -0.2388 -0.0168
14997TIP3    H166482   0.095   0.338   4.938 -1.8443 -1.8762  0.6505
14997TIP3    H266483   0.123   0.324   5.086  1.0374 -0.6426  0.2889
14998TIP3   OH266484   4.460   6.007  16.967 -0.1743 -0.3211 -0.1620
14998TIP3    H166485   4.406   6.080  16.936 -1.1769 -1.9454 -2.5591
14998TIP3    H266486   4.548   6.029  16.938 -0.0633  0.8680  0.9786
14999TIP3   OH266487   4.910   1.079   1.354 -0.2991  0.1112 -0.2565
14999TIP3    H166488   4.829   1.036   1.326 -1.4999  1.6700  0.6693
14999TIP3    H266489   4.885   1.130   1.431  1.9526 -0.6285  1.0551
15000TIP3   OH266490   3.167   3.418   2.030 -0.0496 -0.1528  0.0330
15000TIP3    H166491   3.227   3.344   2.032 -1.1001 -1.0464 -0.4405
15000TIP3    H266492   3.107   3.398   1.958 -0.9285  0.7002  0.5053
15001TIP3   OH266493   4.322   0.731   5.575  0.5157  0.1711 -0.7599
15001TIP3    H166494   4.316   0.670   5.501  0.6553  0.5501 -1.0845
15001TIP3    H266495   4.382   0.799   5.545  0.1271  0.6250 -0.5073
15002TIP3   OH266496   5.159   0.538  16.262  0.0154  0.1482 -0.2741
15002TIP3    H166497   5.116   0.607  16.211 -0.8143 -1.1485 -1.3809
15002TIP3    H266498   5.250   0.542  16.235  0.3047  1.7992  0.8176
15003TIP3   OH266499   3.954   1.789   6.104  0.1258 -0.2346 -0.1606
15003TIP3    H166500   4.048   1.775   6.099  0.0134 -0.9588 -0.3856
15003TIP3    H266501   3.942   1.882   6.084  1.1054  0.9122  3.7960
15004TIP3   OH266502   4.322   3.711  16.412  0.6298  0.4836 -0.1785
15004TIP3    H166503   4.256   3.687  16.478  0.0106  0.6463 -0.7196
15004TIP3    H266504   4.289   3.673  16.331  2.5194 -1.6536 -0.0189
15005TIP3   OH266505   1.891   5.330  14.947 -0.0390 -0.1856 -0.2882
15005TIP3    H166506   1.866   5.423  14.946 -0.6893 -0.3391  0.3367
15005TIP3    H266507   1.970   5.326  14.893  0.8565  0.9832  0.8439
15006TIP3   OH266508   3.246   4.882  13.793  0.2984 -0.1427 -0.4587
15006TIP3    H166509   3.152   4.870  13.807  0.0700  0.6289 -1.2431
15006TIP3    H266510   3.262   4.974  13.811  1.4642 -0.8168  2.4417
15007TIP3   OH266511   4.660   0.753   1.957 -0.4171 -0.4418 -0.0657
15007TIP3    H166512   4.718   0.677   1.962 -1.5550 -1.2617  1.2772
15007TIP3    H266513   4.594   0.729   1.893  0.4366  0.3283 -1.2827
15008TIP3   OH266514   2.865   5.889  11.877 -0.3117  0.2139 -0.2135
15008TIP3    H166515   2.832   5.968  11.921 -1.3117 -0.2922 -0.0286
15008TIP3    H266516   2.867   5.912  11.784 -2.6397 -0.1961 -0.4227
15009TIP3   OH266517   0.266   0.210   3.006 -0.0271  0.5688  0.0412
15009TIP3    H166518   0.230   0.293   3.035  0.9064 -0.1789  3.9722
15009TIP3    H266519   0.359   0.214   3.029  0.1862 -1.3042 -0.2648
15010TIP3   OH266520   6.448   6.229  10.200  0.3313  0.1164 -0.7240
15010TIP3    H166521   6.541   6.238  10.178  0.5997  0.6083  0.5141
15010TIP3    H266522   6.418   6.318  10.214 -0.5361  0.0130 -1.8401
15011TIP3   OH266523   6.559   0.306   0.015  0.3801 -0.0512  0.2140
15011TIP3    H166524   6.620   0.301  -0.059  0.1800 -1.6554  0.1111
15011TIP3    H266525   6.486   0.360  -0.017  0.3536 -0.6300 -0.7336
15012TIP3   OH266526   3.764   5.431  16.892  0.3529 -0.0636 -0.1486
15012TIP3    H166527   3.850   5.400  16.921 -0.1717 -0.7493  0.7005
15012TIP3    H266528   3.756   5.518  16.932 -1.0491 -1.6243  3.3511
15013TIP3   OH266529   1.778   3.386  16.849  0.4504 -0.4849 -0.1184
15013TIP3    H166530   1.760   3.426  16.934  1.2082  0.3118 -0.3137
15013TIP3    H266531   1.736   3.444  16.785  0.5956 -0.6161 -0.3364
15014TIP3   OH266532   2.860   4.830  13.562 -0.0914  0.2088  0.5223
15014TIP3    H166533   2.907   4.755  13.600 -2.7207 -1.3024  1.0143
15014TIP3    H266534   2.891   4.834  13.472  0.1060 -1.5190  0.4742
15015TIP3   OH266535   2.408   5.446  14.319 -0.0552 -0.1015  0.3982
15015TIP3    H166536   2.386   5.502  14.394 -0.8294  1.9632 -1.2736
15015TIP3    H266537   2.326   5.405  14.294  0.2257 -0.8772  0.6990
15016TIP3   OH266538   6.516   6.189  12.517 -0.2665 -0.2265 -0.1744
15016TIP3    H166539   6.436   6.210  12.468  0.7724  0.4651 -1.6291
15016TIP3    H266540   6.529   6.264  12.574  0.9776  1.1422 -2.1477
15017TIP3   OH266541   1.414   5.606   3.050  0.2318  0.8129 -0.1830
15017TIP3    H166542   1.489   5.553   3.022 -0.9526 -0.3823 -1.2414
15017TIP3    H266543   1.451   5.671   3.109  1.9430 -0.4314  0.1968
15018TIP3   OH266544   2.998   4.252   6.074 -0.1672  0.9917 -0.1799
15018TIP3    H166545   3.026   4.221   6.160  1.2103  0.1575 -0.8833
15018TIP3    H266546   2.972   4.343   6.088  1.8771  1.4817  0.7946
15019TIP3   OH266547   1.594   3.514   2.549  0.1504  0.5286  0.1137
15019TIP3    H166548   1.562   3.604   2.545 -1.3714 -0.0301 -0.9433
15019TIP3    H266549   1.543   3.467   2.484  2.8673 -0.5509 -1.3981
15020TIP3   OH266550   6.547   1.968   6.190 -0.4124 -0.2246 -0.0365
15020TIP3    H166551   6.542   1.924   6.275  1.7822  0.8163  0.7036
15020TIP3    H266552   6.598   2.047   6.206  0.9881 -0.5102 -2.4893
15021TIP3   OH266553   5.133   1.858   0.350  0.6587 -0.2992 -0.0850
15021TIP3    H166554   5.101   1.773   0.381  0.7743 -0.1594  0.4283
15021TIP3    H266555   5.130   1.852   0.255 -0.8894 -0.2880 -0.0566
15022TIP3   OH266556   3.850   1.445  16.498  0.6580 -0.4540 -0.0358
15022TIP3    H166557   3.838   1.418  16.589  1.1896  1.9356  0.7958
15022TIP3    H266558   3.939   1.418  16.477  0.9013 -0.1065  0.5139
15023TIP3   OH266559   3.545   2.833   1.325  0.2438 -0.0052 -0.1543
15023TIP3    H166560   3.497   2.897   1.377  0.4138 -0.6155  0.7609
15023TIP3    H266561   3.513   2.846   1.236 -2.0673 -0.7887  0.5105
15024TIP3   OH266562   3.469   2.421   0.217 -0.4954 -0.5811 -0.0296
15024TIP3    H166563   3.553   2.439   0.259 -0.4205 -0.9185 -0.0350
15024TIP3    H266564   3.482   2.444   0.125 -0.9670  1.1750  0.2954
15025TIP3   OH266565   0.447   6.599  14.364  0.0703 -0.0208  0.1195
15025TIP3    H166566   0.505   6.675  14.373 -1.6722  1.2940  1.1084
15025TIP3    H266567   0.362   6.632  14.393 -1.0942 -1.9563 -0.9594
15026TIP3   OH266568   6.800   6.536   4.980  0.9677  0.1154 -0.7321
15026TIP3    H166569   6.874   6.595   4.995  0.6786  0.1529  0.6175
15026TIP3    H266570   6.784   6.495   5.065 -1.9190  1.6795 -0.3985
15027TIP3   OH266571   3.843   4.751  15.484 -0.3504 -0.0834 -0.3821
15027TIP3    H166572   3.776   4.736  15.551 -0.5569 -1.4836 -0.8667
15027TIP3    H266573   3.922   4.775  15.533 -1.0493  1.0557  0.2231
15028TIP3   OH266574   2.138   1.218   2.410  0.2876  0.2559 -0.4986
15028TIP3    H166575   2.071   1.202   2.476  0.6895 -0.3750 -0.2369
15028TIP3    H266576   2.207   1.266   2.457  0.5954 -0.2366 -0.4331
15029TIP3   OH266577   3.830   4.188  16.586  0.3608  0.3551  0.3399
15029TIP3    H166578   3.816   4.235  16.668  0.6635  0.0271  0.5815
15029TIP3    H266579   3.751   4.206  16.535 -0.8638 -1.2112  1.5623
15030TIP3   OH266580   6.110   1.943  14.506 -0.1878  0.2238 -0.3122
15030TIP3    H166581   6.025   1.906  14.482  0.7294 -0.7667 -2.2720
15030TIP3    H266582   6.100   1.968  14.598 -2.3586 -0.5326 -0.2825
15031TIP3   OH266583   5.930   1.255   0.207 -0.0911 -0.7589  1.2875
15031TIP3    H166584   5.912   1.180   0.264  1.6066 -1.4785  0.9153
15031TIP3    H266585   6.025   1.260   0.202 -0.1866  0.1792 -0.3520
15032TIP3   OH266586   4.669   5.997   4.893  0.1600 -0.1166  0.5590
15032TIP3    H166587   4.727   6.039   4.957  0.0709 -1.8398  1.8309
15032TIP3    H266588   4.697   5.906   4.891 -3.2433 -1.3802  2.2424
15033TIP3   OH266589   0.971   3.966   3.138  0.6143 -0.4717 -0.7670
15033TIP3    H166590   1.041   3.908   3.170  2.0891  0.8545 -1.4727
15033TIP3    H266591   0.936   4.007   3.217  0.1984 -1.5805 -0.3499
15034TIP3   OH266592   6.094   2.121  10.892 -0.3335 -0.5884 -0.0326
15034TIP3    H166593   6.052   2.182  10.831 -1.4298  0.1350  1.3879
15034TIP3    H266594   6.168   2.169  10.928 -3.2363  1.5308  3.8457
15035TIP3   OH266595   0.349   6.067  15.651  0.3167  0.2414 -0.2815
15035TIP3    H166596   0.414   6.065  15.720 -0.2236 -1.5786  0.2423
15035TIP3    H266597   0.265   6.073  15.696 -0.0560 -1.1805 -0.7284
15036TIP3   OH266598   2.111   5.604  17.368 -0.4206  0.3307  0.1276
15036TIP3    H166599   2.205   5.603  17.351 -0.5112 -1.8529 -0.4999
15036TIP3    H266600   2.104   5.598  17.464  0.1433 -2.0088  0.0807
15037TIP3   OH266601   0.461   4.527  14.210  0.5529 -0.6037 -0.4795
15037TIP3    H166602   0.495   4.526  14.120  1.3413  1.6769 -0.2586
15037TIP3    H266603   0.401   4.601  14.212  2.3580  0.9525  1.4246
15038TIP3   OH266604   4.579   6.163   1.186  0.2828 -0.1978  0.1061
15038TIP3    H166605   4.566   6.081   1.139 -0.1799 -1.3727  2.1659
15038TIP3    H266606   4.665   6.154   1.228  0.3170  0.4569  0.1897
15039TIP3   OH266607   0.701   3.247  16.174  0.1317 -0.0808 -0.0096
15039TIP3    H166608   0.787   3.207  16.185  0.9139  1.5781  0.1374
15039TIP3    H266609   0.718   3.333  16.136 -1.4691  0.2762 -0.0223
15040TIP3   OH266610   6.161   4.650  16.399  0.7595 -0.2216 -0.2921
15040TIP3    H166611   6.183   4.637  16.491 -0.6595  1.2163  0.2935
15040TIP3    H266612   6.127   4.564  16.370 -1.0117 -0.1010  1.2255
15041TIP3   OH266613   0.197   3.168  13.635 -0.1023 -0.2532 -0.1584
15041TIP3    H166614   0.117   3.210  13.668 -0.3775 -0.4290 -0.5972
15041TIP3    H266615   0.268   3.222  13.671 -0.3465 -0.9085  1.4009
15042TIP3   OH266616   6.462   1.586   3.502  0.1125 -0.1895  0.0498
15042TIP3    H166617   6.370   1.610   3.512 -0.4545 -1.4717 -1.5716
15042TIP3    H266618   6.465   1.537   3.420  2.3000  0.0247 -0.0563
15043TIP3   OH266619   6.775   2.153   4.801  0.0225  0.2147 -0.2356
15043TIP3    H166620   6.782   2.232   4.854  0.5950  0.1790 -0.2516
15043TIP3    H266621   6.806   2.083   4.859  0.0126  0.0761 -0.3959
15044TIP3   OH266622   2.345   0.531   5.767  0.2077  0.4879  0.1534
15044TIP3    H166623   2.348   0.469   5.839  0.2733 -1.5753 -1.5266
15044TIP3    H266624   2.254   0.560   5.763 -0.1270 -0.5364  0.1634
15045TIP3   OH266625   0.607   0.176  17.256 -0.4193 -0.1678  0.5345
15045TIP3    H166626   0.524   0.196  17.213 -0.3546 -0.3863  0.3034
15045TIP3    H266627   0.587   0.174  17.349 -0.6061  0.1030  0.5009
15046TIP3   OH266628   5.178   1.927  13.528 -0.0113 -0.3615  0.0101
15046TIP3    H166629   5.230   1.948  13.450  0.2493 -0.8004  0.0621
15046TIP3    H266630   5.156   1.834  13.518  1.4081 -0.8824  1.2420
15047TIP3   OH266631   6.185   3.145  14.301  0.1216  0.2461  0.1655
15047TIP3    H166632   6.187   3.059  14.343 -0.2923  0.5318  0.7679
15047TIP3    H266633   6.135   3.200  14.360 -0.5257  0.6350 -0.7289
15048TIP3   OH266634   6.115   1.166  15.488  0.1576  0.0920  0.3234
15048TIP3    H166635   6.112   1.196  15.398  1.1902  0.5501  0.4293
15048TIP3    H266636   6.044   1.213  15.532 -0.7640 -0.6094 -0.3703
15049TIP3   OH266637   3.668   1.851  16.545 -0.4967  0.2459 -0.1037
15049TIP3    H166638   3.748   1.814  16.509 -0.9393  0.9736 -2.0032
15049TIP3    H266639   3.680   1.848  16.640  0.7331 -1.8598 -0.2650
15050TIP3   OH266640   5.605   6.746  11.182 -0.6272  0.6741  0.5328
15050TIP3    H166641   5.602   6.666  11.129 -0.8770 -0.0039  1.5225
15050TIP3    H266642   5.616   6.714  11.272 -2.8888  1.6044  1.2318
15051TIP3   OH266643   4.728   0.499   3.914 -0.0600 -0.4898 -0.3619
15051TIP3    H166644   4.687   0.419   3.948  0.5414  0.0673  1.8610
15051TIP3    H266645   4.654   0.559   3.898 -0.3923 -0.9196 -0.4477
15052TIP3   OH266646   1.893   0.346   5.827 -0.4150 -0.7472 -0.2073
15052TIP3    H166647   1.875   0.306   5.742  1.1932  0.3576 -1.1272
15052TIP3    H266648   1.949   0.282   5.872 -0.0086 -0.6876 -0.6158
15053TIP3   OH266649   1.171   0.094   2.601 -0.2249 -0.2235 -0.3716
15053TIP3    H166650   1.229   0.067   2.530  0.1543  0.0521 -0.1688
15053TIP3    H266651   1.129   0.013   2.629 -0.5187 -0.3095 -1.0324
15054TIP3   OH266652   1.933   4.814  15.292 -0.2383 -0.1321 -0.1953
15054TIP3    H166653   2.013   4.817  15.344 -0.1536 -0.5196 -0.3072
15054TIP3    H266654   1.876   4.880  15.332  0.2921  0.4379 -0.3728
15055TIP3   OH266655   1.130   0.016  17.142  0.0632 -0.6233  0.3699
15055TIP3    H166656   1.156  -0.072  17.113  2.3312 -0.3379  1.2885
15055TIP3    H266657   1.210   0.053  17.179 -1.2013  1.3038  1.3308
15056TIP3   OH266658   0.759   4.894  12.883  0.1872 -0.3714  0.1020
15056TIP3    H166659   0.702   4.925  12.813 -1.0227  1.7042  1.8996
15056TIP3    H266660   0.742   4.799  12.887 -0.9347 -0.2675 -1.3047
15057TIP3   OH266661   4.841   1.685  12.295 -0.3640 -0.9803  0.6598
15057TIP3    H166662   4.864   1.680  12.387  1.7098  2.2133  0.4458
15057TIP3    H266663   4.923   1.671  12.248 -1.2020 -1.6234 -0.6896
15058TIP3   OH266664   1.716   6.559  13.107 -0.5262  0.1643 -0.0407
15058TIP3    H166665   1.763   6.481  13.135  1.3858  0.8375 -1.1378
15058TIP3    H266666   1.653   6.528  13.042  0.5409 -0.4256 -0.8197
15059TIP3   OH266667   2.660   2.269   3.811  0.8997 -0.1904  0.5150
15059TIP3    H166668   2.659   2.364   3.825 -1.6134 -0.2308  1.1760
15059TIP3    H266669   2.670   2.232   3.898  0.4662 -0.5121  0.4323
15060TIP3   OH266670   0.721   1.951  15.121 -0.0726 -0.5928 -0.6220
15060TIP3    H166671   0.645   1.893  15.115  1.0798 -2.0971 -1.7409
15060TIP3    H266672   0.698   2.026  15.066 -1.5267 -0.0374  0.6927
15061TIP3   OH266673   0.169   3.391   5.771  0.0749 -0.6106  0.3301
15061TIP3    H166674   0.076   3.402   5.790 -0.0996  1.5187 -1.4438
15061TIP3    H266675   0.209   3.381   5.857 -1.3403  2.6433  1.5439
15062TIP3   OH266676   4.748   0.281   1.646  0.2401 -0.1442  0.2913
15062TIP3    H166677   4.795   0.217   1.592 -1.9428 -0.1948 -1.7221
15062TIP3    H266678   4.658   0.250   1.647 -0.2344  1.1256  2.1303
15063TIP3   OH266679   2.804   5.325  15.875 -0.7925  0.4860  0.5024
15063TIP3    H166680   2.868   5.393  15.855 -0.1691 -0.2592 -0.1370
15063TIP3    H266681   2.825   5.298  15.964  0.1897 -0.1526  0.0989
15064TIP3   OH266682   2.082   6.016   3.049 -0.4273  0.2882  0.2588
15064TIP3    H166683   2.158   6.021   2.990 -0.3817  0.0023  0.2872
15064TIP3    H266684   2.025   5.951   3.008 -0.3003 -0.0659  0.6323
15065TIP3   OH266685   2.326   3.259  15.230 -0.3514 -0.1905  0.1994
15065TIP3    H166686   2.263   3.196  15.195  0.5893 -1.0019 -0.1104
15065TIP3    H266687   2.304   3.342  15.187 -0.8087 -0.5979 -0.3752
15066TIP3   OH266688   5.797   3.693  17.197  0.0269  0.2984 -0.0430
15066TIP3    H166689   5.768   3.689  17.106  1.0440 -2.9616 -0.3475
15066TIP3    H266690   5.719   3.673  17.249 -0.3787  1.4063 -0.1929
15067TIP3   OH266691   5.889   5.452   2.380  0.0905  0.5787  0.3254
15067TIP3    H166692   5.922   5.382   2.436 -0.0515 -0.6551 -1.0794
15067TIP3    H266693   5.957   5.464   2.314 -0.7325  0.4304 -0.5633
15068TIP3   OH266694   2.193   0.138   4.122 -0.5374  0.3974 -0.1762
15068TIP3    H166695   2.193   0.047   4.150 -1.0339  0.8435  1.4140
15068TIP3    H266696   2.100   0.162   4.121 -0.3369  1.3258  1.0607
15069TIP3   OH266697   6.475   0.591  14.506  0.8738  0.0992  0.2304
15069TIP3    H166698   6.417   0.523  14.471 -0.4362  2.2778 -2.1372
15069TIP3    H266699   6.426   0.628  14.580 -0.2597  1.0664 -0.9561
15070TIP3   OH266700   1.781   2.084  13.887  0.5972  0.3691  0.0856
15070TIP3    H166701   1.856   2.073  13.946  0.1246 -1.9114  0.3424
15070TIP3    H266702   1.820   2.109  13.803  1.7750 -1.5614 -0.0061
15071TIP3   OH266703   2.407   6.462   6.163 -0.2216 -0.5642  0.1811
15071TIP3    H166704   2.447   6.376   6.146  1.1477 -0.4541  2.4042
15071TIP3    H266705   2.454   6.522   6.105  2.4316 -0.5862  2.1016
15072TIP3   OH266706   0.926   6.022  16.496 -0.5183 -0.8336  0.2497
15072TIP3    H166707   0.934   5.934  16.460  0.1032 -1.3740  1.6487
15072TIP3    H266708   0.835   6.027  16.525 -1.1352 -0.2564 -1.6590
15073TIP3   OH266709   4.042   2.853   1.209  0.4501 -0.2884 -0.3655
15073TIP3    H166710   4.134   2.877   1.217  0.5960 -0.7901 -0.4925
15073TIP3    H266711   4.026   2.796   1.284 -0.1052  0.8267  0.3921
15074TIP3   OH266712   6.161   1.041   3.569  0.9588 -0.0999 -0.3336
15074TIP3    H166713   6.098   1.089   3.623 -0.0949 -2.3817  0.5871
15074TIP3    H266714   6.111   0.967   3.536  2.6034 -0.7397 -1.4609
15075TIP3   OH266715   2.882   3.846   0.978  0.3335 -0.3686  0.1257
15075TIP3    H166716   2.915   3.934   0.957 -1.2404  0.5150  1.1495
15075TIP3    H266717   2.788   3.858   0.987  0.1729 -2.0497  0.9594
15076TIP3   OH266718   3.086   3.909  13.323  0.1656  0.1489 -0.2172
15076TIP3    H166719   3.039   3.992  13.314 -1.4364 -0.6230  0.7378
15076TIP3    H266720   3.110   3.885  13.233  0.7319  1.6575 -0.4969
15077TIP3   OH266721   0.889   3.814   5.553 -0.1813  0.3653 -0.0629
15077TIP3    H166722   0.902   3.782   5.463 -0.5206  1.1487 -0.3978
15077TIP3    H266723   0.805   3.776   5.580 -0.0882  0.1452 -0.0767
15078TIP3   OH266724   6.270   1.825  11.559  0.6876 -0.0559 -0.5260
15078TIP3    H166725   6.288   1.885  11.631 -0.2627 -0.1914 -0.1698
15078TIP3    H266726   6.224   1.878  11.494 -1.2306 -0.6204  0.2870
15079TIP3   OH266727   1.028   0.057   0.407  0.7481 -0.0375  0.4314
15079TIP3    H166728   0.936   0.080   0.420  0.4730 -0.3702 -0.8144
15079TIP3    H266729   1.041  -0.022   0.460  0.2682 -0.0924  0.4702
15080TIP3   OH266730   2.061   4.502  15.565 -0.5417 -0.6266  0.6481
15080TIP3    H166731   2.122   4.529  15.633  0.1125  0.9521 -0.5109
15080TIP3    H266732   2.013   4.429  15.604  0.2911 -0.2358  2.5241
15081TIP3   OH266733   3.579   3.714   1.396  0.2129 -0.2427  0.4294
15081TIP3    H166734   3.514   3.731   1.464 -0.6995 -0.0851 -0.4680
15081TIP3    H266735   3.641   3.787   1.404 -0.5246  0.4040  0.3504
15082TIP3   OH266736   1.017   0.579   1.349 -0.1185 -0.1949  0.5962
15082TIP3    H166737   1.010   0.488   1.376 -1.1625  0.6453  3.5509
15082TIP3    H266738   1.065   0.622   1.420  1.4451  1.3715 -1.2993
15083TIP3   OH266739   5.712   3.766   2.170  0.3114 -0.0308 -0.0522
15083TIP3    H166740   5.806   3.784   2.171  0.4443 -0.7096  0.1917
15083TIP3    H266741   5.700   3.710   2.093  0.4857 -1.8596  1.2128
15084TIP3   OH266742   0.316   1.865  15.694 -0.5084 -0.2471 -0.0533
15084TIP3    H166743   0.363   1.876  15.777  0.6140  0.2709 -0.7270
15084TIP3    H266744   0.257   1.791  15.709  1.7868 -2.1188  0.3255
15085TIP3   OH266745   5.190   1.757   5.766 -0.0890 -0.1523  0.0263
15085TIP3    H166746   5.180   1.702   5.844 -2.2961 -0.5049 -0.4239
15085TIP3    H266747   5.213   1.695   5.696 -3.0348 -0.7190 -0.5804
15086TIP3   OH266748   0.897   6.662  11.562 -0.2288 -0.0051 -0.1057
15086TIP3    H166749   0.949   6.624  11.632 -0.3223 -0.3523 -0.2233
15086TIP3    H266750   0.935   6.627  11.482  1.5961  2.4338 -0.4123
15087TIP3   OH266751   0.277   6.263   6.098  0.1695 -0.0648 -0.4395
15087TIP3    H166752   0.253   6.315   6.175 -0.9591 -0.3220 -0.5908
15087TIP3    H266753   0.235   6.178   6.112  0.1885 -0.2131 -1.2041
15088TIP3   OH266754   5.186   6.524   4.654  0.1078 -0.0993  0.4627
15088TIP3    H166755   5.131   6.480   4.719  0.3605  0.2457  0.9170
15088TIP3    H266756   5.187   6.616   4.682 -1.3792  0.4558 -1.1262
15089TIP3   OH266757   2.815   3.434   6.077  0.2980 -0.2916 -0.3776
15089TIP3    H166758   2.814   3.481   5.993 -0.5420 -1.3810 -1.0087
15089TIP3    H266759   2.871   3.358   6.061  1.5569  0.3939  0.5996
15090TIP3   OH266760   1.494   3.322   1.113  0.1894 -0.2128 -0.2476
15090TIP3    H166761   1.399   3.311   1.118  0.1314  0.4026  0.1047
15090TIP3    H266762   1.512   3.400   1.166  0.8241  0.0597 -0.8564
15091TIP3   OH266763   5.791   6.213   0.372 -0.4211  0.6190 -0.4919
15091TIP3    H166764   5.699   6.223   0.396  0.3930  2.7927  2.1971
15091TIP3    H266765   5.836   6.196   0.454  1.6951  0.0514 -1.6743
15092TIP3   OH266766   1.006   3.014  13.014 -0.2499  0.2036 -0.4963
15092TIP3    H166767   1.060   2.957  12.959  0.7871 -0.0990  0.7860
15092TIP3    H266768   0.994   2.965  13.095 -0.3794  1.3060  0.1730
15093TIP3   OH266769   2.733   5.460  17.188 -0.3759 -0.6960  0.1364
15093TIP3    H166770   2.773   5.397  17.128 -0.5288 -0.6058 -0.0654
15093TIP3    H266771   2.699   5.407  17.260 -0.3907 -0.8300  0.0301
15094TIP3   OH266772   6.127   5.679  16.184 -0.0839  0.0811 -0.3567
15094TIP3    H166773   6.216   5.699  16.154  0.1821 -1.1267 -0.4213
15094TIP3    H266774   6.137   5.600  16.238 -0.7491  1.3906  1.7984
15095TIP3   OH266775   5.726   1.605   2.290  0.3903  0.5188 -0.2862
15095TIP3    H166776   5.716   1.621   2.384  0.7130  0.5284 -0.2531
15095TIP3    H266777   5.774   1.522   2.284 -1.8502 -0.8710 -0.4543
15096TIP3   OH266778   1.456   5.383  12.742  0.0563  0.1994 -0.3883
15096TIP3    H166779   1.462   5.338  12.658 -0.1311 -1.0907  0.2503
15096TIP3    H266780   1.370   5.357  12.777  0.7601 -0.5587  0.8681
15097TIP3   OH266781   5.600   5.596  15.430  0.5416  0.2197  0.5154
15097TIP3    H166782   5.562   5.640  15.506  1.1504  1.7817 -0.0327
15097TIP3    H266783   5.524   5.562  15.383  0.0637  0.3724  1.1564
15098TIP3   OH266784   4.552   1.626  15.970 -0.0633  0.0772  0.0549
15098TIP3    H166785   4.617   1.563  16.000 -0.5253 -1.0632 -1.2328
15098TIP3    H266786   4.490   1.634  16.043  0.2740 -0.5732  0.4228
15099TIP3   OH266787   5.243   5.715   5.553  0.4022  0.5877 -0.6805
15099TIP3    H166788   5.314   5.767   5.590 -0.1337  0.8730 -0.0264
15099TIP3    H266789   5.260   5.626   5.582  1.4798  0.3302 -2.0395
15100TIP3   OH266790   2.647   1.052   3.334  0.3369 -0.1237  0.1147
15100TIP3    H166791   2.565   1.035   3.286  0.1146 -0.0476  0.4677
15100TIP3    H266792   2.686   1.126   3.288 -0.4863  0.7528  0.8045
15101TIP3   OH266793   0.586   5.637  17.078  0.4109  0.0043 -0.4539
15101TIP3    H166794   0.552   5.725  17.096 -1.7798 -0.9622  0.5442
15101TIP3    H266795   0.665   5.630  17.132 -0.1517  0.8955  0.5186
15102TIP3   OH266796   3.574   5.945  15.773 -0.3532  0.6583 -0.2464
15102TIP3    H166797   3.567   5.930  15.867  2.2922 -0.1411 -0.1022
15102TIP3    H266798   3.532   6.030  15.759 -2.7540 -0.1596  1.2361
15103TIP3   OH266799   1.640   0.475  13.607 -0.4440  0.0744 -0.4807
15103TIP3    H166800   1.545   0.465  13.598 -0.8043  2.8531 -0.6233
15103TIP3    H266801   1.670   0.492  13.518  0.1107 -0.0760 -0.3227
15104TIP3   OH266802   4.017   2.941  15.405  0.3492  0.1616  0.8089
15104TIP3    H166803   4.097   2.890  15.396  0.8644  1.2154 -0.9001
15104TIP3    H266804   3.961   2.911  15.333 -1.9802 -2.4586  3.4232
15105TIP3   OH266805   3.671   1.981  13.257 -0.0371 -0.7658  0.2065
15105TIP3    H166806   3.685   2.069  13.223 -0.8818  0.1361  2.0623
15105TIP3    H266807   3.757   1.954  13.289  0.3631 -0.8991 -0.9481
15106TIP3   OH266808   5.936   2.507  16.363  0.0505  0.2932 -0.0562
15106TIP3    H166809   5.928   2.423  16.318  0.7974 -0.5338  1.2671
15106TIP3    H266810   5.855   2.553  16.344  0.2105 -0.1395 -1.9526
15107TIP3   OH266811   5.205   6.386  16.823  0.5992 -0.5393  0.9289
15107TIP3    H166812   5.139   6.440  16.780  1.3794 -1.1198 -1.1023
15107TIP3    H266813   5.154   6.322  16.873 -0.4125 -0.9015 -0.4931
15108TIP3   OH266814   1.777   0.245   0.913 -0.2968 -0.3311  0.3154
15108TIP3    H166815   1.853   0.240   0.854 -1.6020 -0.1435 -1.4694
15108TIP3    H266816   1.711   0.188   0.873 -1.9512  1.3901  0.4579
15109TIP3   OH266817   3.802   3.769   0.435  0.3316  0.7463 -0.0028
15109TIP3    H166818   3.868   3.705   0.412 -0.4904 -0.1484  0.0651
15109TIP3    H266819   3.788   3.820   0.355 -0.3435 -0.3879 -0.6431
15110TIP3   OH266820   4.936   6.190   1.511  0.2126  0.0257  0.1563
15110TIP3    H166821   4.884   6.154   1.583 -0.4830 -1.5236 -1.0663
15110TIP3    H266822   5.024   6.157   1.526 -0.1042 -0.9959 -0.1315
15111TIP3   OH266823   5.824   5.328  14.833 -1.0294  0.4035  0.2705
15111TIP3    H166824   5.789   5.270  14.766 -1.1155 -0.5615  1.1296
15111TIP3    H266825   5.887   5.384  14.787  1.7351 -2.6669 -0.0188
15112TIP3   OH266826   0.678   0.274  16.993  0.0852 -0.0096 -0.1403
15112TIP3    H166827   0.655   0.260  17.085  0.6741  0.2971  0.0618
15112TIP3    H266828   0.752   0.216  16.977  0.7143  0.7703 -0.0944
15113TIP3   OH266829   4.451   6.645  12.475  1.0974 -0.5884  0.3998
15113TIP3    H166830   4.506   6.692  12.412  0.4294  0.2310  0.4073
15113TIP3    H266831   4.362   6.655  12.441  0.8750 -1.2972  0.7580
15114TIP3   OH266832   0.882   0.334   1.068 -0.6267  0.4327  0.6371
15114TIP3    H166833   0.906   0.244   1.090 -2.5669  0.2677  2.3533
15114TIP3    H266834   0.886   0.382   1.151 -0.3712  1.7792 -0.1089
15115TIP3   OH266835   3.156   3.451   0.093 -0.1049 -0.5524  0.2348
15115TIP3    H166836   3.192   3.439   0.180 -1.1161 -0.3804  0.6935
15115TIP3    H266837   3.113   3.536   0.096 -0.8066 -0.8761 -0.1892
15116TIP3   OH266838   2.380   1.494   2.204 -0.3810  0.1659 -0.3359
15116TIP3    H166839   2.286   1.477   2.193 -0.1857 -0.5553 -0.9478
15116TIP3    H266840   2.412   1.506   2.114  1.0897 -4.8518 -0.7534
15117TIP3   OH266841   4.989   1.193   1.132 -0.4592 -0.2116 -0.1594
15117TIP3    H166842   4.954   1.135   1.199  0.3606 -0.9038 -0.3093
15117TIP3    H266843   5.080   1.208   1.159 -0.7143  1.1856 -0.0110
15118TIP3   OH266844   0.447   2.785  11.743  0.4123  0.7353 -0.3474
15118TIP3    H166845   0.541   2.794  11.755  0.1497  1.6496  1.3653
15118TIP3    H266846   0.432   2.803  11.650  2.1428 -1.7221 -1.1882
15119TIP3   OH266847   4.435   3.456   1.551 -0.2139  0.4518  0.0460
15119TIP3    H166848   4.499   3.442   1.481 -0.1068  1.1040  0.0066
15119TIP3    H266849   4.413   3.548   1.545 -0.0370  0.5678  1.0092
15120TIP3   OH266850   2.656   5.607   3.427  0.4985 -0.8141 -0.4815
15120TIP3    H166851   2.744   5.574   3.443 -0.0590 -1.6502  1.0964
15120TIP3    H266852   2.669   5.698   3.402  1.9086 -1.4229 -2.1888
15121TIP3   OH266853   3.625   6.040   1.862  0.1389  0.1171  0.1534
15121TIP3    H166854   3.537   6.011   1.841  0.5055 -0.3858 -0.7413
15121TIP3    H266855   3.630   6.129   1.826  0.3443 -0.2598 -0.7636
15122TIP3   OH266856   5.065   3.216  16.539 -0.6180  0.7554  0.0999
15122TIP3    H166857   5.129   3.170  16.484 -1.6956 -0.4961 -0.1485
15122TIP3    H266858   5.118   3.269  16.599  0.6333 -0.0749 -0.2458
15123TIP3   OH266859   3.698   6.781  12.868  0.2440  0.1634  0.3784
15123TIP3    H166860   3.691   6.869  12.906  1.5649 -0.7676  3.0464
15123TIP3    H266861   3.628   6.778  12.803 -0.5472  2.8002  0.9606
15124TIP3   OH266862   2.451   5.179   3.195  0.0135 -0.3518 -0.0511
15124TIP3    H166863   2.376   5.239   3.194 -0.4957 -0.9880 -1.4685
15124TIP3    H266864   2.422   5.106   3.250 -0.3446 -0.5184 -0.4583
15125TIP3   OH266865   2.747   2.381   0.569 -0.1452  0.1749 -0.2204
15125TIP3    H166866   2.795   2.302   0.545 -2.5160 -0.7727 -2.2278
15125TIP3    H266867   2.752   2.437   0.492 -3.2235 -0.5200 -1.0456
15126TIP3   OH266868   1.750   5.016   4.972 -0.5899 -0.1267  0.0075
15126TIP3    H166869   1.703   5.045   5.050 -1.0586 -0.2154 -0.2425
15126TIP3    H266870   1.796   5.094   4.942 -0.6457 -0.0183  0.2012
15127TIP3   OH266871   4.729   5.177   5.066 -0.4267  0.3722 -0.0904
15127TIP3    H166872   4.678   5.125   5.005 -0.2313  0.2796 -0.1760
15127TIP3    H266873   4.724   5.267   5.033 -1.3175  0.5279  0.4238
15128TIP3   OH266874   6.274   3.179  10.568 -0.0545  0.1351 -0.0479
15128TIP3    H166875   6.350   3.234  10.553  0.9899 -1.2626 -0.1263
15128TIP3    H266876   6.216   3.231  10.623  1.2456  0.9855  0.5578
15129TIP3   OH266877   2.174   4.508   0.803  0.0291 -0.1268  0.2004
15129TIP3    H166878   2.236   4.559   0.856 -0.7586  0.9691  0.1134
15129TIP3    H266879   2.225   4.478   0.728  0.4478  0.8371  0.0814
15130TIP3   OH266880   3.439   1.388   0.120  0.4210 -0.4265  0.0578
15130TIP3    H166881   3.454   1.460   0.181  1.3644 -0.7899  0.2826
15130TIP3    H266882   3.345   1.371   0.126  0.3055  0.2994  0.5450
15131TIP3   OH266883   3.509   0.334  11.263 -0.0231 -0.5602 -0.5460
15131TIP3    H166884   3.538   0.424  11.245  0.9644 -0.2438  2.1928
15131TIP3    H266885   3.417   0.332  11.235 -0.2193  1.4830 -0.2041
15132TIP3   OH266886   3.064   2.005  12.446  0.1388  0.0150  0.3916
15132TIP3    H166887   3.036   2.068  12.380  2.3827  1.5725  0.8295
15132TIP3    H266888   3.109   2.057  12.512  3.3238 -2.1325  0.1108
15133TIP3   OH266889   4.735   1.723   4.027 -0.2792 -0.1083 -0.2831
15133TIP3    H166890   4.700   1.782   3.960 -0.2894 -1.4768 -1.5246
15133TIP3    H266891   4.694   1.753   4.108 -0.2510  1.6051 -0.8438
15134TIP3   OH266892   3.402   0.567  16.058 -0.0493  0.1707 -0.1807
15134TIP3    H166893   3.467   0.623  16.101 -0.0366 -0.2321  0.3274
15134TIP3    H266894   3.324   0.575  16.112 -0.4462  0.6806 -0.8099
15135TIP3   OH266895   6.513   0.941  10.891  0.3732 -0.2246 -0.2947
15135TIP3    H166896   6.559   0.941  10.975 -1.2412 -1.7516  0.6389
15135TIP3    H266897   6.582   0.960  10.827  1.7198  0.5746  1.2968
15136TIP3   OH266898   4.946   1.737  15.864 -0.5003 -1.1104 -0.5946
15136TIP3    H166899   5.018   1.681  15.896 -1.2364 -1.5119  0.4169
15136TIP3    H266900   4.946   1.724  15.770  0.2425 -1.7272 -0.5256
15137TIP3   OH266901   3.592   0.545  12.582 -0.1304 -0.4386 -0.2945
15137TIP3    H166902   3.568   0.546  12.489  1.1865  0.6340 -0.6612
15137TIP3    H266903   3.628   0.633  12.598  1.5686 -1.2609  0.6873
15138TIP3   OH266904   2.982   1.292   0.397 -0.4261  0.7117  0.2606
15138TIP3    H166905   2.935   1.296   0.480 -2.0483  3.7100 -0.6455
15138TIP3    H266906   2.928   1.236   0.341  0.2377 -0.6345  0.9279
15139TIP3   OH266907   5.222   1.295   3.131  0.0414 -0.4129 -0.3446
15139TIP3    H166908   5.184   1.364   3.077  1.8935  2.5670  1.8624
15139TIP3    H266909   5.305   1.275   3.089  0.2910 -0.0206 -0.0393
15140TIP3   OH266910   0.204   4.086  15.760  0.1659 -0.2645  0.0837
15140TIP3    H166911   0.120   4.068  15.719  0.0564  0.1725  0.1048
15140TIP3    H266912   0.181   4.129  15.843  0.3964 -0.6552  0.3558
15141TIP3   OH266913   5.612   5.721   3.949 -0.4043 -0.2435 -0.6981
15141TIP3    H166914   5.583   5.812   3.951  0.4420  0.0667 -1.7373
15141TIP3    H266915   5.660   5.710   4.031 -0.4499  0.2726 -0.5969
15142TIP3   OH266916   6.630   6.242  15.539  0.0139 -0.1863 -0.0655
15142TIP3    H166917   6.578   6.223  15.617 -1.5475  1.5684 -0.6086
15142TIP3    H266918   6.685   6.315  15.564  1.9520 -1.7167  0.3471
15143TIP3   OH266919   6.401   2.535   0.005 -0.6179 -0.2602 -0.1202
15143TIP3    H166920   6.364   2.462  -0.044  0.6068  0.6243 -2.5133
15143TIP3    H266921   6.494   2.516   0.011 -0.1640  1.3564 -1.3597
15144TIP3   OH266922   2.977   0.342   5.505 -0.3474 -0.0008  0.0633
15144TIP3    H166923   2.931   0.419   5.541  0.3977  1.0993 -1.2382
15144TIP3    H266924   2.961   0.347   5.411  1.3504 -0.3019 -0.2714
15145TIP3   OH266925   1.180   6.696  12.194 -0.6945  0.4548  0.5763
15145TIP3    H166926   1.206   6.637  12.123 -0.1693 -0.5278  1.5514
15145TIP3    H266927   1.086   6.711  12.180 -0.6805 -0.0584 -0.0874
15146TIP3   OH266928   2.313   0.137  14.328 -0.0268  0.0985 -0.0783
15146TIP3    H166929   2.266   0.059  14.358 -0.2724 -0.1429 -1.0470
15146TIP3    H266930   2.342   0.180  14.408 -0.3066 -0.7340  0.4846
15147TIP3   OH266931   6.732   4.296  14.768 -0.2093  0.0192 -0.1102
15147TIP3    H166932   6.683   4.219  14.795  0.2968 -0.1888  0.2216
15147TIP3    H266933   6.667   4.352  14.726 -0.6979 -0.3189  0.1874
15148TIP3   OH266934   2.700   2.997  13.096  0.2726 -0.1387 -0.3922
15148TIP3    H166935   2.693   3.079  13.046 -1.7474 -1.3787 -2.3114
15148TIP3    H266936   2.675   2.929  13.035  2.4508 -2.3516  0.9814
15149TIP3   OH266937   4.457   4.626   0.863 -0.2179  0.1174 -0.3243
15149TIP3    H166938   4.432   4.682   0.937 -4.1288 -3.2127  1.3271
15149TIP3    H266939   4.417   4.668   0.787  1.7266  2.2970 -0.2512
15150TIP3   OH266940   0.368   3.926   2.059 -0.3129  0.0676  0.4407
15150TIP3    H166941   0.417   3.943   2.139  0.0438  0.6047  0.1189
15150TIP3    H266942   0.294   3.873   2.086  1.5240 -2.5493  0.6513
15151TIP3   OH266943   0.368   0.724  16.350  0.2190  0.0761 -0.8005
15151TIP3    H166944   0.391   0.775  16.272 -3.0573  0.0411 -1.9498
15151TIP3    H266945   0.365   0.633  16.319 -1.0240  0.0516 -0.6398
15152TIP3   OH266946   6.471   1.680   3.956 -0.4010 -0.4702  0.4339
15152TIP3    H166947   6.440   1.609   3.899 -0.2634  0.6467 -1.0799
15152TIP3    H266948   6.509   1.744   3.896  2.3130 -0.4851  1.9838
15153TIP3   OH266949   0.906   2.341   1.634  0.2355  0.4232  0.6989
15153TIP3    H166950   0.871   2.274   1.575  0.5108 -0.1429  1.1843
15153TIP3    H266951   1.000   2.327   1.634  0.1862  0.0028  1.7791
15154TIP3   OH266952   4.401   5.161   0.813  0.3380  0.1582  0.2354
15154TIP3    H166953   4.454   5.201   0.744 -0.6094  0.1245 -0.5410
15154TIP3    H266954   4.375   5.076   0.776 -1.4903  0.7863 -0.0521
15155TIP3   OH266955   6.532   2.819   4.588 -0.0611  0.3607 -0.8488
15155TIP3    H166956   6.542   2.775   4.503  0.2843 -0.8530 -0.2020
15155TIP3    H266957   6.506   2.750   4.648 -0.5805  1.2623 -0.0073
15156TIP3   OH266958   4.573   1.294  13.772 -0.0131  0.7355 -0.1743
15156TIP3    H166959   4.614   1.377  13.749  1.1933 -0.1446 -1.3796
15156TIP3    H266960   4.632   1.227  13.736 -1.4457 -0.6295 -0.1197
15157TIP3   OH266961   0.305   2.415   5.772  0.1594 -0.5232  0.1223
15157TIP3    H166962   0.319   2.361   5.694  3.7759  0.7639 -0.2854
15157TIP3    H266963   0.308   2.352   5.845 -0.4598 -1.3820 -0.5612
15158TIP3   OH266964   5.587   2.140   1.864  0.0330  0.2049 -0.0141
15158TIP3    H166965   5.528   2.150   1.939 -0.9127 -0.6535 -0.6244
15158TIP3    H266966   5.604   2.230   1.834 -0.4485  0.4914  0.5609
15159TIP3   OH266967   5.823   6.797  14.670 -0.0747  0.4587 -0.3850
15159TIP3    H166968   5.897   6.851  14.697  2.0345 -2.0298 -0.7592
15159TIP3    H266969   5.848   6.708  14.695 -2.2539 -0.7049 -1.9620
15160TIP3   OH266970   4.305   6.397   4.699  0.0755  0.3726  0.5050
15160TIP3    H166971   4.246   6.460   4.657  0.1770 -1.0632 -1.9571
15160TIP3    H266972   4.247   6.328   4.731  0.3038 -0.4684 -0.8642
15161TIP3   OH266973   2.536   5.537   3.191 -0.5023  0.6041  0.2402
15161TIP3    H166974   2.520   5.629   3.209  0.1877  0.3998  2.1333
15161TIP3    H266975   2.589   5.507   3.265 -0.0891 -1.1361 -0.7099
15162TIP3   OH266976   2.821   6.426  10.721 -0.3954  0.0682  0.2486
15162TIP3    H166977   2.907   6.465  10.739 -0.3461 -0.1403  0.4741
15162TIP3    H266978   2.782   6.483  10.655 -0.5677  0.8384  0.9862
15163TIP3   OH266979   3.240   0.582   0.516  0.7771 -0.5433  0.0117
15163TIP3    H166980   3.334   0.591   0.504  0.6084  1.2913 -0.2224
15163TIP3    H266981   3.223   0.619   0.602  0.0188  1.4192 -0.9139
15164TIP3   OH266982   4.080   3.312  14.655  0.2511 -0.5957 -0.2839
15164TIP3    H166983   4.147   3.315  14.586 -0.0624  0.0754 -0.5618
15164TIP3    H266984   3.997   3.313  14.607  0.0341 -1.3198  0.0649
15165TIP3   OH266985   5.946   5.108   3.877 -0.1994  0.3250 -0.2033
15165TIP3    H166986   5.870   5.091   3.820 -1.9645  1.6709  1.5872
15165TIP3    H266987   6.021   5.108   3.818 -1.5015 -1.4908 -2.0100
15166TIP3   OH266988   2.445   1.573   3.101  0.0078  0.4066  0.3963
15166TIP3    H166989   2.394   1.495   3.124  1.2588 -1.1961 -1.8852
15166TIP3    H266990   2.536   1.548   3.115  0.4066  1.8345  0.5688
15167TIP3   OH266991   1.791   1.993  12.447  0.1972 -0.2736  0.0261
15167TIP3    H166992   1.754   1.915  12.489 -1.3694  1.0284  1.2140
15167TIP3    H266993   1.881   1.968  12.424 -0.4780 -2.6427 -0.3260
15168TIP3   OH266994   2.858   2.841  13.554 -0.6449 -0.1570  0.7445
15168TIP3    H166995   2.946   2.870  13.533 -0.9594 -0.2492 -0.8298
15168TIP3    H266996   2.801   2.895  13.499 -1.3673 -2.1313 -0.5787
15169TIP3   OH266997   4.525   4.728   4.847  0.0874 -0.3823  0.0609
15169TIP3    H166998   4.536   4.730   4.752  1.8215  1.4334  0.2428
15169TIP3    H266999   4.518   4.634   4.868  1.1762 -0.9070 -1.7094
15170TIP3   OH267000   3.559   2.414   5.164 -0.2425 -0.1368 -0.0744
15170TIP3    H167001   3.597   2.350   5.105  0.8935 -0.2998  0.7867
15170TIP3    H267002   3.524   2.483   5.107 -1.4634 -1.4804 -1.0020
15171TIP3   OH267003   1.688   0.663   2.830  0.8132  0.4365 -0.0721
15171TIP3    H167004   1.605   0.620   2.848  1.6826 -0.9536  0.8225
15171TIP3    H267005   1.716   0.628   2.746  0.2016  1.4200 -0.7063
15172TIP3   OH267006   1.973   0.062  12.651  0.5835  0.1865 -0.9941
15172TIP3    H167007   2.013   0.059  12.738 -2.9516 -0.5587  0.7769
15172TIP3    H267008   1.959   0.156  12.636 -0.0841  0.2521 -0.0658
15173TIP3   OH267009   2.414   4.565  12.521  0.1324  0.6093  0.0806
15173TIP3    H167010   2.492   4.550  12.468  0.1619 -0.7616  0.4744
15173TIP3    H267011   2.443   4.627  12.588  0.7053  0.6146 -0.1644
15174TIP3   OH267012   4.109   3.275   2.946 -0.4403 -0.2748 -0.7314
15174TIP3    H167013   4.070   3.215   2.883 -1.1579 -1.3752  0.6809
15174TIP3    H267014   4.039   3.337   2.967 -1.0744 -1.4491  0.8181
15175TIP3   OH267015   4.581   2.154  16.139 -0.0603 -1.5411 -0.0937
15175TIP3    H167016   4.523   2.202  16.199 -1.3711 -0.2056 -2.2706
15175TIP3    H267017   4.640   2.220  16.105  0.6256 -2.2622 -0.3301
15176TIP3   OH267018   0.371   6.395  17.224  0.2687  0.0365  0.2384
15176TIP3    H167019   0.330   6.349  17.298  0.8572 -1.6748 -0.4693
15176TIP3    H267020   0.434   6.454  17.265 -1.4515  1.2665  1.2397
15177TIP3   OH267021   2.915   3.180   2.043 -0.1220  0.1360  0.1537
15177TIP3    H167022   2.926   3.227   2.126 -0.4082 -1.0003  0.8641
15177TIP3    H267023   2.907   3.248   1.977 -0.6599  1.0815  1.1688
15178TIP3   OH267024   4.939   4.845   3.908 -0.4558 -0.8075  0.3564
15178TIP3    H167025   4.986   4.777   3.956  0.9053 -1.1526 -1.3440
15178TIP3    H267026   4.989   4.855   3.827  0.0001  2.8963  0.9089
15179TIP3   OH267027   1.803   4.105   2.267  0.3704  0.2852  0.0446
15179TIP3    H167028   1.756   4.045   2.209  0.2614  0.4218 -0.0089
15179TIP3    H267029   1.895   4.093   2.245  0.2615  1.2655 -1.0670
15180TIP3   OH267030   6.385   0.013  11.520  0.1974 -0.1686  0.5858
15180TIP3    H167031   6.383   0.081  11.454  1.1080 -0.1609  0.5462
15180TIP3    H267032   6.295   0.005  11.550 -0.1649  0.0644 -0.4053
15181TIP3   OH267033   6.080   1.512  16.011  0.3864 -0.0813 -0.6455
15181TIP3    H167034   6.006   1.453  16.025  1.9266 -2.0998 -0.6354
15181TIP3    H267035   6.094   1.554  16.096  0.4388 -1.1414 -0.1195
15182TIP3   OH267036   1.445   3.261  12.962 -0.6315 -0.0737 -0.1993
15182TIP3    H167037   1.513   3.196  12.944  1.3680  1.8382  0.0146
15182TIP3    H267038   1.391   3.262  12.884  0.9628 -0.0708 -1.3503
15183TIP3   OH267039   4.001   2.973   4.160 -0.4258 -0.5984  0.5000
15183TIP3    H167040   4.068   2.931   4.106  0.7214 -1.5977  2.5830
15183TIP3    H267041   3.931   2.995   4.099  1.0314 -1.1715 -1.4556
15184TIP3   OH267042   1.388   4.525   6.219  0.0268 -0.4633 -0.0350
15184TIP3    H167043   1.393   4.429   6.218 -0.1095 -0.4739  0.1288
15184TIP3    H267044   1.460   4.551   6.277 -0.9886 -0.5563  1.3248
15185TIP3   OH267045   0.893   6.415   5.081  0.5197  0.6097  0.5739
15185TIP3    H167046   0.950   6.369   5.141 -0.6996 -0.3434  1.0559
15185TIP3    H267047   0.893   6.505   5.112 -0.4153  0.0647  2.3229
15186TIP3   OH267048   4.642   3.806  15.149  0.2261 -0.5423  0.5231
15186TIP3    H167049   4.666   3.795  15.057 -0.8721  0.8426  0.0380
15186TIP3    H267050   4.634   3.900  15.161  1.9250 -0.5478  2.4938
15187TIP3   OH267051   2.538   1.456  16.021  0.4865  0.5433 -0.2575
15187TIP3    H167052   2.604   1.458  16.091 -0.3659  1.7687  0.5637
15187TIP3    H267053   2.507   1.547  16.015 -0.5764  0.1447 -1.1501
15188TIP3   OH267054   1.239   0.057   3.820 -0.2885  0.8464  0.3141
15188TIP3    H167055   1.145   0.048   3.834 -0.4740  0.8340 -0.8448
15188TIP3    H267056   1.279   0.014   3.896 -1.2190 -0.0197  0.3277
15189TIP3   OH267057   2.750   0.177   2.833  0.2668 -0.2111 -0.1902
15189TIP3    H167058   2.805   0.125   2.775  1.3138 -0.1668  0.7345
15189TIP3    H267059   2.806   0.250   2.861 -0.0846 -0.4224  1.1439
15190TIP3   OH267060   6.738   4.787  14.439 -0.2179  0.6046  0.0071
15190TIP3    H167061   6.652   4.827  14.452 -0.3838  0.2140  0.1207
15190TIP3    H267062   6.719   4.698  14.410  0.1266  0.0666  1.3470
15191TIP3   OH267063   6.328   1.836  12.195 -0.1128 -0.1003  0.0953
15191TIP3    H167064   6.297   1.859  12.283  0.3068 -1.5410  0.6486
15191TIP3    H267065   6.404   1.892  12.181  0.1439 -0.2322  0.8904
15192TIP3   OH267066   4.146   2.943  16.247  0.1582 -0.1833 -0.2148
15192TIP3    H167067   4.138   3.036  16.224  0.6482 -0.4532 -1.5597
15192TIP3    H267068   4.231   2.937  16.291  1.2553 -0.3647 -2.2652
15193TIP3   OH267069   4.232   2.611  10.797 -0.4776  0.5270 -0.1289
15193TIP3    H167070   4.247   2.658  10.714  1.2633  0.2586  0.0003
15193TIP3    H267071   4.173   2.539  10.773  0.2211  0.2889 -1.2000
15194TIP3   OH267072   0.622   2.719   5.313 -0.1339 -0.1140 -0.0883
15194TIP3    H167073   0.565   2.643   5.303 -0.7376  0.0928  1.5234
15194TIP3    H267074   0.565   2.794   5.296  0.2874  0.0299 -0.9514
15195TIP3   OH267075   4.693   1.658  12.869  0.0815 -0.1124 -0.5614
15195TIP3    H167076   4.607   1.626  12.897  0.1041 -0.7717 -1.2257
15195TIP3    H267077   4.732   1.694  12.949 -0.0809 -1.4331  0.1411
15196TIP3   OH267078   4.396   4.042   5.404 -0.4131  0.4985  0.2782
15196TIP3    H167079   4.446   4.038   5.486 -0.3698 -3.1868  0.2503
15196TIP3    H267080   4.306   4.020   5.430 -0.6088  0.3530 -0.4981
15197TIP3   OH267081   2.311   3.830   5.112 -0.1983 -0.1829  0.4068
15197TIP3    H167082   2.305   3.767   5.184  0.2512 -0.1570  0.4704
15197TIP3    H267083   2.361   3.903   5.149 -0.0010 -0.1519  0.0821
15198TIP3   OH267084   4.199   1.184   0.932 -1.1365 -0.5457  0.1560
15198TIP3    H167085   4.221   1.161   1.023 -1.5948 -1.5769  0.0167
15198TIP3    H267086   4.144   1.262   0.940  3.1030  2.7990  0.4986
15199TIP3   OH267087   0.983   1.757   5.987  0.0300  0.7234  0.2105
15199TIP3    H167088   0.971   1.736   5.894 -0.2143  0.5200  0.2908
15199TIP3    H267089   0.968   1.852   5.991  0.9060  0.8910 -0.1071
15200TIP3   OH267090   3.121   4.052   4.329  0.4533 -0.0117 -0.0109
15200TIP3    H167091   3.076   4.033   4.412 -0.9761 -1.5343 -1.0689
15200TIP3    H267092   3.074   4.129   4.295  0.3071 -0.0633  0.0707
15201TIP3   OH267093   5.620   3.622  11.508  0.1406 -0.0841  0.2167
15201TIP3    H167094   5.555   3.688  11.532 -2.4485 -2.3120 -0.0707
15201TIP3    H267095   5.633   3.571  11.588  2.0951  0.6895  0.4376
15202TIP3   OH267096   0.636   6.269   4.435 -0.2462  0.2542  0.1240
15202TIP3    H167097   0.675   6.190   4.472 -0.4287  0.1253  0.0429
15202TIP3    H267098   0.543   6.261   4.454 -0.6663 -0.8026 -2.1357
15203TIP3   OH267099   2.654   4.260  11.626 -1.1294 -0.1885  0.4515
15203TIP3    H167100   2.617   4.190  11.680 -0.4472 -0.9812 -0.0749
15203TIP3    H267101   2.579   4.295  11.578 -1.5243 -0.3796  0.9130
15204TIP3   OH267102   3.886   3.645   2.013  0.6430 -0.2104 -0.3146
15204TIP3    H167103   3.973   3.683   2.002  0.8088 -0.7968 -1.0789
15204TIP3    H267104   3.834   3.715   2.053  1.4586  0.1484  0.1333
15205TIP3   OH267105   1.399   1.451   4.841 -0.5937  0.3045  0.1035
15205TIP3    H167106   1.453   1.486   4.911 -1.7594  0.6667  0.8568
15205TIP3    H267107   1.309   1.474   4.867 -1.0294  0.7199 -1.6527
15206TIP3   OH267108   5.921   6.519   1.301 -0.4175 -0.6728 -0.3639
15206TIP3    H167109   5.834   6.542   1.335 -0.1876 -0.2475 -0.0557
15206TIP3    H267110   5.905   6.498   1.209 -0.4730  2.2027 -1.1239
15207TIP3   OH267111   5.543   4.945   1.699 -0.1727  0.4926 -0.0536
15207TIP3    H167112   5.612   5.011   1.697  1.8671 -1.3189  2.4768
15207TIP3    H267113   5.517   4.940   1.791 -2.7549  0.1067 -0.7203
15208TIP3   OH267114   0.814   3.857  15.974  0.1066  0.0883 -0.1016
15208TIP3    H167115   0.733   3.829  16.017  1.5763 -2.2950  1.2969
15208TIP3    H267116   0.787   3.880  15.885 -2.2499  0.4333  0.6266
15209TIP3   OH267117   0.227   5.724   2.189  0.1221  0.1559  0.0098
15209TIP3    H167118   0.235   5.683   2.102 -1.9223 -0.6482  0.1486
15209TIP3    H267119   0.316   5.749   2.211  1.1579 -2.2113 -1.0937
15210TIP3   OH267120   0.047   1.832   3.989 -0.0742 -0.1479  1.1381
15210TIP3    H167121  -0.002   1.796   4.063 -0.3462 -0.9636  0.5729
15210TIP3    H267122   0.041   1.765   3.921  0.4658  0.4402  0.4927
15211TIP3   OH267123   6.427   4.685   4.732  0.0853  0.2369 -0.0330
15211TIP3    H167124   6.405   4.671   4.824 -0.4123 -0.3163 -0.2288
15211TIP3    H267125   6.474   4.606   4.706 -1.3808 -0.4466 -0.7328
15212TIP3   OH267126   5.580   2.322  15.959  0.2385 -0.0994 -0.0774
15212TIP3    H167127   5.557   2.398  15.905 -1.7782 -0.2902  0.4345
15212TIP3    H267128   5.646   2.276  15.908 -0.8453  0.2922 -1.9471
15213TIP3   OH267129   2.517   2.977   3.461 -0.1683 -0.1013 -0.2277
15213TIP3    H167130   2.484   3.021   3.382  1.7342 -0.4116 -1.2567
15213TIP3    H267131   2.599   3.022   3.481 -0.7584  0.1398  1.7753
15214TIP3   OH267132   2.782   1.763   2.352 -0.1892  0.1225  0.3498
15214TIP3    H167133   2.753   1.794   2.437 -0.4677 -0.2685  0.4024
15214TIP3    H267134   2.702   1.752   2.301 -0.3004 -2.1404  0.8933
15215TIP3   OH267135   0.592   2.571  11.507  0.4897 -0.1773  0.4363
15215TIP3    H167136   0.679   2.531  11.504  0.4890 -0.2474  1.1658
15215TIP3    H267137   0.601   2.643  11.569 -0.3004 -1.0319  1.6044
15216TIP3   OH267138   4.669   2.354  12.185  0.3695  0.0686  0.3937
15216TIP3    H167139   4.626   2.272  12.162  0.6430  0.0587 -0.0966
15216TIP3    H267140   4.716   2.334  12.266  2.1240 -0.8713 -0.7848
15217TIP3   OH267141   3.524   0.951  14.794 -0.7475  0.0450 -0.6981
15217TIP3    H167142   3.460   0.978  14.728  0.2911  1.5961 -1.1296
15217TIP3    H267143   3.561   1.033  14.826 -0.8729 -0.6968  1.4975
15218TIP3   OH267144   6.074   3.763  13.034 -0.4055 -0.1841  0.3142
15218TIP3    H167145   6.162   3.742  13.002  0.2606  0.4458  1.6148
15218TIP3    H267146   6.044   3.834  12.978  1.7806  2.6794  2.4626
15219TIP3   OH267147   6.386   5.707  12.771  0.2570  0.3739 -0.1309
15219TIP3    H167148   6.423   5.722  12.858  1.4523  0.6880 -0.6713
15219TIP3    H267149   6.293   5.726  12.782  0.5451  1.3594  0.8638
15220TIP3   OH267150   2.227   3.690   2.972 -0.3692 -0.2550 -0.5786
15220TIP3    H167151   2.274   3.630   2.914  1.6472 -1.0193  1.6734
15220TIP3    H267152   2.240   3.654   3.059 -1.1522  2.1667  0.6345
15221TIP3   OH267153   0.767   0.491  11.241  0.3757  0.1737  0.0634
15221TIP3    H167154   0.809   0.413  11.278  1.3628  0.7298  0.1429
15221TIP3    H267155   0.838   0.554  11.230 -0.5073  1.3005  0.5893
15222TIP3   OH267156   1.511   2.132   5.261  0.2597  0.1777  0.3295
15222TIP3    H167157   1.521   2.170   5.349  0.3082  1.1483 -0.0839
15222TIP3    H267158   1.420   2.101   5.259 -0.3433  1.8502  0.0988
15223TIP3   OH267159   6.224   5.029  15.340  0.0984  0.2387 -0.1219
15223TIP3    H167160   6.178   4.962  15.389  1.7198 -1.4277 -0.7391
15223TIP3    H267161   6.253   4.984  15.260 -0.2689  2.1714 -1.4031
15224TIP3   OH267162   5.676   2.551  14.279 -0.6444  0.0771 -0.1778
15224TIP3    H167163   5.714   2.507  14.203 -1.6813 -2.9753  0.9254
15224TIP3    H267164   5.594   2.589  14.247 -0.5929 -0.3276 -0.8033
15225TIP3   OH267165   5.450   2.065   2.324  0.3645  0.0780  0.7010
15225TIP3    H167166   5.390   1.997   2.354 -1.0618  2.0878  2.7542
15225TIP3    H267167   5.537   2.030   2.343 -0.3686 -0.4377  3.6557
15226TIP3   OH267168   2.721   4.889  12.517 -0.1788 -0.2046 -0.1108
15226TIP3    H167169   2.762   4.813  12.558 -1.4532 -0.6044  0.5003
15226TIP3    H267170   2.767   4.901  12.434  1.3512 -0.4166  0.6905
15227TIP3   OH267171   1.521   6.032  15.259  0.4414  0.7225 -0.0479
15227TIP3    H167172   1.478   5.958  15.216  1.7104 -1.3464  2.0150
15227TIP3    H267173   1.545   6.091  15.187  0.9081 -1.6809 -1.9870
15228TIP3   OH267174   6.526   6.332  17.357  0.3959 -0.3966  0.2146
15228TIP3    H167175   6.506   6.413  17.311  0.3245 -0.6016 -0.1175
15228TIP3    H267176   6.614   6.345  17.392  0.3855 -0.1797  0.1565
15229TIP3   OH267177   2.417   5.147  15.853 -0.7245  0.4297  0.1549
15229TIP3    H167178   2.436   5.099  15.934  0.0957  1.3920  0.5461
15229TIP3    H267179   2.321   5.146  15.847 -0.7579 -0.6702  0.4961
15230TIP3   OH267180   3.688   1.448  12.354  0.3091  0.4504  0.4033
15230TIP3    H167181   3.634   1.425  12.278  1.6881 -2.0792  0.0769
15230TIP3    H267182   3.681   1.543  12.361 -2.1245  0.4659 -1.1372
15231TIP3   OH267183   1.621   4.027  16.049  0.5174  0.4323 -0.3863
15231TIP3    H167184   1.566   4.104  16.065  0.9419  1.0285 -1.6960
15231TIP3    H267185   1.703   4.046  16.095  0.7224  0.8958 -0.9349
15232TIP3   OH267186   3.114   5.139   2.822  1.0083  0.2665  0.4883
15232TIP3    H167187   3.141   5.084   2.748  1.4515 -1.3329  1.7697
15232TIP3    H267188   3.020   5.122   2.830  1.2999 -1.0880  1.4364
15233TIP3   OH267189   5.283   1.495   4.509 -0.0133 -0.0112  0.2371
15233TIP3    H167190   5.285   1.436   4.584 -1.1277 -1.5143 -0.8599
15233TIP3    H267191   5.366   1.482   4.465  0.8887  1.2956  1.4635
15234TIP3   OH267192   6.509   0.035  17.304 -0.5062  0.0892 -0.0890
15234TIP3    H167193   6.480   0.114  17.350 -0.5749 -0.0833  0.1678
15234TIP3    H267194   6.520   0.063  17.213  2.8170  1.3051  0.5334
15235TIP3   OH267195   2.838   3.561   5.830 -0.2199  0.3619 -0.0157
15235TIP3    H167196   2.903   3.493   5.813 -0.2674 -0.3507  2.2720
15235TIP3    H267197   2.876   3.641   5.795 -0.4820 -0.8684 -3.4807
15236TIP3   OH267198   3.764   2.292  16.066 -0.2999  0.2671 -0.3226
15236TIP3    H167199   3.838   2.248  16.109  0.0560  0.8144 -0.3555
15236TIP3    H267200   3.688   2.267  16.118 -0.0592 -0.1349 -0.1592
15237TIP3   OH267201   6.091   3.408  14.447  0.1692 -0.4966  0.5206
15237TIP3    H167202   6.011   3.459  14.455  0.5432 -0.0302  1.4460
15237TIP3    H267203   6.093   3.353  14.525  1.4714  0.5824  1.3009
15238TIP3   OH267204   4.575   3.600  13.344 -0.4797  0.7299 -0.0552
15238TIP3    H167205   4.599   3.514  13.308  0.0043 -0.1346  2.1517
15238TIP3    H267206   4.491   3.586  13.387 -0.5236  1.4161  0.0935
15239TIP3   OH267207   2.869   4.619  16.069  0.3208 -0.0291  0.5828
15239TIP3    H167208   2.899   4.656  15.986 -0.9434  0.3897  0.2895
15239TIP3    H267209   2.940   4.637  16.131  0.1414  2.1417  0.2396
15240TIP3   OH267210   1.769   4.459   0.622 -0.3539 -0.1764 -0.6213
15240TIP3    H167211   1.834   4.390   0.610  0.3224  0.6173 -1.7588
15240TIP3    H267212   1.795   4.502   0.704 -0.8357 -1.2920  0.1449
15241TIP3   OH267213   6.027   5.495  17.042  0.0452  0.1675  0.0759
15241TIP3    H167214   6.008   5.562  17.108  1.9609 -0.1505  1.0249
15241TIP3    H267215   5.941   5.467  17.010 -0.8203  3.6358 -0.9958
15242TIP3   OH267216   4.211   5.590  13.101  0.0206 -0.2735 -0.6830
15242TIP3    H167217   4.244   5.578  13.190 -2.4912  2.7581  0.8726
15242TIP3    H267218   4.285   5.629  13.054  0.8192 -0.0912  0.6496
15243TIP3   OH267219   0.375   5.060  11.554 -0.5367  0.3046 -0.3069
15243TIP3    H167220   0.326   5.016  11.624  0.0390  1.3706  0.8272
15243TIP3    H267221   0.465   5.029  11.564 -0.1240  1.6705  0.5115
15244TIP3   OH267222   5.066   5.294  12.981 -0.1928 -0.2376  0.1413
15244TIP3    H167223   5.110   5.216  12.947  0.8740  0.8747 -1.1162
15244TIP3    H267224   4.976   5.285  12.952 -0.3906 -1.5805  1.0628
15245TIP3   OH267225   4.523   5.552   1.160  0.0122 -0.0705 -0.4694
15245TIP3    H167226   4.561   5.573   1.075  1.4394  1.8397  0.5734
15245TIP3    H267227   4.597   5.550   1.221 -1.3278  3.2901  1.5580
15246TIP3   OH267228   3.038   0.975  16.351 -0.3195  0.2109  0.7203
15246TIP3    H167229   3.060   0.883  16.358 -1.4821 -0.1194  0.2412
15246TIP3    H267230   2.984   0.993  16.428 -1.5874  0.0192 -0.0898
15247TIP3   OH267231   0.723   3.839  12.111  0.2276  0.3323 -0.2836
15247TIP3    H167232   0.810   3.875  12.098 -0.1960  1.3339 -0.4578
15247TIP3    H267233   0.706   3.788  12.032  1.3616 -1.4061  0.5482
15248TIP3   OH267234   1.800   1.594  11.307  0.1619  0.2378  0.0531
15248TIP3    H167235   1.754   1.639  11.236  1.0523  2.8767  1.0302
15248TIP3    H267236   1.848   1.524  11.263 -0.0227  1.2295 -1.8548
15249TIP3   OH267237   3.363   3.904   4.595 -0.3588  0.5162  0.2146
15249TIP3    H167238   3.303   3.978   4.609 -0.1526  0.5682  0.8535
15249TIP3    H267239   3.424   3.909   4.668 -0.8340 -0.7764  0.7189
15250TIP3   OH267240   5.174   3.422  15.747  0.2049  0.1523 -0.6255
15250TIP3    H167241   5.250   3.470  15.714 -0.1489  0.6884 -0.6859
15250TIP3    H267242   5.195   3.406  15.839  1.1598 -1.2846 -1.0602
15251TIP3   OH267243   2.240   5.086  15.496  0.4774  0.8861  0.1310
15251TIP3    H167244   2.216   5.048  15.411 -0.1433  1.3882  0.0781
15251TIP3    H267245   2.323   5.043  15.519 -0.0906 -0.3377 -0.0357
15252TIP3   OH267246   3.021   4.958  16.540 -0.1945  0.2645 -0.1212
15252TIP3    H167247   2.945   4.921  16.496  1.7557 -1.7224 -2.1338
15252TIP3    H267248   3.055   4.886  16.594  0.9195  0.7181 -0.1954
15253TIP3   OH267249   2.424   3.811   5.560 -0.5028 -0.1777  0.2375
15253TIP3    H167250   2.506   3.766   5.577 -0.5697 -1.6866 -2.8923
15253TIP3    H267251   2.439   3.862   5.481 -2.0407  1.0446  0.6782
15254TIP3   OH267252   0.058   0.503  12.039  0.1429  0.8063 -0.1550
15254TIP3    H167253   0.112   0.467  11.968 -0.0006  0.6844 -0.2028
15254TIP3    H267254  -0.015   0.546  11.994 -1.0139 -0.9224 -0.0605
15255TIP3   OH267255   0.953   0.944   0.977 -0.1311 -0.3822 -0.1304
15255TIP3    H167256   0.919   0.897   0.901  0.2372  0.7417 -1.0231
15255TIP3    H267257   1.048   0.946   0.964 -0.0723 -0.1245  0.3217
15256TIP3   OH267258   4.729   0.433  10.999 -0.1965 -0.0882 -0.4062
15256TIP3    H167259   4.668   0.471  11.062 -1.1162 -1.8502 -0.1810
15256TIP3    H267260   4.814   0.469  11.023 -0.2803 -1.6625  2.7121
15257TIP3   OH267261   1.364   1.478  11.859  0.1225  0.2602 -0.0991
15257TIP3    H167262   1.365   1.383  11.854  3.1021  0.1865  0.2322
15257TIP3    H267263   1.330   1.498  11.946 -0.1661 -0.4945 -0.0364
15258TIP3   OH267264   3.633   2.866   4.691  0.0762  0.2633 -0.3017
15258TIP3    H167265   3.638   2.788   4.637 -0.9072  0.2842 -0.4446
15258TIP3    H267266   3.539   2.888   4.692  0.2282  0.9031  0.4871
15259TIP3   OH267267   2.025   5.517  14.628  0.1285  0.1189  0.1071
15259TIP3    H167268   2.067   5.465  14.697  0.6372 -0.1213 -0.3749
15259TIP3    H267269   1.935   5.486  14.627  0.2566 -0.2796  0.2860
15260TIP3   OH267270   1.933   4.408  12.892 -0.5744 -0.2299  0.5487
15260TIP3    H167271   2.004   4.364  12.846 -0.5822  0.3016  0.0274
15260TIP3    H267272   1.874   4.337  12.918  0.4625 -0.7578  1.5830
15261TIP3   OH267273   2.022   2.538  17.317 -0.1009 -0.1219  0.4101
15261TIP3    H167274   2.071   2.473  17.368 -1.1982 -0.7447  0.7101
15261TIP3    H267275   1.943   2.492  17.290  0.3702  0.2375 -1.7544
15262TIP3   OH267276   6.507   2.228   2.593  0.0633  0.4019 -0.2889
15262TIP3    H167277   6.508   2.132   2.589  2.7310  0.3439 -0.1200
15262TIP3    H267278   6.496   2.256   2.503 -1.8432 -0.0019 -0.2236
15263TIP3   OH267279   3.881   1.667  13.378 -0.2103 -0.0739 -0.3472
15263TIP3    H167280   3.908   1.647  13.467  2.0658  0.7224 -0.8101
15263TIP3    H267281   3.926   1.749  13.356 -0.6973 -0.2622 -2.2462
15264TIP3   OH267282   3.558   2.440   2.386 -0.7922  0.4215  0.3954
15264TIP3    H167283   3.584   2.474   2.300 -0.4283 -0.3239  0.1998
15264TIP3    H267284   3.624   2.473   2.446 -1.1945  1.1637  0.4413
15265TIP3   OH267285   0.442   2.705   3.997 -0.0214  0.4599  0.5862
15265TIP3    H167286   0.508   2.702   4.066  2.2684  1.6300 -1.3879
15265TIP3    H267287   0.489   2.738   3.920 -2.3861 -0.8214 -1.5831
15266TIP3   OH267288   2.833   2.685  15.953 -0.3846 -0.3069 -0.2696
15266TIP3    H167289   2.842   2.775  15.986  1.3221 -0.3120 -0.6249
15266TIP3    H267290   2.757   2.688  15.896 -0.2956  0.9539 -0.3472
15267TIP3   OH267291   5.351   2.381   6.240 -0.1556 -0.4421  0.2281
15267TIP3    H167292   5.367   2.300   6.289 -2.1862 -1.2490 -0.3544
15267TIP3    H267293   5.293   2.432   6.297 -0.4845 -0.2776 -0.2455
15268TIP3   OH267294   3.512   2.168  11.003 -0.5794 -0.0262 -0.6185
15268TIP3    H167295   3.550   2.085  11.031 -0.3856  0.6706  1.3102
15268TIP3    H267296   3.417   2.154  11.009 -0.6126 -0.7870 -2.4640
15269TIP3   OH267297   1.118   5.067  14.726  0.0155 -0.1065 -0.1797
15269TIP3    H167298   1.065   4.993  14.757  0.3849 -1.5855 -2.7610
15269TIP3    H267299   1.205   5.049  14.760 -0.1557 -0.1898  0.2230
15270TIP3   OH267300   6.520   4.015  16.214 -0.1293  0.0844  0.2026
15270TIP3    H167301   6.612   4.043  16.212 -0.1008  0.1848  1.7213
15270TIP3    H267302   6.509   3.978  16.302 -1.6845  0.5395  0.2147
15271TIP3   OH267303   4.405   5.162  16.685 -0.8381 -0.0372 -0.6936
15271TIP3    H167304   4.404   5.229  16.616  0.7923 -0.8258 -1.5344
15271TIP3    H267305   4.495   5.129  16.685 -1.2313 -1.2014  0.7212
15272TIP3   OH267306   2.441   4.787  13.965  0.2703 -0.2848  0.0968
15272TIP3    H167307   2.514   4.817  13.911 -1.1768  3.2073 -0.2146
15272TIP3    H267308   2.384   4.739  13.905  0.5304  0.2145 -0.5625
15273TIP3   OH267309   2.068   4.735  12.025  0.0274 -0.3284  0.1301
15273TIP3    H167310   2.084   4.782  11.943 -0.2101 -1.5999 -0.6667
15273TIP3    H267311   2.149   4.687  12.041  1.3986  2.4376  2.4671
15274TIP3   OH267312   0.702   3.151   2.173  0.1197  0.7245 -0.1747
15274TIP3    H167313   0.656   3.226   2.133  0.2961  0.4691 -0.8725
15274TIP3    H267314   0.635   3.083   2.180  0.0399  0.8328  0.1624
15275TIP3   OH267315   5.395   4.415  15.405 -0.0388  0.8304 -0.0714
15275TIP3    H167316   5.359   4.455  15.485 -0.3808 -0.0376  0.2282
15275TIP3    H267317   5.399   4.322  15.426 -1.7497  0.3411 -1.6653
15276TIP3   OH267318   0.685   2.565  14.795  0.0420  0.0513  0.0999
15276TIP3    H167319   0.607   2.541  14.844  0.7371 -1.0862  0.7124
15276TIP3    H267320   0.654   2.623  14.726 -1.2451  0.0807  0.6722
15277TIP3   OH267321   6.108   0.661  17.211  0.0504 -0.3522  0.0323
15277TIP3    H167322   6.131   0.608  17.287  0.3504 -0.4048 -0.0928
15277TIP3    H267323   6.114   0.752  17.242  2.4945 -0.2497 -0.5131
15278TIP3   OH267324   3.975   4.067   1.651 -0.6781  1.0065 -0.3103
15278TIP3    H167325   4.032   4.037   1.580  0.1777  0.4788  0.5752
15278TIP3    H267326   4.010   4.152   1.676 -1.0968  1.2790 -0.6389
15279TIP3   OH267327   4.501   1.813   2.521 -0.5109  0.3377 -0.4821
15279TIP3    H167328   4.525   1.721   2.529 -1.0639  0.1656 -0.7760
15279TIP3    H267329   4.418   1.813   2.474 -1.1290  0.9188  0.5738
15280TIP3   OH267330   6.197   0.604  10.444  0.2963  0.2143  0.5470
15280TIP3    H167331   6.225   0.519  10.409 -2.5229 -1.5542  2.1790
15280TIP3    H267332   6.273   0.662  10.431  1.4908 -1.8539 -2.7945
15281TIP3   OH267333   5.448   2.173  14.257  0.3398 -0.3445  0.1877
15281TIP3    H167334   5.519   2.147  14.198  0.0292 -1.9360  0.4636
15281TIP3    H267335   5.488   2.236  14.317  0.7916  0.8760 -1.3633
15282TIP3   OH267336   5.082   4.779  14.734  0.0764  0.6883  0.2554
15282TIP3    H167337   5.075   4.785  14.829 -0.1085 -0.4047  0.3231
15282TIP3    H267338   5.015   4.838  14.701 -0.9542 -0.1392  0.8234
15283TIP3   OH267339   1.558   4.022  14.071  0.3985 -0.1453  0.1695
15283TIP3    H167340   1.613   3.968  14.128  0.0513 -1.1146 -0.3902
15283TIP3    H267341   1.618   4.085  14.031  0.5092  1.1830  2.2792
15284TIP3   OH267342   5.383   2.276  16.153  0.3770 -0.0745  0.2645
15284TIP3    H167343   5.462   2.300  16.106  0.8260 -1.3552  0.3277
15284TIP3    H267344   5.344   2.207  16.100 -0.6022  0.3972  0.3432
15285TIP3   OH267345   5.229   4.920   4.930 -0.4417 -0.5241 -0.3760
15285TIP3    H167346   5.198   4.994   4.982  2.7072  0.0949  0.8664
15285TIP3    H267347   5.187   4.844   4.969  1.6765 -0.0656  3.1982
15286TIP3   OH267348   1.204   0.515  13.309  0.1980 -0.2871  1.0899
15286TIP3    H167349   1.137   0.448  13.297  2.1625 -2.6200  2.4010
15286TIP3    H267350   1.216   0.553  13.222 -1.0741 -1.5460  0.3278
15287TIP3   OH267351   6.347   6.468   2.557 -0.3748 -0.1144  0.3992
15287TIP3    H167352   6.349   6.463   2.652 -0.8469  0.6599  0.4649
15287TIP3    H267353   6.335   6.562   2.538  3.1880  0.3413 -0.4829
15288TIP3   OH267354   0.978   0.985  16.300  0.1861 -0.0270 -0.0452
15288TIP3    H167355   0.999   0.906  16.251 -0.3602 -0.1634 -0.0657
15288TIP3    H267356   0.905   1.024  16.252  0.4474  0.4857 -0.0331
15289TIP3   OH267357   2.071   2.756   1.330  0.1437 -0.2668 -0.1269
15289TIP3    H167358   2.082   2.727   1.420 -0.1550 -2.0203 -0.6134
15289TIP3    H267359   1.980   2.787   1.326  0.4203  0.6682  0.3585
15290TIP3   OH267360   3.068   2.678   5.123 -0.3883  0.4974 -0.3687
15290TIP3    H167361   3.077   2.771   5.099 -0.0972  0.6414  0.2556
15290TIP3    H267362   3.075   2.678   5.219 -1.4665 -0.0522 -0.2769
15291TIP3   OH267363   1.552   3.160   0.655  0.4774 -1.0227  0.2372
15291TIP3    H167364   1.621   3.192   0.598 -0.0390 -0.0408  0.1386
15291TIP3    H267365   1.478   3.141   0.596  0.7974 -2.5417  0.2773
15292TIP3   OH267366   5.116   2.205  11.362  0.0900  0.5898 -0.6155
15292TIP3    H167367   5.053   2.233  11.296 -0.2355  3.2318  0.6960
15292TIP3    H267368   5.073   2.222  11.446  1.0943 -1.2051  0.3242
15293TIP3   OH267369   0.564   6.521   4.597  0.1190  0.4231 -0.5805
15293TIP3    H167370   0.565   6.442   4.651 -0.5810  0.9618  0.2228
15293TIP3    H267371   0.605   6.493   4.515 -0.1959 -0.7993 -0.3437
15294TIP3   OH267372   5.149   6.511   0.189 -0.2404 -0.4030 -0.3748
15294TIP3    H167373   5.197   6.442   0.235 -1.4747  0.3566  2.2652
15294TIP3    H267374   5.107   6.561   0.259 -0.7122  2.0570 -2.2787
15295TIP3   OH267375   4.429   1.479  15.174  0.0779 -0.3664 -0.0221
15295TIP3    H167376   4.336   1.496  15.189 -0.2524  0.3281 -2.5201
15295TIP3    H267377   4.473   1.522  15.248 -1.4559  1.1689  0.0652
15296TIP3   OH267378   1.510   0.209   3.486  0.1628 -0.0380  0.0357
15296TIP3    H167379   1.548   0.154   3.418  2.2092  0.4023  0.7396
15296TIP3    H267380   1.584   0.262   3.518 -1.3393  1.8292  0.6035
15297TIP3   OH267381   6.614   5.023  13.099  0.5130 -1.0272  0.0790
15297TIP3    H167382   6.693   5.066  13.067  0.3024 -0.6342  0.0721
15297TIP3    H267383   6.629   5.013  13.193 -0.5105  1.5243  0.5962
15298TIP3   OH267384   1.885   0.814   5.543  0.3254 -0.2110 -0.4173
15298TIP3    H167385   1.836   0.757   5.602  2.3769 -1.5012  0.1017
15298TIP3    H267386   1.841   0.899   5.550  0.3701 -0.3483  2.8388
15299TIP3   OH267387   0.985   0.952  15.056  0.2793 -0.6033 -0.0770
15299TIP3    H167388   0.982   0.964  15.151  1.9640 -1.1251  0.0844
15299TIP3    H267389   0.895   0.932  15.031 -0.1763 -0.5269  1.4105
15300TIP3   OH267390   4.722   1.931   1.656 -0.1356 -0.7574  0.1112
15300TIP3    H167391   4.692   1.870   1.723  2.2485 -1.3387  0.7421
15300TIP3    H267392   4.693   2.017   1.687 -0.2421 -1.1699  1.2023
15301TIP3   OH267393   3.494   5.691   0.589  0.1156 -0.0122 -0.0363
15301TIP3    H167394   3.563   5.727   0.533 -1.1733  1.1190 -0.9809
15301TIP3    H267395   3.540   5.659   0.666  1.8600 -0.7859 -1.3241
15302TIP3   OH267396   2.287   0.941  11.716  0.3281  0.0593  0.1054
15302TIP3    H167397   2.295   1.013  11.653 -1.1541 -1.7848 -2.3553
15302TIP3    H267398   2.360   0.883  11.694  1.0188  0.3498  1.5299
15303TIP3   OH267399   4.078   4.969   5.777 -0.2382 -0.4698 -0.2365
15303TIP3    H167400   4.117   4.983   5.691 -2.0434  0.4111 -0.9569
15303TIP3    H267401   4.144   5.000   5.839  1.6485 -2.3723 -1.1741
15304TIP3   OH267402   4.896   1.240   2.523 -0.1881  0.1271  0.2164
15304TIP3    H167403   4.824   1.182   2.549 -1.8676  2.1852  0.3765
15304TIP3    H267404   4.853   1.318   2.489  1.9695  1.8996  1.3220
15305TIP3   OH267405   2.378   6.641  12.982  0.2999 -0.7669 -0.3150
15305TIP3    H167406   2.402   6.734  12.986  0.9247 -0.9546  0.9468
15305TIP3    H267407   2.413   6.611  12.898  1.1059 -0.1115 -0.2291
15306TIP3   OH267408   2.993   1.730   5.172 -0.4249  0.3432  0.2275
15306TIP3    H167409   3.031   1.773   5.096 -0.4497  0.6115  0.3663
15306TIP3    H267410   2.926   1.791   5.204 -1.4264 -0.4087 -0.3973
15307TIP3   OH267411   0.395   0.899   0.688  0.0023  0.2310 -0.1457
15307TIP3    H167412   0.357   0.829   0.742 -0.4091  2.6213  2.9433
15307TIP3    H267413   0.462   0.938   0.744  1.5445  1.1530 -2.5116
15308TIP3   OH267414   4.292   6.656  17.003 -0.4672 -0.3949 -0.8973
15308TIP3    H167415   4.286   6.748  17.026  0.6665 -0.5137 -0.0809
15308TIP3    H267416   4.347   6.654  16.924  0.0903 -0.4190 -0.5135
15309TIP3   OH267417   4.218   0.016  13.328  0.0452 -0.5068  0.2352
15309TIP3    H167418   4.164   0.031  13.250  1.2054 -1.6921 -0.8394
15309TIP3    H267419   4.217  -0.079  13.339 -0.9504 -0.3127  2.3325
15310TIP3   OH267420   2.825   5.114   0.625  0.1508  0.2175  0.5920
15310TIP3    H167421   2.845   5.194   0.675 -1.6943  0.8098  0.4355
15310TIP3    H267422   2.733   5.095   0.645  0.1467 -1.0715 -0.5055
15311TIP3   OH267423   5.420   2.561  14.559 -0.4644 -0.2283 -0.5844
15311TIP3    H167424   5.346   2.552  14.499 -0.9707  0.3244 -0.0597
15311TIP3    H267425   5.469   2.636  14.524 -1.5170  0.9864  0.4383
15312TIP3   OH267426   1.237   0.115   1.266  0.4792  0.1522 -0.0656
15312TIP3    H167427   1.327   0.125   1.234 -0.3490  3.0287 -1.9022
15312TIP3    H267428   1.230   0.177   1.338 -0.2979  0.7355 -0.6262
15313TIP3   OH267429   0.287   4.100  12.380 -0.3841 -0.2384 -0.6793
15313TIP3    H167430   0.350   4.115  12.451 -0.0381 -0.0347 -1.0272
15313TIP3    H267431   0.242   4.019  12.405 -0.3818 -0.0759 -0.1424
15314TIP3   OH267432   1.227   3.253  15.223 -0.2753  0.4531 -0.1360
15314TIP3    H167433   1.218   3.286  15.312  0.0772  0.6912 -0.1871
15314TIP3    H267434   1.305   3.296  15.188  0.6644 -1.0139  0.0503
15315TIP3   OH267435   6.436   5.115  14.361  0.7284  0.3156  0.0997
15315TIP3    H167436   6.478   5.065  14.291  0.2770  0.8051 -0.5287
15315TIP3    H267437   6.484   5.198  14.364  1.7203 -0.2656  1.3891
15316TIP3   OH267438   5.907   4.014  11.709  1.1541 -0.0087  0.1754
15316TIP3    H167439   5.933   4.085  11.651  1.2650 -2.1227 -2.6213
15316TIP3    H267440   5.986   3.962  11.720  0.6669 -0.6632  0.6252
15317TIP3   OH267441   2.382   4.099  16.832 -0.0407 -0.3015  0.0985
15317TIP3    H167442   2.380   4.092  16.736  2.3349  0.8350 -0.1034
15317TIP3    H267443   2.474   4.118  16.852 -0.5871 -0.0603  2.5866
15318TIP3   OH267444   3.753   3.164  14.167 -0.1426 -0.3482 -0.6130
15318TIP3    H167445   3.755   3.079  14.124  0.5914 -1.5892  1.6820
15318TIP3    H267446   3.666   3.169  14.207 -1.1835  1.2121 -2.8533
15319TIP3   OH267447   4.350   4.629  17.283 -0.1904  0.3679  0.0191
15319TIP3    H167448   4.319   4.675  17.362 -3.3719  0.3813 -1.1023
15319TIP3    H267449   4.326   4.537  17.298  2.7309 -0.4280  0.6082
15320TIP3   OH267450   3.616   4.212   6.305  0.2416  0.9428 -0.4645
15320TIP3    H167451   3.667   4.173   6.234 -1.0715 -1.5148 -0.1644
15320TIP3    H267452   3.658   4.181   6.385  1.2851  3.1232 -0.0932
15321TIP3   OH267453   3.351   2.912   2.183 -0.2691  0.1837  0.1842
15321TIP3    H167454   3.350   2.868   2.098  1.0693  2.2021 -0.9632
15321TIP3    H267455   3.444   2.914   2.208 -0.6483 -0.4694  1.7846
15322TIP3   OH267456   5.672   1.933  15.401 -0.1679  0.3663  0.1384
15322TIP3    H167457   5.577   1.941  15.402 -0.5893 -2.9587 -0.2804
15322TIP3    H267458   5.689   1.865  15.336  2.4798  0.4926  0.5831
15323TIP3   OH267459   4.799   2.035  15.826 -0.7445 -0.7696 -0.0878
15323TIP3    H167460   4.871   2.093  15.847 -0.7810 -1.3687  1.8539
15323TIP3    H267461   4.776   2.057  15.736 -0.6872  2.1391  0.5069
15324TIP3   OH267462   6.776   5.675  14.792 -0.4628  0.1389  0.3573
15324TIP3    H167463   6.798   5.761  14.829  1.0463 -0.0448 -0.0144
15324TIP3    H267464   6.795   5.685  14.698 -1.5279 -0.2296  0.0922
15325TIP3   OH267465   1.483   6.196   4.081 -0.2321  0.3474  0.4251
15325TIP3    H167466   1.405   6.185   4.026  0.1383 -0.7985  0.1012
15325TIP3    H267467   1.554   6.159   4.029  0.3631  0.4751  1.1345
15326TIP3   OH267468   0.201   4.266   0.083 -0.2002 -0.2386 -0.6046
15326TIP3    H167469   0.289   4.256   0.119 -0.0890 -3.0200 -1.4160
15326TIP3    H267470   0.214   4.257  -0.012 -1.1006  1.8629 -0.9792
15327TIP3   OH267471   2.133   2.272  14.445 -0.0919  0.8187  0.3933
15327TIP3    H167472   2.164   2.316  14.525 -0.8235  0.1172  1.0831
15327TIP3    H267473   2.070   2.208  14.477  0.4118 -0.2247 -0.6716
15328TIP3   OH267474   4.277   4.635   4.364  0.5398 -0.2933 -0.4309
15328TIP3    H167475   4.350   4.683   4.326 -0.2454 -0.1408 -1.8066
15328TIP3    H267476   4.301   4.543   4.352  1.5701 -0.2837  1.2771
15329TIP3   OH267477   5.114   0.454   0.191 -0.0614  0.2436  0.1900
15329TIP3    H167478   5.089   0.498   0.272 -1.7128  0.6090 -0.4827
15329TIP3    H267479   5.144   0.367   0.219 -0.6222  0.3571  1.1925
15330TIP3   OH267480   0.206   6.680  11.898 -0.3281  0.0271  0.0081
15330TIP3    H167481   0.196   6.665  11.992  0.9329  1.0712  0.3389
15330TIP3    H267482   0.195   6.593  11.859  3.0820 -1.2647  1.4913
15331TIP3   OH267483   3.352   5.527   1.290 -0.1151  0.0516  0.5207
15331TIP3    H167484   3.348   5.592   1.220 -1.1263 -0.3864  0.1445
15331TIP3    H267485   3.387   5.449   1.249 -1.5319 -0.4787  0.2443
15332TIP3   OH267486   1.096   6.305  14.406  0.9452  0.1341 -0.2315
15332TIP3    H167487   1.030   6.372  14.421  1.1886  0.2178  0.5306
15332TIP3    H267488   1.178   6.354  14.397  0.9277  0.0233 -1.0313
15333TIP3   OH267489   0.533   6.472   1.235  0.4324 -0.1532  0.0783
15333TIP3    H167490   0.483   6.553   1.245 -1.9652 -1.0121 -3.2713
15333TIP3    H267491   0.622   6.502   1.216  0.5064  1.5081  2.5100
15334TIP3   OH267492   6.711   2.821  15.339  0.0281 -0.2541 -0.5584
15334TIP3    H167493   6.795   2.829  15.383  0.3429  0.9670 -1.3267
15334TIP3    H267494   6.705   2.728  15.315  0.9454 -0.4403 -0.1131
15335TIP3   OH267495   0.973   2.856  11.748  0.4052  1.2351 -0.4866
15335TIP3    H167496   1.063   2.823  11.743 -0.0801 -0.7868  2.0802
15335TIP3    H267497   0.983   2.950  11.765  2.1298  0.7289  1.6468
15336TIP3   OH267498   3.136   2.459   3.311  0.1313 -0.5162  0.1830
15336TIP3    H167499   3.055   2.426   3.351  0.4529 -0.8483  0.5664
15336TIP3    H267500   3.150   2.400   3.236 -1.1967  0.9152 -1.2779
15337TIP3   OH267501   4.185   0.450   0.097  0.4410 -0.1004  0.1761
15337TIP3    H167502   4.276   0.473   0.080  0.3729 -0.1216 -0.2215
15337TIP3    H267503   4.180   0.356   0.082  0.3289 -0.0807  0.0819
15338TIP3   OH267504   5.858   2.691  11.692  0.0934  0.6188  0.2194
15338TIP3    H167505   5.894   2.731  11.771  0.7523 -0.7017  0.6303
15338TIP3    H267506   5.935   2.658  11.646 -0.4565 -1.3676  0.6084
15339TIP3   OH267507   4.651   6.419  13.238  0.7379  0.3284  0.2157
15339TIP3    H167508   4.617   6.415  13.149  3.1730  0.4819 -0.7876
15339TIP3    H267509   4.617   6.501  13.274  0.5096  0.7382 -0.9144
15340TIP3   OH267510   2.888   6.016   3.261  0.3946 -0.1539  0.2924
15340TIP3    H167511   2.895   5.984   3.172  0.9306 -0.3010  0.3814
15340TIP3    H267512   2.836   5.950   3.307  2.9413 -1.8635  0.9031
15341TIP3   OH267513   0.241   1.633   6.270  0.1543 -0.1600 -0.6207
15341TIP3    H167514   0.209   1.574   6.202  1.6874 -0.0689 -1.4723
15341TIP3    H267515   0.330   1.603   6.288  0.6350  1.3101 -0.3965
15342TIP3   OH267516   6.213   2.189  11.541 -0.3349  0.2209 -0.3413
15342TIP3    H167517   6.186   2.276  11.512 -1.6232  0.8653  2.4582
15342TIP3    H267518   6.242   2.202  11.631  0.1656 -2.1467 -0.1045
15343TIP3   OH267519   1.283   0.874   0.131 -0.6415 -0.2759 -0.5232
15343TIP3    H167520   1.275   0.784   0.099  0.0333 -0.3825 -0.3985
15343TIP3    H267521   1.330   0.865   0.214  0.9345  0.3500 -1.3265
15344TIP3   OH267522   3.092   4.664  14.526 -0.1988  0.1734 -0.0002
15344TIP3    H167523   3.011   4.615  14.544  0.6054 -0.8223  1.0628
15344TIP3    H267524   3.143   4.605  14.470 -0.7022  1.3254 -1.7533
15345TIP3   OH267525   3.488   0.223  12.324  0.3414 -0.2537  0.2401
15345TIP3    H167526   3.431   0.276  12.269  0.4114 -0.9422 -0.5288
15345TIP3    H267527   3.576   0.250  12.299  0.3712 -0.4794  0.0978
15346TIP3   OH267528   3.872   6.739  15.957 -0.3733  0.1274  0.3233
15346TIP3    H167529   3.922   6.814  15.990  0.5213 -0.3646  0.1326
15346TIP3    H267530   3.805   6.724  16.024 -0.0025  0.5418  0.7972
15347TIP3   OH267531   4.527   0.364   5.208  0.8817  0.5674 -0.2975
15347TIP3    H167532   4.581   0.311   5.267 -0.8388 -0.8272  0.0945
15347TIP3    H267533   4.469   0.413   5.267 -0.8869 -0.8752 -0.7899
15348TIP3   OH267534   0.709   3.301  12.107 -0.2768 -0.3285  0.1100
15348TIP3    H167535   0.790   3.335  12.070 -0.6244  0.0205 -0.3447
15348TIP3    H267536   0.725   3.208  12.119  0.2080 -0.2502  0.0659
15349TIP3   OH267537   2.400   5.631   0.751  0.2635 -0.1401  0.0189
15349TIP3    H167538   2.411   5.635   0.846  1.7437  1.6840 -0.1696
15349TIP3    H267539   2.306   5.645   0.738  0.0934 -0.0405  1.2066
15350TIP3   OH267540   1.982   5.533   5.576  0.5721  0.1082 -0.1990
15350TIP3    H167541   2.045   5.464   5.554  0.1309 -0.2024 -0.5043
15350TIP3    H267542   1.923   5.535   5.501  1.1558  1.4900 -0.6547
15351TIP3   OH267543   6.134   4.313  15.992 -0.2066 -0.3007  0.3600
15351TIP3    H167544   6.222   4.286  16.018 -0.4030 -1.7411 -0.3893
15351TIP3    H267545   6.076   4.266  16.052 -0.5019  0.1568  0.4420
15352TIP3   OH267546   2.211   5.133   1.814  0.7375  0.0358  0.4259
15352TIP3    H167547   2.118   5.120   1.796  1.0314  0.9215 -2.0627
15352TIP3    H267548   2.241   5.048   1.847 -0.6359 -0.6957 -0.1424
15353TIP3   OH267549   2.328   5.844   5.467 -0.3425 -0.1772  0.0246
15353TIP3    H167550   2.323   5.818   5.559 -1.2203  0.8536  0.2826
15353TIP3    H267551   2.339   5.762   5.420 -2.3215 -0.9813  0.8562
15354TIP3   OH267552   2.866   5.434   1.123 -0.8754  0.1360  0.2226
15354TIP3    H167553   2.842   5.515   1.080 -1.1973  0.1327  0.3969
15354TIP3    H267554   2.876   5.457   1.215 -0.8475  0.0041  0.2539
15355TIP3   OH267555   3.874   4.567   1.604  0.9460  0.6602 -0.1482
15355TIP3    H167556   3.797   4.559   1.660  1.9064 -0.0724  1.1440
15355TIP3    H267557   3.843   4.548   1.516  0.1120 -2.2529  0.6682
15356TIP3   OH267558   1.114   0.608   4.264 -0.7901  0.5179 -0.0453
15356TIP3    H167559   1.185   0.660   4.300  0.1227 -1.8536  1.9330
15356TIP3    H267560   1.102   0.640   4.175  2.3599  1.4127 -0.2504
15357TIP3   OH267561   6.244   1.173  14.432 -0.3072 -0.5403  0.1959
15357TIP3    H167562   6.338   1.184  14.446  0.0313 -2.6880 -0.1700
15357TIP3    H267563   6.233   1.167  14.337 -0.5625 -2.1014  0.3035
15358TIP3   OH267564   2.330   5.414  11.455  0.4603  0.1638  0.0716
15358TIP3    H167565   2.412   5.462  11.469 -0.1144  1.0846  0.3609
15358TIP3    H267566   2.358   5.326  11.430  1.5382  0.6827 -0.6233
15359TIP3   OH267567   0.792   2.934  11.004 -0.0979 -0.9376  0.5258
15359TIP3    H167568   0.853   2.894  11.065  1.6333  1.6571  0.6964
15359TIP3    H267569   0.848   2.966  10.932 -1.1913  1.3717  0.5911
15360TIP3   OH267570   4.886   4.715  16.120  0.4614 -0.2288  0.4564
15360TIP3    H167571   4.941   4.776  16.071 -0.1717  0.5933  0.7371
15360TIP3    H267572   4.947   4.657  16.164  1.1259  0.9754  1.1613
15361TIP3   OH267573   2.732   3.175   6.086 -0.2648 -0.7519 -0.2929
15361TIP3    H167574   2.773   3.129   6.012 -0.5980 -2.5896  0.6052
15361TIP3    H267575   2.700   3.257   6.049  2.4396 -0.1111 -1.4752
15362TIP3   OH267576   0.648   3.638  15.901 -0.1318  0.3591 -0.1302
15362TIP3    H167577   0.735   3.638  15.862 -0.0423 -2.4990 -0.1137
15362TIP3    H267578   0.657   3.591  15.983 -1.9781 -1.8409 -1.0648
15363TIP3   OH267579   6.032   3.711  14.045 -0.3793 -0.6896  0.6089
15363TIP3    H167580   5.993   3.732  13.960 -0.8127 -1.7148  0.5325
15363TIP3    H267581   5.970   3.650  14.085  0.9198 -2.0220  0.6735
15364TIP3   OH267582   1.002   6.657   4.594  0.0809 -0.5705  0.0388
15364TIP3    H167583   1.039   6.569   4.585 -0.2500 -0.7915  0.7491
15364TIP3    H267584   0.920   6.654   4.545  0.5291 -0.3666 -0.7361
15365TIP3   OH267585   0.172   4.667  15.772  0.4730  0.1454  0.0982
15365TIP3    H167586   0.171   4.630  15.684 -0.0846 -1.1504  0.6245
15365TIP3    H267587   0.252   4.633  15.812  0.7797  0.8179  0.0663
15366TIP3   OH267588   1.477   0.585   1.514  0.2742 -0.1411 -0.6413
15366TIP3    H167589   1.499   0.678   1.507  0.9235 -0.2873 -0.5875
15366TIP3    H267590   1.536   0.542   1.451  0.2812 -0.5611 -0.3515
15367TIP3   OH267591   1.958   4.723  10.870 -0.7195  0.2133  0.2009
15367TIP3    H167592   2.048   4.741  10.899 -1.1509  1.0248  1.0867
15367TIP3    H267593   1.964   4.637  10.827  0.5731  0.5078 -0.2460
15368TIP3   OH267594   4.356   0.515  12.466  0.8138 -0.3810  0.3628
15368TIP3    H167595   4.438   0.546  12.426  0.6111 -0.2252  0.0603
15368TIP3    H267596   4.287   0.556  12.413  0.5327  0.1335  1.1084
15369TIP3   OH267597   5.263   6.236   2.386  0.1436 -0.2370 -0.0699
15369TIP3    H167598   5.205   6.161   2.374  0.3041 -0.2470 -0.8300
15369TIP3    H267599   5.207   6.313   2.373  0.6287 -0.2459 -2.6427
15370TIP3   OH267600   5.382   6.491  13.263  0.2025  0.3381  0.1038
15370TIP3    H167601   5.416   6.466  13.348  1.7419 -1.5926 -0.9937
15370TIP3    H267602   5.298   6.445  13.256  1.4343 -1.9848 -0.5183
15371TIP3   OH267603   4.718   3.550   6.848 -0.1978 -0.0380  0.4820
15371TIP3    H167604   4.802   3.559   6.893 -0.0483  0.2582  0.1386
15371TIP3    H267605   4.667   3.493   6.906 -0.2134  0.8196  1.3297
15372TIP3   OH267606   4.012   4.879  16.783 -0.2088 -0.5807  0.4439
15372TIP3    H167607   3.971   4.918  16.706  1.1822  3.4831  1.4941
15372TIP3    H267608   3.942   4.875  16.848 -0.2171  1.3620  0.6158
15373TIP3   OH267609   2.850   6.593  12.525  0.1292 -1.3704  0.7259
15373TIP3    H167610   2.846   6.668  12.585  1.7354  0.9488 -1.8465
15373TIP3    H267611   2.798   6.620  12.450  2.6546 -1.7492 -1.2780
15374TIP3   OH267612   3.966   5.289   6.607 -0.1127  0.2779  0.2000
15374TIP3    H167613   4.006   5.218   6.656  1.8143  1.1232 -0.0489
15374TIP3    H267614   3.976   5.264   6.515 -1.4160 -0.1236  0.1532
15375TIP3   OH267615   5.575   3.686   0.244 -0.1546  0.0477  0.3497
15375TIP3    H167616   5.529   3.758   0.287  0.9778  0.0690  1.5841
15375TIP3    H267617   5.642   3.659   0.307  0.2133 -1.3088 -0.5763
15376TIP3   OH267618   1.424   6.568  16.792  0.4696  0.4343 -0.6618
15376TIP3    H167619   1.459   6.506  16.728 -0.1159  2.1396 -2.7998
15376TIP3    H267620   1.485   6.564  16.866  0.0251 -3.1386 -0.3455
15377TIP3   OH267621   6.657   1.611  12.138 -0.7512 -0.7129 -0.2531
15377TIP3    H167622   6.596   1.602  12.065 -0.9204 -0.2131 -0.1780
15377TIP3    H267623   6.629   1.691  12.182  1.2991  0.7797 -1.5037
15378TIP3   OH267624   1.046   3.200   0.199 -0.1961  0.1043 -0.2160
15378TIP3    H167625   0.978   3.257   0.164 -0.9933 -1.1265 -0.7253
15378TIP3    H267626   1.048   3.125   0.140  0.2316 -0.8092  0.9129
15379TIP3   OH267627   4.629   0.569   0.407  0.2902  0.2203 -0.2831
15379TIP3    H167628   4.667   0.499   0.354 -0.9440 -0.4209 -0.3697
15379TIP3    H267629   4.535   0.554   0.401 -0.0133  1.9923 -0.4303
15380TIP3   OH267630   5.134   1.117   5.958 -0.7083 -0.6122 -0.1846
15380TIP3    H167631   5.221   1.101   5.996  0.1951  0.0228 -1.8868
15380TIP3    H267632   5.078   1.134   6.033  1.1043  1.1440  0.8699
15381TIP3   OH267633   2.509   3.435   6.138 -0.3116 -0.1726 -0.0838
15381TIP3    H167634   2.492   3.525   6.112  1.1155 -0.5584 -2.7770
15381TIP3    H267635   2.604   3.426   6.134 -0.4458 -1.9002 -0.3191
15382TIP3   OH267636   2.206   1.226   6.097 -0.1027 -0.8239 -0.3098
15382TIP3    H167637   2.260   1.147   6.105  0.6694 -0.3412 -0.6547
15382TIP3    H267638   2.164   1.217   6.011 -1.8015 -1.9331  0.5782
15383TIP3   OH267639   2.215   4.412  13.343  0.0531  0.1255 -0.3397
15383TIP3    H167640   2.272   4.337  13.324 -0.3084 -0.0856 -0.6078
15383TIP3    H267641   2.260   4.487  13.303  0.5093  0.0872  0.0892
15384TIP3   OH267642   0.334   2.199   0.728  0.1715  0.2070  0.1587
15384TIP3    H167643   0.339   2.236   0.640  0.1105  2.2512  0.9706
15384TIP3    H267644   0.419   2.219   0.767 -0.0998  0.0541  0.8417
15385TIP3   OH267645   1.381   0.749  11.039  0.3462  0.2384 -0.3520
15385TIP3    H167646   1.314   0.779  10.978  0.9254  3.8250  0.5506
15385TIP3    H267647   1.334   0.737  11.122  0.3677  0.0126 -0.3716
15386TIP3   OH267648   1.276   2.954  16.437  0.1325 -0.5687  0.5489
15386TIP3    H167649   1.238   3.033  16.400  0.7096  0.2742  1.6818
15386TIP3    H267650   1.209   2.887  16.425 -1.1933  0.5693  1.3421
15387TIP3   OH267651   0.083   3.643   6.582 -0.2097  0.6885 -0.0758
15387TIP3    H167652   0.120   3.557   6.600  1.9242  1.6845  0.6978
15387TIP3    H267653   0.016   3.655   6.649 -0.4006 -0.2976 -0.0827
15388TIP3   OH267654   3.248   1.547   2.928 -0.1563 -0.2268 -0.1637
15388TIP3    H167655   3.241   1.616   2.862 -1.7496 -0.4219 -0.2484
15388TIP3    H267656   3.286   1.472   2.882  1.3711  0.4801 -0.1294
15389TIP3   OH267657   2.263   3.966  15.895  0.0358  0.5526  0.0665
15389TIP3    H167658   2.308   3.969  15.980 -1.4107 -0.6070  0.9274
15389TIP3    H267659   2.331   3.982  15.831  1.7409 -1.3252  1.2886
15390TIP3   OH267660   5.232   1.694  14.744 -0.2494 -0.0991 -0.1852
15390TIP3    H167661   5.325   1.715  14.739 -0.3682  0.3863 -0.4785
15390TIP3    H267662   5.226   1.603  14.714 -0.0339  0.3327 -1.6047
15391TIP3   OH267663   5.994   5.936   5.505  0.5224 -0.7294 -0.0802
15391TIP3    H167664   5.941   5.998   5.456 -0.8321 -1.6615  0.1471
15391TIP3    H267665   5.948   5.852   5.496  1.8508 -1.5363  0.3026
15392TIP3   OH267666   1.797   2.864  14.070 -0.1424 -0.2539  0.8382
15392TIP3    H167667   1.721   2.806  14.075  0.9006 -1.6340  1.3246
15392TIP3    H267668   1.855   2.821  14.006 -0.7552  2.0120 -1.3805
15393TIP3   OH267669   4.108   1.430  16.592  0.6183  0.2992  0.4484
15393TIP3    H167670   4.074   1.507  16.637  0.0358  0.1194  0.3187
15393TIP3    H267671   4.177   1.397  16.649 -0.2465 -0.0482  1.3161
15394TIP3   OH267672   6.224   5.839   1.253  0.2539  0.0520  0.0691
15394TIP3    H167673   6.280   5.878   1.187 -1.0675 -0.1384 -1.2211
15394TIP3    H267674   6.167   5.911   1.282  0.9967  0.2035  1.2350
15395TIP3   OH267675   1.354   2.632   0.894  0.1623  0.1306  0.1023
15395TIP3    H167676   1.313   2.575   0.960  0.9219 -0.2284  0.2770
15395TIP3    H267677   1.443   2.598   0.886  0.8003  1.6156  0.5763
15396TIP3   OH267678   0.586   0.680  11.354  0.0639  0.1182 -0.0584
15396TIP3    H167679   0.562   0.653  11.442 -0.2181 -1.5702 -0.6096
15396TIP3    H267680   0.646   0.612  11.323 -1.1093 -0.2260 -1.7202
15397TIP3   OH267681   3.865   1.959   3.319 -0.1518  0.5091  0.2603
15397TIP3    H167682   3.911   1.876   3.329  0.2752  0.7701  0.4988
15397TIP3    H267683   3.934   2.026   3.326 -0.8322  1.0394  3.1204
15398TIP3   OH267684   3.691   6.528  16.899  0.0987  0.0145 -0.2622
15398TIP3    H167685   3.606   6.535  16.943  0.0826  0.6567 -0.3782
15398TIP3    H267686   3.669   6.518  16.806  0.0984 -2.8611 -0.0161
15399TIP3   OH267687   6.035   2.653   3.652 -0.0882  0.0326  0.0856
15399TIP3    H167688   5.991   2.689   3.729 -0.3475 -1.1254  0.4945
15399TIP3    H267689   6.037   2.726   3.590 -0.2028  0.8779  1.0414
15400TIP3   OH267690   5.693   0.250  13.816 -0.3427  0.3742 -0.2049
15400TIP3    H167691   5.758   0.208  13.759  1.0279 -0.5170  1.8966
15400TIP3    H267692   5.617   0.264  13.759  0.1527 -2.3848 -1.7451
15401TIP3   OH267693   6.100   6.013  17.312  0.8384 -0.0459 -0.1541
15401TIP3    H167694   6.094   6.069  17.389 -1.2786 -0.4496  0.0449
15401TIP3    H267695   6.191   6.022  17.282  0.8681  2.5974  0.4950
15402TIP3   OH267696   4.736   6.198  17.264  0.5924  0.3638  0.3769
15402TIP3    H167697   4.730   6.125  17.202 -1.2207  0.8463 -0.0507
15402TIP3    H267698   4.828   6.198  17.291  1.0302 -0.9630 -0.9657
15403TIP3   OH267699   2.483   4.882  16.484 -0.6812 -0.3759  0.2557
15403TIP3    H167700   2.442   4.966  16.465 -0.4715 -0.0312  1.2759
15403TIP3    H267701   2.455   4.825  16.412 -3.2120 -0.2476  1.0654
15404TIP3   OH267702   3.288   0.588  11.441 -0.3582 -0.1945  0.4252
15404TIP3    H167703   3.266   0.500  11.473 -0.3790 -1.2101 -2.2053
15404TIP3    H267704   3.258   0.590  11.351 -0.9705  2.7982  0.5681
15405TIP3   OH267705   5.220   6.181  11.162  0.8223 -0.2758 -0.6064
15405TIP3    H167706   5.258   6.119  11.100  1.2349 -3.1395  2.2362
15405TIP3    H267707   5.126   6.159  11.163  0.8187 -0.2447 -0.2262
15406TIP3   OH267708   1.788   5.859  14.803 -0.2856 -0.1163  0.3048
15406TIP3    H167709   1.881   5.856  14.781  0.0647  1.1371  1.4543
15406TIP3    H267710   1.743   5.838  14.721  0.9889  0.2816 -0.5283
15407TIP3   OH267711   6.042   5.757  14.476 -0.0124 -0.3683  0.0402
15407TIP3    H167712   6.074   5.812  14.548  2.4067 -1.5098 -0.0503
15407TIP3    H267713   6.007   5.680  14.519 -1.1471  0.1467  0.0693
15408TIP3   OH267714   1.392   6.631   0.035  0.1722  0.1432 -0.7709
15408TIP3    H167715   1.392   6.694   0.107 -2.2452  1.0174 -1.4183
15408TIP3    H267716   1.335   6.560   0.065  0.4758 -0.2911 -1.1976
15409TIP3   OH267717   6.727   1.411  15.006  0.1129 -0.0556 -0.3042
15409TIP3    H167718   6.770   1.359  14.938  0.3944  0.7155 -0.7287
15409TIP3    H267719   6.669   1.470  14.958 -0.4870 -0.2259  0.1951
15410TIP3   OH267720   4.163   3.683   6.118  0.1762 -0.4383 -0.3343
15410TIP3    H167721   4.118   3.616   6.067  0.9161 -0.2632 -1.2676
15410TIP3    H267722   4.152   3.656   6.209 -1.6433 -0.4693 -0.5398
15411TIP3   OH267723   2.038   3.810   3.578  0.2889 -0.7666 -0.0985
15411TIP3    H167724   2.089   3.876   3.625 -0.8125  2.2322 -2.7494
15411TIP3    H267725   1.949   3.817   3.615  0.1575 -0.7465 -0.4152
15412TIP3   OH267726   2.443   2.704   5.721 -0.0213  0.1570 -0.0122
15412TIP3    H167727   2.431   2.719   5.627 -1.0427  1.0444  0.2419
15412TIP3    H267728   2.503   2.774   5.748  0.3341 -0.1458 -0.0217
15413TIP3   OH267729   1.703   4.831  15.607 -0.0282  0.1393  0.1273
15413TIP3    H167730   1.712   4.901  15.541  0.3494  0.5344  0.5888
15413TIP3    H267731   1.750   4.864  15.683 -0.0044 -0.5469  0.4170
15414TIP3   OH267732   3.972   2.886  11.183  0.0560  0.2069  0.0747
15414TIP3    H167733   4.062   2.889  11.150  0.6331 -0.3569  1.5232
15414TIP3    H267734   3.922   2.844  11.113  1.0941 -0.3223 -0.3655
15415TIP3   OH267735   6.787   2.227  15.308  0.0303 -0.2725  0.0725
15415TIP3    H167736   6.720   2.167  15.273  1.1612 -1.6476  0.1844
15415TIP3    H267737   6.759   2.243  15.398  0.0472 -1.1551  0.2433
15416TIP3   OH267738   5.904   0.230   2.865  0.3562  0.1638 -0.2090
15416TIP3    H167739   5.835   0.255   2.927  0.3417  0.7996 -0.4765
15416TIP3    H267740   5.961   0.307   2.861  0.6499 -0.0747 -0.5822
15417TIP3   OH267741   5.641   4.127   2.204  0.1684  0.5734  0.1772
15417TIP3    H167742   5.707   4.195   2.190  0.8828 -0.4292 -1.7428
15417TIP3    H267743   5.679   4.048   2.164 -0.7348 -0.9202  2.0999
15418TIP3   OH267744   2.220   5.137   3.718  0.7133  0.5447  0.2671
15418TIP3    H167745   2.164   5.178   3.785  1.1102 -0.3398  1.1596
15418TIP3    H267746   2.252   5.211   3.666 -0.5629  1.1447  0.2957
15419TIP3   OH267747   3.644   6.611   0.362 -0.0259  0.0412  0.3247
15419TIP3    H167748   3.645   6.699   0.401  2.0636  0.0797  0.2769
15419TIP3    H267749   3.645   6.627   0.268  1.2140  0.0163  0.3111
15420TIP3   OH267750   4.065   0.024   2.113 -0.2603  0.1793 -0.4570
15420TIP3    H167751   4.031  -0.058   2.148  0.5279 -0.1648 -0.4665
15420TIP3    H267752   4.100   0.070   2.190 -2.0916  1.2284 -0.2052
15421TIP3   OH267753   4.985   6.599  12.223 -0.3929  0.6352 -0.5384
15421TIP3    H167754   4.936   6.518  12.208 -0.8434  1.1017 -1.7050
15421TIP3    H267755   5.003   6.599  12.317 -0.0890 -0.9782 -0.5718
15422TIP3   OH267756   1.416   5.134   3.760  0.3286  0.6187  0.0757
15422TIP3    H167757   1.500   5.146   3.805  0.9774 -1.4566 -0.4532
15422TIP3    H267758   1.417   5.042   3.733 -0.7048  1.3431 -2.7605
15423TIP3   OH267759   1.405   3.124   2.589  0.2992 -0.4476  0.1312
15423TIP3    H167760   1.352   3.158   2.517  0.8001 -0.3192 -0.1808
15423TIP3    H267761   1.364   3.160   2.668 -0.5199 -0.9414 -0.0504
15424TIP3   OH267762   1.275   4.472  16.258 -0.0417  0.0145 -0.0971
15424TIP3    H167763   1.335   4.533  16.216 -1.5115 -0.0168 -2.4293
15424TIP3    H267764   1.221   4.526  16.316 -0.4089  0.7141 -1.0809
15425TIP3   OH267765   0.661   0.490   1.377  0.3061  0.1289 -0.1730
15425TIP3    H167766   0.751   0.465   1.356 -0.0116 -0.9885 -0.3128
15425TIP3    H267767   0.669   0.558   1.443  1.2631 -1.1323  1.0866
15426TIP3   OH267768   5.645   5.023   4.058  0.6385  0.2689  0.2116
15426TIP3    H167769   5.550   5.027   4.072  0.5629 -0.3458 -0.0752
15426TIP3    H267770   5.677   5.109   4.084 -0.2025  1.0541 -1.1915
15427TIP3   OH267771   5.202   4.407   2.804  0.5195  0.5671 -0.6711
15427TIP3    H167772   5.149   4.481   2.775  0.3561  1.1237  0.9263
15427TIP3    H267773   5.289   4.424   2.770  0.6223  1.8273  0.1730
15428TIP3   OH267774   0.919   4.424  11.084  0.0020  0.2379  0.4568
15428TIP3    H167775   0.949   4.450  11.171 -0.2656  1.3110  0.2440
15428TIP3    H267776   0.986   4.363  11.053  1.3443  1.6369  0.4820
15429TIP3   OH267777   4.086   2.816   2.448 -0.1397 -0.1265 -0.0942
15429TIP3    H167778   3.993   2.797   2.434 -0.7015  0.6224  2.2173
15429TIP3    H267779   4.127   2.730   2.458 -0.8662 -0.4188  0.4037
15430TIP3   OH267780   6.091   5.764  11.092 -0.6777  0.0601  0.7447
15430TIP3    H167781   6.009   5.748  11.140  0.3489 -0.9135  2.2618
15430TIP3    H267782   6.150   5.800  11.158 -0.2386  2.0488 -0.6371
15431TIP3   OH267783   4.270   3.885   1.198 -0.2359 -0.1421 -0.4115
15431TIP3    H167784   4.202   3.829   1.236 -0.1209 -0.6618 -0.9684
15431TIP3    H267785   4.222   3.954   1.152 -0.3937 -0.6226 -0.9768
15432TIP3   OH267786   6.279   3.537   1.949  0.1354 -0.3936 -0.2657
15432TIP3    H167787   6.349   3.473   1.937  0.7352  0.4282 -1.3038
15432TIP3    H267788   6.215   3.516   1.881  0.5027  0.3108 -0.8411
15433TIP3   OH267789   5.379   3.793   4.096  0.0010 -0.0119 -0.3515
15433TIP3    H167790   5.427   3.728   4.045 -0.4889 -2.4719  2.0835
15433TIP3    H267791   5.439   3.816   4.167 -0.2684  1.3705 -0.5553
15434TIP3   OH267792   0.679   0.033  13.720  0.2110  0.3581  0.3613
15434TIP3    H167793   0.769   0.003  13.711 -0.6068 -1.8153 -1.3531
15434TIP3    H267794   0.658   0.072  13.635 -0.9296 -0.6252  0.1607
15435TIP3   OH267795   0.345   3.006   5.490 -0.0213  0.0640 -0.4771
15435TIP3    H167796   0.432   3.005   5.529 -0.9071 -0.0542  1.5960
15435TIP3    H267797   0.311   3.094   5.508  0.0885  0.5508 -2.3763
15436TIP3   OH267798   2.944   1.296   2.624  0.2646 -0.4408  0.0280
15436TIP3    H167799   2.879   1.366   2.623 -0.3312 -0.9390  1.4226
15436TIP3    H267800   3.025   1.338   2.594 -0.0571  0.8785  0.9331
15437TIP3   OH267801   1.989   2.821   3.136 -0.6272 -0.0364 -0.1917
15437TIP3    H167802   1.958   2.884   3.201 -1.0609 -0.9718  0.5287
15437TIP3    H267803   1.977   2.865   3.052 -1.1578  0.7418  0.2821
15438TIP3   OH267804   6.090   0.073  11.276 -0.5833  0.1387 -0.4452
15438TIP3    H167805   6.151   0.052  11.206 -1.5772  0.8866 -1.5845
15438TIP3    H267806   6.008   0.094  11.231 -2.0144 -1.8247  1.0672
15439TIP3   OH267807   4.326   4.918   0.727 -0.3538  0.1667  0.0546
15439TIP3    H167808   4.385   4.863   0.676  0.7519 -0.1194  1.5809
15439TIP3    H267809   4.239   4.895   0.694  0.2596 -0.5030 -1.2001
15440TIP3   OH267810   2.069   1.148   0.438  0.0680 -0.1926  0.0363
15440TIP3    H167811   2.144   1.136   0.496  0.6919 -0.0103 -0.7267
15440TIP3    H267812   1.995   1.159   0.498  0.5812 -0.7292  0.7982
15441TIP3   OH267813   2.219   5.455  13.124  0.3487  0.1202  0.0912
15441TIP3    H167814   2.240   5.532  13.178 -0.5139  0.7869 -0.4919
15441TIP3    H267815   2.295   5.445  13.067  0.9313 -0.1190  0.8975
15442TIP3   OH267816   2.688   6.458   1.480  0.2277  0.4070 -0.0029
15442TIP3    H167817   2.691   6.552   1.498 -1.5698  0.7383 -1.1356
15442TIP3    H267818   2.596   6.439   1.465  0.3133 -1.9016  1.7542
15443TIP3   OH267819   5.542   0.655   1.216 -0.0462 -0.0869  0.0441
15443TIP3    H167820   5.580   0.741   1.204  1.0899 -0.4998  0.5094
15443TIP3    H267821   5.612   0.594   1.192 -1.2107 -0.9089 -1.4511
15444TIP3   OH267822   1.555   6.387  15.513 -0.3343 -0.1061 -0.7288
15444TIP3    H167823   1.474   6.336  15.521  0.0999 -0.5236  2.1031
15444TIP3    H267824   1.617   6.342  15.570  1.4468  1.1065 -1.6142
15445TIP3   OH267825   4.529   2.127   4.843 -0.5660  0.4510 -0.9759
15445TIP3    H167826   4.488   2.194   4.898 -2.0147  0.5637 -2.1255
15445TIP3    H267827   4.613   2.166   4.817  0.5424  0.0723  1.7104
15446TIP3   OH267828   3.337   5.643  16.429 -0.7007 -0.2269  0.1635
15446TIP3    H167829   3.271   5.696  16.473 -0.6184  0.1222 -0.1295
15446TIP3    H267830   3.399   5.707  16.393 -0.5178 -0.5278 -0.0603
15447TIP3   OH267831   2.690   5.547   4.958  0.4913 -0.0813 -0.2332
15447TIP3    H167832   2.632   5.585   5.024  0.4264 -1.7018  0.7017
15447TIP3    H267833   2.634   5.535   4.881 -0.6786 -2.1521  0.8384
15448TIP3   OH267834   5.700   0.873   4.444 -0.3212 -0.2610  0.0901
15448TIP3    H167835   5.695   0.830   4.529 -0.3218 -0.7043 -0.1245
15448TIP3    H267836   5.648   0.816   4.386  0.4531 -0.4829 -0.4069
15449TIP3   OH267837   0.330   6.333   5.100  0.1288 -0.0678 -0.3458
15449TIP3    H167838   0.333   6.276   5.023 -0.4205  1.4371 -1.5255
15449TIP3    H267839   0.269   6.289   5.159 -0.0696 -0.8528 -1.0979
15450TIP3   OH267840   2.138   4.128  14.624  0.0789  0.0901 -0.0880
15450TIP3    H167841   2.063   4.188  14.622  0.9183  1.2995  1.7302
15450TIP3    H267842   2.124   4.074  14.702  0.7050 -0.2005 -0.1697
15451TIP3   OH267843   4.973   5.190  15.580 -0.3453  0.0269 -0.1637
15451TIP3    H167844   5.022   5.237  15.512 -1.0330 -1.2946 -1.6556
15451TIP3    H267845   4.921   5.126  15.531 -1.2734 -0.6248  1.6011
15452TIP3   OH267846   2.436   4.674   1.817  0.1590  0.0905 -0.0789
15452TIP3    H167847   2.400   4.611   1.879  1.1749  0.7012  1.1915
15452TIP3    H267848   2.455   4.622   1.739 -1.0289 -0.7272  0.1468
15453TIP3   OH267849   4.123   3.181   3.406  0.0840  0.5048  0.3015
15453TIP3    H167850   4.094   3.266   3.440  1.7174  1.1047  0.3099
15453TIP3    H267851   4.071   3.168   3.327 -0.1615  1.5550  0.2687
15454TIP3   OH267852   5.433   2.122   6.318  0.3443  0.6385 -0.2462
15454TIP3    H167853   5.445   2.039   6.365 -1.2688 -0.3039 -1.3976
15454TIP3    H267854   5.497   2.119   6.248 -0.7954 -0.4652 -1.2994
15455TIP3   OH267855   6.035   5.461   1.583  0.0040  0.3348  0.2448
15455TIP3    H167856   6.038   5.555   1.566 -1.7325  0.4338  0.2938
15455TIP3    H267857   6.101   5.424   1.524 -0.9269  1.3735 -1.5563
15456TIP3   OH267858   3.014   6.707   5.094 -0.9287  0.0676 -0.2030
15456TIP3    H167859   2.936   6.683   5.044 -0.6791 -0.5253 -0.3177
15456TIP3    H267860   3.081   6.723   5.028 -0.7285 -0.2394 -0.0761
15457TIP3   OH267861   1.802   4.618  13.286 -0.3682  0.5724 -0.1543
15457TIP3    H167862   1.879   4.629  13.341  0.4632  0.7867 -1.3301
15457TIP3    H267863   1.834   4.629  13.196 -2.0121  2.2345 -0.6152
15458TIP3   OH267864   2.414   4.237   1.983  0.3271  0.5881  0.1851
15458TIP3    H167865   2.398   4.194   2.067 -0.0793  0.7572  0.1952
15458TIP3    H267866   2.474   4.309   2.004  0.0725  0.7513  0.3678
15459TIP3   OH267867   2.109   5.185  13.196 -0.0874 -0.0467  0.4613
15459TIP3    H167868   2.125   5.132  13.274  0.4805  1.5129  1.4618
15459TIP3    H267869   2.181   5.248  13.195 -0.8629  0.8628 -0.5282
15460TIP3   OH267870   2.077   3.051  11.675 -0.3478 -0.4926  0.4112
15460TIP3    H167871   2.078   3.143  11.652 -2.2301  0.0372  2.1226
15460TIP3    H267872   2.008   3.013  11.620 -0.4237 -0.6039  0.5812
15461TIP3   OH267873   3.668   5.734   6.143  0.1714  0.2893  0.2263
15461TIP3    H167874   3.753   5.726   6.100  0.4082  1.0865  0.5281
15461TIP3    H267875   3.685   5.709   6.234 -0.2471 -1.0156 -0.0228
15462TIP3   OH267876   3.772   1.179   1.211 -0.3268  0.5383  0.2750
15462TIP3    H167877   3.845   1.217   1.260 -0.1309  0.6597 -0.1102
15462TIP3    H267878   3.751   1.244   1.144 -1.2363  0.8059  0.8097
15463TIP3   OH267879   0.912   6.363  11.104 -0.3755  0.7885  0.1519
15463TIP3    H167880   0.975   6.422  11.062 -1.0589  1.8312  0.5602
15463TIP3    H267881   0.851   6.340  11.033 -0.0304  0.4573 -0.0404
15464TIP3   OH267882   1.158   0.054   4.514 -0.0158 -0.7098 -0.1744
15464TIP3    H167883   1.105  -0.014   4.555 -2.8119  0.5325 -1.4564
15464TIP3    H267884   1.096   0.123   4.491  2.1097  0.7177 -2.1877
15465TIP3   OH267885   2.810   5.373   4.089  0.8565 -0.0533 -0.3365
15465TIP3    H167886   2.763   5.430   4.029  0.1339 -0.7286 -0.4245
15465TIP3    H267887   2.756   5.295   4.096  0.6558  0.2079  1.5965
15466TIP3   OH267888   1.075   1.660  14.764 -0.3524 -0.4100  0.3971
15466TIP3    H167889   0.995   1.691  14.807 -0.0164  0.0085  0.7162
15466TIP3    H267890   1.093   1.724  14.696 -0.9043 -1.0913 -0.4118
15467TIP3   OH267891   1.313   1.877  13.327  0.2042 -0.1357  0.0175
15467TIP3    H167892   1.297   1.874  13.232 -0.6127  0.4646  0.1302
15467TIP3    H267893   1.259   1.807  13.362  2.2396 -1.9291 -0.1503
15468TIP3   OH267894   2.307   1.373   2.556  0.3689  0.4812 -0.3922
15468TIP3    H167895   2.355   1.432   2.614 -0.0767 -0.3626  0.8983
15468TIP3    H267896   2.373   1.340   2.495  0.8885  1.2619 -0.2669
15469TIP3   OH267897   1.365   4.138  15.848 -0.5924 -0.8170  0.2567
15469TIP3    H167898   1.342   4.078  15.918  1.2040  0.1593  1.7603
15469TIP3    H267899   1.404   4.082  15.780 -1.5024 -1.6464  0.3889
15470TIP3   OH267900   0.218   5.785  11.018 -0.1736  0.3788 -0.0127
15470TIP3    H167901   0.166   5.818  10.945  0.7229  0.0925 -0.8017
15470TIP3    H267902   0.285   5.730  10.977  0.7327  0.7125  0.9756
15471TIP3   OH267903   3.147   5.355  13.716 -0.0847 -0.6311 -0.2778
15471TIP3    H167904   3.176   5.396  13.797 -0.6298 -0.3167 -0.2354
15471TIP3    H267905   3.186   5.268  13.718 -0.5618 -0.8416  0.6092
15472TIP3   OH267906   6.168   0.101   2.929 -0.4423 -0.4870  0.3539
15472TIP3    H167907   6.080   0.138   2.932 -0.2959 -0.1714  0.9579
15472TIP3    H267908   6.224   0.168   2.967  0.0612 -0.6924 -0.0093
15473TIP3   OH267909   1.278   0.611   3.224 -0.2405 -0.2530 -0.1398
15473TIP3    H167910   1.342   0.636   3.292 -0.2162 -0.7769  0.0301
15473TIP3    H267911   1.234   0.535   3.260 -1.6094  0.6441  0.1491
15474TIP3   OH267912   5.781   4.417   3.605 -1.0516 -0.5070  0.3032
15474TIP3    H167913   5.794   4.448   3.694  0.8167  0.1150 -0.1367
15474TIP3    H267914   5.771   4.322   3.614 -3.2822 -0.2231  1.3446
15475TIP3   OH267915   5.348   3.654  13.728 -0.0866 -0.2024  0.6042
15475TIP3    H167916   5.421   3.645  13.790  0.7599  0.3793 -0.2791
15475TIP3    H267917   5.347   3.570  13.682 -1.5966 -1.1767  2.2776
15476TIP3   OH267918   3.674   4.094   2.894  0.2430  0.2866  0.1833
15476TIP3    H167919   3.740   4.164   2.897  1.3542 -0.7322  0.3463
15476TIP3    H267920   3.699   4.035   2.965 -0.7520 -0.2230  0.1215
15477TIP3   OH267921   2.515   1.310   0.597  0.4798  0.4357  0.0744
15477TIP3    H167922   2.523   1.289   0.690 -2.0933  0.9644  0.5090
15477TIP3    H267923   2.463   1.238   0.561  1.3748  0.2821 -0.9652
15478TIP3   OH267924   2.864   6.765   5.795  0.0939 -0.6631 -0.2612
15478TIP3    H167925   2.803   6.697   5.766 -0.4342 -0.0969 -0.5008
15478TIP3    H267926   2.870   6.826   5.721  1.1504 -0.8450 -0.3310
15479TIP3   OH267927   0.585   2.178  13.554  0.2577 -0.0348 -0.0697
15479TIP3    H167928   0.657   2.202  13.495 -0.1561  1.0108 -0.1750
15479TIP3    H267929   0.605   2.224  13.635  0.9979 -1.7279  0.7592
15480TIP3   OH267930   4.925   4.875   1.676  0.4122  0.2853 -0.1185
15480TIP3    H167931   4.980   4.886   1.753  1.3659 -1.9717 -0.3769
15480TIP3    H267932   4.847   4.829   1.707  1.3737 -1.8064 -0.6077
15481TIP3   OH267933   5.581   4.965  12.742 -0.5984  0.5601  0.1954
15481TIP3    H167934   5.558   5.056  12.726  0.4283  0.7121 -0.5225
15481TIP3    H267935   5.627   4.966  12.826 -3.0479  0.2558  1.6290
15482TIP3   OH267936   6.634   3.935   6.492  0.0278  0.6184 -0.0870
15482TIP3    H167937   6.626   4.026   6.462 -2.9721 -0.0431 -1.6553
15482TIP3    H267938   6.606   3.937   6.583 -0.4189  1.2199 -0.2322
15483TIP3   OH267939   3.348   5.201   0.404 -0.0290  0.5472 -0.9405
15483TIP3    H167940   3.381   5.138   0.339  0.4161  0.3919 -0.5728
15483TIP3    H267941   3.255   5.181   0.411 -0.6747  2.2205 -3.3737
15484TIP3   OH267942   4.949   2.236   3.160  0.7160  0.0512  0.1802
15484TIP3    H167943   4.947   2.239   3.064 -2.1475 -2.4697 -0.0017
15484TIP3    H267944   5.014   2.169   3.180 -1.1137 -1.9610 -0.2737
15485TIP3   OH267945   5.698   5.171   3.118  0.1144 -0.1567 -0.1639
15485TIP3    H167946   5.725   5.080   3.135  0.2979 -0.0758 -0.0140
15485TIP3    H267947   5.666   5.202   3.203  0.3204  0.0096 -0.1468
15486TIP3   OH267948   1.237   1.444   5.195 -0.0399  0.6844  0.3513
15486TIP3    H167949   1.178   1.504   5.240 -0.3629  0.0623  0.7693
15486TIP3    H267950   1.211   1.449   5.103 -0.5845  0.6028  0.4982
15487TIP3   OH267951   6.145   4.763   3.260 -0.5828 -0.2838  0.2960
15487TIP3    H167952   6.102   4.698   3.317 -1.0427  0.5102  0.8773
15487TIP3    H267953   6.185   4.825   3.321 -0.3750  0.1323 -0.2593
15488TIP3   OH267954   0.687   1.883  15.928 -1.0175 -0.2233 -0.4512
15488TIP3    H167955   0.610   1.828  15.911 -1.8401  0.9004 -0.4636
15488TIP3    H267956   0.678   1.956  15.867  0.3344 -0.3324 -0.7912
15489TIP3   OH267957   6.031   0.173  17.066 -0.4565  0.2286  0.3058
15489TIP3    H167958   5.978   0.229  17.123 -2.3974 -0.9395 -0.2516
15489TIP3    H267959   6.048   0.227  16.989 -0.4629  0.7690  0.6729
15490TIP3   OH267960   1.748   0.786   1.016 -0.2765  0.0489 -0.3066
15490TIP3    H167961   1.742   0.851   0.946 -3.0056  0.2670 -0.0030
15490TIP3    H267962   1.792   0.831   1.087 -1.1200  1.2349 -0.4972
15491TIP3   OH267963   1.373   3.835  16.830  0.6945 -0.3604  0.1583
15491TIP3    H167964   1.450   3.890  16.820  1.1007 -0.7586  0.9872
15491TIP3    H267965   1.306   3.876  16.775  1.3107  0.3402 -0.0716
15492TIP3   OH267966   6.502   1.656  15.522 -0.9779  0.1051 -0.4263
15492TIP3    H167967   6.535   1.566  15.522 -0.5247  0.2644 -1.2923
15492TIP3    H267968   6.422   1.651  15.470 -1.9362 -0.1245  1.0049
15493TIP3   OH267969   2.988   3.958   0.423  0.4824  0.2467 -0.2592
15493TIP3    H167970   2.901   3.984   0.392  0.3962 -0.6338 -0.7757
15493TIP3    H267971   2.983   3.863   0.434  0.4682  0.4791  2.6483
15494TIP3   OH267972   3.492   3.175   3.191 -0.1192 -0.3221  0.1565
15494TIP3    H167973   3.574   3.211   3.224 -0.4368 -0.5481  1.2008
15494TIP3    H267974   3.454   3.247   3.139 -0.0297  0.3478  0.9921
15495TIP3   OH267975   2.582   1.894  16.550  0.2043 -0.0520 -0.1660
15495TIP3    H167976   2.541   1.812  16.577  1.8438 -1.2048 -0.9712
15495TIP3    H267977   2.676   1.877  16.557  0.6797  0.6575 -3.2842
15496TIP3   OH267978   0.933   1.739  16.370 -0.4252 -0.0361  0.4816
15496TIP3    H167979   0.921   1.762  16.278 -0.2906  0.0612  0.4874
15496TIP3    H267980   0.992   1.664  16.368 -0.5087 -0.1019  0.4831
15497TIP3   OH267981   4.181   0.194  11.056 -0.1017 -0.4154  0.1358
15497TIP3    H167982   4.125   0.121  11.079 -1.4889  0.8446  0.9204
15497TIP3    H267983   4.177   0.199  10.961 -0.8671 -0.6951  0.1531
15498TIP3   OH267984   5.929   6.556  11.600  0.0264 -0.4298 -0.1436
15498TIP3    H167985   5.915   6.541  11.507  1.2891 -0.9363 -0.2606
15498TIP3    H267986   6.000   6.496  11.624  0.6812  0.6993  0.8333
15499TIP3   OH267987   2.412   2.027  11.382 -0.1587 -0.0118 -0.1222
15499TIP3    H167988   2.442   2.013  11.292  0.1540 -0.5387  0.0629
15499TIP3    H267989   2.389   2.120  11.385 -0.7707 -0.1221 -0.9252
15500TIP3   OH267990   6.158   1.804   4.162 -1.1363 -0.1518  0.2568
15500TIP3    H167991   6.178   1.869   4.095 -1.5798 -0.7212 -0.4502
15500TIP3    H267992   6.232   1.744   4.161 -2.2557 -1.6135 -1.5607
15501TIP3   OH267993   4.236   0.151   2.567  0.3589 -0.2470  0.1568
15501TIP3    H167994   4.259   0.059   2.575 -1.4964 -0.6570  1.3782
15501TIP3    H267995   4.232   0.183   2.657 -4.0705 -0.3965  0.2148
15502TIP3   OH267996   1.023   3.389  13.388  0.0779  0.1003 -0.2141
15502TIP3    H167997   0.929   3.409  13.393  0.2322  1.0920 -0.9875
15502TIP3    H267998   1.037   3.367  13.296  0.6806  0.3703 -0.1883
15503TIP3   OH267999   3.758   6.475   6.427  0.0563 -0.3984  0.3279
15503TIP3    H168000   3.676   6.524   6.426 -0.4755 -1.2672 -0.0634
15503TIP3    H268001   3.797   6.492   6.341  0.4756  0.3065  0.6494
15504TIP3   OH268002   0.845   1.340  15.316  0.6358 -0.0500 -0.3004
15504TIP3    H168003   0.758   1.326  15.354  0.1586 -1.0472 -1.6980
15504TIP3    H268004   0.832   1.412  15.255  0.4565 -1.0816 -1.5076
15505TIP3   OH268005   5.221   1.077  15.826  0.3117 -0.3075 -0.3048
15505TIP3    H168006   5.211   0.982  15.827 -0.0270 -0.2700  0.4511
15505TIP3    H268007   5.202   1.105  15.916  1.2854  0.3937 -0.2976
15506TIP3   OH268008   2.776   0.901  17.026 -0.2630 -0.1403 -0.2432
15506TIP3    H168009   2.867   0.931  17.025  0.1036 -1.1103  1.1169
15506TIP3    H268010   2.783   0.805  17.033 -1.3113 -0.0888  3.6251
15507TIP3   OH268011   3.126   5.034   2.502 -0.0831  0.1183  0.0659
15507TIP3    H168012   3.033   5.041   2.526  0.1727 -0.8595  1.4614
15507TIP3    H268013   3.149   5.122   2.471 -1.0567  0.8611  1.3440
15508TIP3   OH268014   6.173   5.961   6.134  0.1642  0.0392 -0.2384
15508TIP3    H168015   6.231   5.902   6.181 -0.1220  0.2981  0.4592
15508TIP3    H268016   6.155   6.031   6.196  0.7926  1.0604 -1.1727
15509TIP3   OH268017   2.646   3.731   4.257  0.8449 -0.3088 -0.0252
15509TIP3    H168018   2.556   3.741   4.288  1.2941  0.0806  1.2102
15509TIP3    H268019   2.675   3.819   4.235  0.9113 -0.4376 -0.4624
15510TIP3   OH268020   4.120   0.203   2.315  0.1553 -0.3520  0.4543
15510TIP3    H168021   4.132   0.297   2.309 -2.5298  0.0649  0.0701
15510TIP3    H268022   4.172   0.177   2.391  1.9825  1.1899 -0.2080
15511TIP3   OH268023   0.075   5.625  12.623 -0.2837 -0.1860 -0.3227
15511TIP3    H168024   0.155   5.594  12.580  0.4206  2.2369 -0.8995
15511TIP3    H268025   0.063   5.714  12.590 -2.4870 -0.0013  0.8005
15512TIP3   OH268026   1.984   4.981  13.557  0.1494 -0.1784  0.2094
15512TIP3    H168027   1.915   5.038  13.591 -1.4037 -1.9049  0.0970
15512TIP3    H268028   2.021   4.940  13.635  0.0909 -0.3216  0.1607
15513TIP3   OH268029   6.459   0.729  16.941  0.4647 -0.4125 -0.7072
15513TIP3    H168030   6.365   0.738  16.950  0.4348 -1.1924 -0.1475
15513TIP3    H268031   6.488   0.694  17.025  1.3805  0.7372 -0.5170
15514TIP3   OH268032   0.039   2.993  13.025 -0.5612 -0.1088 -0.0469
15514TIP3    H168033   0.081   3.066  13.071 -0.1727 -0.6751  0.5063
15514TIP3    H268034  -0.046   3.028  12.998  0.4127  1.1969 -1.5941
15515TIP3   OH268035   6.003   6.127   2.881 -0.6481  0.5205 -0.6741
15515TIP3    H168036   6.045   6.184   2.817  0.2699  0.2005 -0.3701
15515TIP3    H268037   6.073   6.069   2.911 -1.6901 -1.2308 -1.4770
15516TIP3   OH268038   1.662   3.973  14.991 -0.4362 -0.3472  0.5247
15516TIP3    H168039   1.700   3.979  15.079  1.1325 -2.3140  0.0614
15516TIP3    H268040   1.715   4.032  14.937 -0.5282 -0.1670  0.6313
15517TIP3   OH268041   6.775   3.055   3.487  0.3758  0.1774  0.5297
15517TIP3    H168042   6.819   2.971   3.502  0.7882  0.2990  0.0239
15517TIP3    H268043   6.843   3.113   3.453 -0.2014  0.3083 -0.4479
15518TIP3   OH268044   1.533   3.468  11.660 -0.2166 -0.4301  0.0952
15518TIP3    H168045   1.451   3.434  11.625 -0.9125  0.8727  0.3902
15518TIP3    H268046   1.593   3.467  11.586 -0.9792  0.1053 -0.5444
15519TIP3   OH268047   6.681   3.857  11.230 -0.2503 -0.1285 -0.1768
15519TIP3    H168048   6.759   3.907  11.203 -0.8875  1.4943  0.8350
15519TIP3    H268049   6.651   3.814  11.150  0.7573  0.5204 -0.9299
15520TIP3   OH268050   3.194   0.170  16.693 -0.2565 -0.2987  0.7497
15520TIP3    H168051   3.212   0.250  16.742 -0.6002  0.5337 -0.4365
15520TIP3    H268052   3.248   0.177  16.615 -0.6445 -0.9938  0.4069
15521TIP3   OH268053   0.148   0.893   4.764 -0.3976  0.1187 -0.1587
15521TIP3    H168054   0.139   0.872   4.857 -0.5057 -0.2792 -0.2608
15521TIP3    H268055   0.108   0.820   4.718  3.0893 -1.6818 -0.6393
15522TIP3   OH268056   1.284   4.612  12.013  0.3674 -0.2298 -0.1581
15522TIP3    H168057   1.338   4.666  12.071 -0.0706 -0.1917  0.2102
15522TIP3    H268058   1.347   4.568  11.956  0.7850 -0.1266  0.2221
15523TIP3   OH268059   2.542   4.340  15.272 -0.1867  0.0614  0.3005
15523TIP3    H168060   2.450   4.365  15.264 -0.0341  0.5971  0.1690
15523TIP3    H268061   2.542   4.270  15.337 -0.9848 -1.6132 -1.4233
15524TIP3   OH268062   4.423   5.659   0.719 -0.4477 -0.0941  0.0986
15524TIP3    H168063   4.392   5.578   0.757  0.5735 -0.4640  0.1855
15524TIP3    H268064   4.375   5.667   0.636 -0.4133 -0.8845 -0.0003
15525TIP3   OH268065   0.581   4.150  16.600 -0.1199 -0.3328  0.6386
15525TIP3    H168066   0.590   4.245  16.591 -1.6037 -0.1988  0.4365
15525TIP3    H268067   0.628   4.114  16.525  0.1218  0.2497  0.5043
15526TIP3   OH268068   3.352   1.661   0.185 -0.0953 -0.7807  0.4362
15526TIP3    H168069   3.382   1.692   0.271 -1.8730 -0.2649  0.9213
15526TIP3    H268070   3.266   1.702   0.174 -0.8613 -2.5861 -0.6217
15527TIP3   OH268071   3.225   5.616  13.202 -0.2484  0.0767  0.2347
15527TIP3    H168072   3.150   5.627  13.144 -0.3862  0.6092  0.5031
15527TIP3    H268073   3.188   5.587  13.285  0.0516 -1.8547 -0.2538
15528TIP3   OH268074   0.564   1.406  12.714 -0.4139  0.6045 -0.2894
15528TIP3    H168075   0.478   1.447  12.706 -0.9513 -0.2039  1.0187
15528TIP3    H268076   0.569   1.377  12.805  1.0343  0.1625 -0.4768
15529TIP3   OH268077   2.559   1.564  11.930 -0.0823 -0.0602 -0.6003
15529TIP3    H168078   2.560   1.581  11.836 -0.4421 -0.5340 -0.6968
15529TIP3    H268079   2.478   1.515  11.944  0.5015 -0.9500 -0.2190
15530TIP3   OH268080   5.475   4.487   6.930  0.4309  0.5783  0.0776
15530TIP3    H168081   5.392   4.511   6.972  0.5815  2.0080 -0.4066
15530TIP3    H268082   5.497   4.562   6.875  2.0409  0.1981  0.1644
15531TIP3   OH268083   1.867   2.219  13.667  0.1737 -0.5563  0.1057
15531TIP3    H168084   1.866   2.178  13.581  1.2274  0.7099 -0.5432
15531TIP3    H268085   1.786   2.269  13.671  0.7763  0.5251 -0.7528
15532TIP3   OH268086   1.456   6.660  14.497  0.5976 -0.6299 -0.1091
15532TIP3    H168087   1.527   6.666  14.434  0.2446  0.3450 -0.4276
15532TIP3    H268088   1.500   6.654  14.582  1.0673 -0.5008 -0.3398
15533TIP3   OH268089   3.263   1.462   3.190 -0.8636 -0.8257 -0.1262
15533TIP3    H168090   3.265   1.536   3.250  1.5698 -0.2730 -0.7833
15533TIP3    H268091   3.231   1.499   3.108 -3.1873 -1.3565  0.4875
15534TIP3   OH268092   5.819   0.855   6.371 -0.2620  0.0872 -0.0974
15534TIP3    H168093   5.796   0.939   6.331 -1.4576  0.1227  0.5988
15534TIP3    H268094   5.904   0.833   6.334  0.2042  1.7387 -0.0917
15535TIP3   OH268095   3.959   3.181   3.201 -0.9017  0.0005 -0.4204
15535TIP3    H168096   3.908   3.107   3.235 -2.3414  1.2695  0.2977
15535TIP3    H268097   3.968   3.162   3.107 -0.3278 -1.5812 -0.0834
15536TIP3   OH268098   5.485   5.653  14.483 -0.1744 -0.2681 -0.5224
15536TIP3    H168099   5.489   5.743  14.452  0.3831 -0.5636 -1.3224
15536TIP3    H268100   5.450   5.660  14.572  0.3504  0.7752 -0.3861
15537TIP3   OH268101   1.138   2.556  13.536  0.0283 -0.3702  0.3162
15537TIP3    H168102   1.175   2.641  13.515  0.0154 -0.5561 -0.5031
15537TIP3    H268103   1.043   2.571  13.539  0.0869 -0.1494  1.1877
15538TIP3   OH268104   4.930   4.978  17.055 -0.6962 -0.6563  0.4319
15538TIP3    H168105   4.950   4.918  17.126  0.6985 -0.7077  0.0240
15538TIP3    H268106   4.938   4.926  16.975 -0.8012 -0.2557  0.1529
15539TIP3   OH268107   2.929   3.966   3.298 -0.6200  0.0278 -0.8378
15539TIP3    H168108   2.924   3.871   3.296  0.6354 -0.0572 -0.7742
15539TIP3    H268109   3.004   3.988   3.243  0.0009  0.8742  0.2966
15540TIP3   OH268110   0.643   5.647  12.963  0.2114  0.9666 -0.6528
15540TIP3    H168111   0.600   5.561  12.965 -1.9594  1.9932  0.0801
15540TIP3    H268112   0.728   5.630  12.921 -1.1315 -1.1007 -2.8061
15541TIP3   OH268113   2.691   2.617   3.413 -0.2038  0.0249  0.2671
15541TIP3    H168114   2.650   2.649   3.332  1.1029 -2.8440 -1.6960
15541TIP3    H268115   2.647   2.533   3.430  0.2036  0.1401  2.0371
15542TIP3   OH268116   0.311   0.842  15.603  0.6593 -0.5627  0.4963
15542TIP3    H168117   0.245   0.893  15.650 -0.5486 -0.2537 -1.4267
15542TIP3    H268118   0.368   0.907  15.563 -0.0023 -0.7149 -0.7402
15543TIP3   OH268119   4.611   6.700   5.891  0.2079 -0.3345  0.6328
15543TIP3    H168120   4.536   6.641   5.902 -0.2923  0.0539 -0.5705
15543TIP3    H268121   4.577   6.786   5.914  0.0299 -0.0252 -0.7028
15544TIP3   OH268122   2.198   4.987  13.905  0.5305 -0.4664  0.8778
15544TIP3    H168123   2.242   5.049  13.963  2.2688  1.1805 -1.9335
15544TIP3    H268124   2.268   4.954  13.847 -1.4321  0.6078 -2.4080
15545TIP3   OH268125   5.423   2.703   3.667 -0.1129 -0.0652 -0.3799
15545TIP3    H168126   5.334   2.728   3.690 -0.3046 -0.1302 -1.0194
15545TIP3    H268127   5.473   2.710   3.748 -0.1494  2.4149 -0.5207
15546TIP3   OH268128   4.424   1.927  15.302 -0.6691 -0.2799  0.6931
15546TIP3    H168129   4.487   1.949  15.371 -1.3738  3.2847  0.3916
15546TIP3    H268130   4.346   1.897  15.350 -1.1368  2.1088  1.6012
15547TIP3   OH268131   5.525   6.234  10.946 -0.1636  0.5885  0.3867
15547TIP3    H168132   5.522   6.306  10.883 -1.0850  1.2400  1.1482
15547TIP3    H268133   5.444   6.186  10.931  0.8603 -0.8685 -0.7397
15548TIP3   OH268134   2.474   1.948  13.980  0.4923 -0.0610 -0.3612
15548TIP3    H168135   2.466   2.042  13.999  0.1015 -0.1629 -0.0048
15548TIP3    H268136   2.561   1.939  13.940  1.2779  0.2133  1.1817
15549TIP3   OH268137   4.929   2.118   4.221 -0.1942  0.3371 -0.2900
15549TIP3    H168138   4.835   2.107   4.230 -0.2540  1.0447 -0.0085
15549TIP3    H268139   4.941   2.212   4.205  0.3931  0.1144 -1.2566
15550TIP3   OH268140   3.977   1.606  16.756  0.0249  0.1870  0.0601
15550TIP3    H168141   4.037   1.580  16.826  1.2885 -0.4912 -1.2239
15550TIP3    H268142   3.897   1.558  16.775  0.2060  0.3239  1.2559
15551TIP3   OH268143   5.911   6.430   5.081  0.5809  0.4918 -0.1239
15551TIP3    H168144   5.883   6.346   5.117 -0.9464  1.5415  1.2794
15551TIP3    H268145   5.926   6.413   4.988  0.7961 -1.4251  0.2231
15552TIP3   OH268146   4.716   3.870  11.200 -0.3533 -0.0490 -0.3963
15552TIP3    H168147   4.681   3.923  11.128 -1.6143 -0.4666 -0.1341
15552TIP3    H268148   4.659   3.793  11.202 -0.8834  0.3270  1.5567
15553TIP3   OH268149   4.802   3.575   2.825 -0.6349 -0.0480 -0.5442
15553TIP3    H168150   4.798   3.636   2.898  1.6791 -0.3054 -0.0965
15553TIP3    H268151   4.800   3.488   2.867 -0.6923 -0.2217 -0.9044
15554TIP3   OH268152   0.400   4.349  14.857  0.0498 -0.1403 -0.0594
15554TIP3    H168153   0.317   4.346  14.903  0.6069  2.0725  1.2540
15554TIP3    H268154   0.388   4.416  14.790  0.0727 -1.4917 -1.4702
15555TIP3   OH268155   0.565   5.691   4.764 -0.0610 -0.0741  0.5320
15555TIP3    H168156   0.567   5.614   4.707  3.1922 -0.7897  1.4041
15555TIP3    H268157   0.593   5.764   4.708 -2.3983  0.4205 -0.0980
15556TIP3   OH268158   1.091   0.338  15.919 -0.5028  0.1104  0.4317
15556TIP3    H168159   1.128   0.387  15.992 -0.2610 -2.2280  1.9824
15556TIP3    H268160   1.166   0.295  15.879 -1.0483 -1.9587  1.4929
15557TIP3   OH268161   6.066   1.477  12.842 -0.4168  0.0793  0.3351
15557TIP3    H168162   5.982   1.432  12.851  0.1289 -0.9281  0.5618
15557TIP3    H268163   6.043   1.567  12.818 -1.5113 -0.6318 -1.4833
15558TIP3   OH268164   2.720   0.138  14.662  0.6659 -0.1337  0.5133
15558TIP3    H168165   2.642   0.167  14.614  1.5019  0.1585 -0.7165
15558TIP3    H268166   2.740   0.051  14.626  2.4778  0.9181 -1.2230
15559TIP3   OH268167   5.113   2.639  11.548 -0.1413 -0.4106 -0.0977
15559TIP3    H168168   5.097   2.545  11.558 -3.6344  0.1974  1.6003
15559TIP3    H268169   5.131   2.670  11.637  0.6611  0.5787 -0.5938
15560TIP3   OH268170   6.536   2.592   5.764 -0.2544 -0.2588  0.3720
15560TIP3    H168171   6.581   2.676   5.767 -0.4838 -0.1569  2.8082
15560TIP3    H268172   6.594   2.535   5.713  0.6116  0.9554 -0.0428
15561TIP3   OH268173   0.393   2.979  17.003  0.3012 -0.4521 -0.2185
15561TIP3    H168174   0.364   3.015  17.087  1.1052  0.7345 -0.4202
15561TIP3    H268175   0.388   3.052  16.942  0.9560 -0.9588 -0.9090
15562TIP3   OH268176   0.574   1.997  10.507 -0.4799 -0.0078 -0.4644
15562TIP3    H168177   0.649   2.036  10.552 -0.4950  0.1105 -0.5413
15562TIP3    H268178   0.503   2.000  10.571 -0.4145 -0.1381 -0.3843
15563TIP3   OH268179   1.655   4.373  11.368 -0.7668 -0.4553  0.2384
15563TIP3    H168180   1.727   4.434  11.380 -1.5677  0.6562 -0.3920
15563TIP3    H268181   1.607   4.375  11.451  0.2231 -1.6528  0.8771
15564TIP3   OH268182   2.841   0.666   3.521  0.3776  0.0645  0.3257
15564TIP3    H168183   2.860   0.601   3.588 -0.6295  1.0995  1.6674
15564TIP3    H268184   2.926   0.703   3.498  1.0348 -1.9244 -0.7578
15565TIP3   OH268185   1.999   5.700  14.154 -0.0195 -0.1707 -0.1957
15565TIP3    H168186   2.040   5.787  14.156 -1.4893  0.5810 -0.9519
15565TIP3    H268187   1.945   5.701  14.075  0.5543 -2.0935 -0.6607
15566TIP3   OH268188   3.755   6.590  15.740 -0.0834 -0.8759  0.0712
15566TIP3    H168189   3.806   6.645  15.801  1.1026 -0.4636 -1.2429
15566TIP3    H268190   3.786   6.501  15.757  1.2152 -0.6179 -0.7973
15567TIP3   OH268191   0.457   2.182   1.168 -0.1667  0.0639 -0.2511
15567TIP3    H168192   0.470   2.255   1.107 -1.0353  0.5411  0.1260
15567TIP3    H268193   0.435   2.224   1.251  1.6198 -0.5585  0.5764
15568TIP3   OH268194   1.320   2.162  11.211  0.2042 -0.3904 -0.4948
15568TIP3    H168195   1.368   2.201  11.138  0.6677  0.7327  0.3568
15568TIP3    H268196   1.260   2.232  11.239  0.1604 -0.7320  0.2883
15569TIP3   OH268197   2.357   6.022   2.361 -0.2551  0.2035  0.2653
15569TIP3    H168198   2.305   6.069   2.427 -1.1118  0.6011 -0.6678
15569TIP3    H268199   2.292   5.977   2.307  0.5331 -2.1350  1.1370
15570TIP3   OH268200   0.542   0.668  15.363  0.0511 -0.4597 -0.1220
15570TIP3    H168201   0.581   0.584  15.386  0.9622 -0.0563 -0.1660
15570TIP3    H268202   0.448   0.649  15.353  0.2188 -1.4234  0.0604
15571TIP3   OH268203   5.113   5.887   0.644  0.7988  0.4934  0.5675
15571TIP3    H168204   5.180   5.826   0.613 -1.2274 -1.8768  0.4983
15571TIP3    H268205   5.067   5.839   0.713 -3.7929 -0.1476 -2.4376
15572TIP3   OH268206   0.731   0.646   6.164  0.5136  0.2686  0.3638
15572TIP3    H168207   0.766   0.587   6.231  3.5610  2.2585  0.7142
15572TIP3    H268208   0.760   0.608   6.081 -1.6825 -1.2063  0.2050
15573TIP3   OH268209   3.097   0.536  14.575 -0.3395 -0.3935  0.1645
15573TIP3    H168210   3.169   0.499  14.523  0.0228 -0.0970  0.4526
15573TIP3    H268211   3.059   0.603  14.518  0.3661  0.2675  0.4525
15574TIP3   OH268212   2.204   4.332  15.369 -0.5561  0.3579 -0.0290
15574TIP3    H168213   2.211   4.252  15.421 -1.6090  0.9591  1.0914
15574TIP3    H268214   2.179   4.399  15.432 -0.5960  1.3901 -1.1095
15575TIP3   OH268215   4.933   0.931  16.970  0.5304  0.2191 -0.2029
15575TIP3    H168216   4.849   0.912  17.012  0.6997 -1.0495 -0.3714
15575TIP3    H268217   4.929   1.024  16.948 -0.3302  0.4621  0.8900
15576TIP3   OH268218   2.058   2.297  12.500  0.1831  0.1716  0.5091
15576TIP3    H168219   2.097   2.380  12.474  0.5361 -0.2669 -0.3852
15576TIP3    H268220   1.968   2.300  12.466  0.4103 -0.0903 -0.1276
15577TIP3   OH268221   6.091   2.108  16.944 -0.0530 -0.3968 -0.4703
15577TIP3    H168222   6.168   2.152  16.908  0.1202 -1.6750 -1.7626
15577TIP3    H268223   6.125   2.024  16.976 -0.3919  0.2668  1.8176
15578TIP3   OH268224   3.961   2.108  11.379 -0.2449 -0.1567 -0.2592
15578TIP3    H168225   3.952   2.184  11.322  1.4933  1.0866  1.0256
15578TIP3    H268226   4.047   2.073  11.358 -0.8410 -1.5481 -0.5092
15579TIP3   OH268227   6.424   2.787  14.550  0.0803 -0.0085 -0.1250
15579TIP3    H168228   6.471   2.850  14.496  1.1114 -0.4670  0.2080
15579TIP3    H268229   6.333   2.793  14.520  0.2851  1.1129 -0.5757
15580TIP3   OH268230   5.158   2.566   4.112  0.4352 -0.0790  0.3444
15580TIP3    H168231   5.215   2.625   4.162 -0.5892  0.4329  0.9333
15580TIP3    H268232   5.217   2.523   4.050  1.6079 -0.1663  1.4683
15581TIP3   OH268233   2.392   5.726   1.602 -0.2880  0.2299 -0.2195
15581TIP3    H168234   2.441   5.760   1.527  1.5198 -1.3846  0.1659
15581TIP3    H268235   2.401   5.794   1.669 -1.5747  1.5041 -1.2463
15582TIP3   OH268236   3.373   2.615   4.386  0.0496 -0.1155 -0.2019
15582TIP3    H168237   3.286   2.595   4.352 -0.8219  2.7109  0.0818
15582TIP3    H268238   3.363   2.612   4.482  0.3346 -0.1419 -0.1726
15583TIP3   OH268239   5.643   5.236   5.660  0.4881 -0.1625 -1.0192
15583TIP3    H168240   5.597   5.302   5.713  2.3215 -0.1388  0.6443
15583TIP3    H268241   5.728   5.226   5.703  0.6198 -2.9662 -1.7641
15584TIP3   OH268242   6.102   2.335   5.529 -0.3900  0.2044  0.4024
15584TIP3    H168243   6.149   2.396   5.587 -0.3712  0.5193  0.0645
15584TIP3    H268244   6.172   2.287   5.484 -0.3955  0.3083  0.2810
15585TIP3   OH268245   0.951   2.684  14.453 -0.0192 -0.2402  0.0859
15585TIP3    H168246   0.886   2.626  14.414  1.3628 -3.3155  1.9481
15585TIP3    H268247   1.030   2.671  14.399 -0.0432  0.9902 -0.2680
15586TIP3   OH268248   1.059   0.642  14.273 -0.2386  0.1517  0.5853
15586TIP3    H168249   1.031   0.701  14.204  0.3100  1.4259  1.4187
15586TIP3    H268250   1.053   0.555  14.234 -2.1583  0.6322 -0.3012
15587TIP3   OH268251   5.861   5.348   2.713  0.1543 -0.1630  0.5005
15587TIP3    H168252   5.903   5.313   2.791 -0.7092  0.4464  1.2466
15587TIP3    H268253   5.867   5.443   2.721  0.1164 -0.0888 -0.2091
15588TIP3   OH268254   6.757   0.514   4.703  0.5679 -0.6927  0.4599
15588TIP3    H168255   6.745   0.604   4.672  2.6233 -0.3627  0.4398
15588TIP3    H268256   6.705   0.461   4.643 -0.2297  0.4273  0.1221
15589TIP3   OH268257   1.094   5.974  14.970  0.4459 -0.3855 -0.0877
15589TIP3    H168258   1.072   6.067  14.980 -0.3006 -0.6745  1.1326
15589TIP3    H268259   1.034   5.929  15.029  1.1450 -1.6059 -0.2885
15590TIP3   OH268260   6.409   1.833   5.707 -0.0749  0.1140  0.3136
15590TIP3    H168261   6.464   1.890   5.760  0.5165 -1.1061  1.0392
15590TIP3    H268262   6.351   1.790   5.771  0.9134 -1.6695  0.0584
15591TIP3   OH268263   5.866   1.116  14.208 -0.1824  0.2062  0.0094
15591TIP3    H168264   5.778   1.131  14.174  0.4537  2.9564 -0.5998
15591TIP3    H268265   5.910   1.066  14.138 -0.9840 -0.4826 -0.0223
15592TIP3   OH268266   0.691   0.958  11.562  0.0842 -0.1902 -0.7430
15592TIP3    H168267   0.723   0.936  11.475  2.8294 -0.7293  0.2766
15592TIP3    H268268   0.721   1.048  11.577 -1.0608  0.1903 -0.6156
15593TIP3   OH268269   5.101   1.170   5.685 -0.4651 -0.1273  0.7105
15593TIP3    H168270   5.147   1.252   5.700  0.0508 -0.0034 -1.2780
15593TIP3    H268271   5.157   1.103   5.726  0.6496  0.2041 -0.2345
15594TIP3   OH268272   6.353   6.171   1.605  0.3511  0.2001 -0.1193
15594TIP3    H168273   6.436   6.206   1.637  0.8441 -1.6003  0.6926
15594TIP3    H268274   6.377   6.090   1.561 -0.8309  0.4421 -1.2671
15595TIP3   OH268275   5.348   4.574   3.024  0.0727 -0.4068 -0.1634
15595TIP3    H168276   5.302   4.545   2.945 -0.0431  1.5558 -0.8648
15595TIP3    H268277   5.425   4.620   2.992 -1.2158  2.5843  0.6927
15596TIP3   OH268278   3.025   5.463  15.977 -0.7025  0.2769  1.0277
15596TIP3    H168279   3.104   5.435  16.024  0.4850 -0.4671 -1.2661
15596TIP3    H268280   2.995   5.540  16.024  2.1093  1.3020  1.3073
15597TIP3   OH268281   5.577   2.676   1.694  0.3697 -0.1295 -0.0025
15597TIP3    H168282   5.618   2.652   1.611 -0.3256  0.8400 -0.6458
15597TIP3    H268283   5.648   2.713   1.746  0.7724 -0.5709 -0.2317
15598TIP3   OH268284   3.328   0.069   5.907 -0.1827  0.2577 -0.4350
15598TIP3    H168285   3.257   0.007   5.896  0.1592 -0.0168 -1.2058
15598TIP3    H268286   3.345   0.102   5.818  1.4039 -0.5376 -0.4599
15599TIP3   OH268287   4.838   4.961   0.565  0.5999 -0.7044  0.0271
15599TIP3    H168288   4.798   4.930   0.646  2.7375  1.2623  1.9680
15599TIP3    H268289   4.851   4.881   0.513 -3.5156 -1.7133  0.1777
15600TIP3   OH268290   5.713   1.054  11.735 -0.6092  0.2943 -0.0700
15600TIP3    H168291   5.797   1.048  11.689  0.3991  0.3731  1.6736
15600TIP3    H268292   5.661   1.113  11.681  0.1674 -0.3592 -1.5889
15601TIP3   OH268293   2.409   2.454  13.827 -0.7396 -0.1246  0.2082
15601TIP3    H168294   2.481   2.484  13.771 -0.0362  2.1129  2.1454
15601TIP3    H268295   2.330   2.470  13.774  0.0425 -0.8525 -1.2341
15602TIP3   OH268296   6.477   2.437   0.488 -0.2609 -0.0649 -0.4849
15602TIP3    H168297   6.498   2.530   0.503 -0.2084 -0.3135  1.2401
15602TIP3    H268298   6.383   2.437   0.471  0.1645  0.5422 -3.2223
15603TIP3   OH268299   0.943   6.769  13.716  0.2761  0.3119 -0.2237
15603TIP3    H168300   0.963   6.717  13.794 -2.2973 -0.1256  0.2522
15603TIP3    H268301   1.023   6.766  13.664  1.0519 -2.0541  0.9462
15604TIP3   OH268302   6.366   1.422  15.310  0.5143  0.1507 -0.0486
15604TIP3    H168303   6.341   1.494  15.253  1.8726  1.0179  0.3969
15604TIP3    H268304   6.340   1.343  15.263 -0.2841  0.9055 -0.8983
15605TIP3   OH268305   4.476   0.993  16.192 -0.1055 -0.0140  0.0576
15605TIP3    H168306   4.497   0.909  16.235 -2.3260 -0.0025  1.3198
15605TIP3    H268307   4.420   0.969  16.118 -1.2784  0.3344  0.7949
15606TIP3   OH268308   1.978   6.323  11.939 -0.0493  0.1202 -0.0710
15606TIP3    H168309   2.067   6.327  11.903 -0.2430  1.2568 -0.4331
15606TIP3    H268310   1.922   6.304  11.864 -0.4024  2.0373 -0.3226
15607TIP3   OH268311   4.278   2.691  17.033 -0.0852 -1.3681 -0.1372
15607TIP3    H168312   4.307   2.690  17.124 -0.3438 -1.3775 -0.0546
15607TIP3    H268313   4.333   2.625  16.989  1.4409  0.0347 -0.4185
15608TIP3   OH268314   2.891   0.260   3.199  0.3851  0.4213  0.1174
15608TIP3    H168315   2.806   0.258   3.155  0.4301  0.0351  0.0405
15608TIP3    H268316   2.943   0.195   3.151  0.2316 -0.4953  1.1607
15609TIP3   OH268317   0.810   1.179   0.868 -0.5385 -0.3725 -0.5783
15609TIP3    H168318   0.860   1.142   0.941 -0.2056  2.8750  1.0330
15609TIP3    H268319   0.861   1.156   0.790  1.8711  0.2078  0.7105
15610TIP3   OH268320   3.055   3.592  14.522 -0.1479  0.2521  0.2175
15610TIP3    H168321   3.005   3.666  14.558 -0.5140 -0.5174  1.3281
15610TIP3    H268322   3.137   3.593  14.572  0.5661  0.9043 -0.9193
15611TIP3   OH268323   1.334   6.659  12.427  0.1566  0.3321 -0.0882
15611TIP3    H168324   1.413   6.624  12.386 -0.2454 -1.3022  0.4598
15611TIP3    H268325   1.282   6.692  12.354  0.6359 -0.0536 -0.6150
15612TIP3   OH268326   4.334   2.549   6.423 -0.5154  0.3521 -0.7129
15612TIP3    H168327   4.381   2.481   6.471  0.4960  1.1278 -0.5847
15612TIP3    H268328   4.242   2.525   6.432 -0.2231 -0.5272  0.0469
15613TIP3   OH268329   0.089   3.458  15.028  0.0840 -0.2018  0.0672
15613TIP3    H168330   0.114   3.479  14.938 -0.2792 -2.1059 -0.5184
15613TIP3    H268331  -0.004   3.479  15.033  0.1400  0.0542  0.0543
15614TIP3   OH268332   1.564   0.748  14.669  0.0885 -0.4960 -0.5426
15614TIP3    H168333   1.509   0.806  14.617  0.5884 -0.1713 -0.7130
15614TIP3    H268334   1.537   0.764  14.760 -1.3970 -1.6904 -0.7155
15615TIP3   OH268335   3.292   4.403   5.658 -0.1966  0.5058 -0.4541
15615TIP3    H168336   3.218   4.351   5.628  0.7660 -0.7671 -0.6762
15615TIP3    H268337   3.308   4.374   5.748  0.3579  0.3934 -0.5827
15616TIP3   OH268338   6.536   2.288  14.227  0.3944  0.2509 -0.6287
15616TIP3    H168339   6.474   2.347  14.183 -1.2190  0.4321  1.6611
15616TIP3    H268340   6.528   2.311  14.320  1.2678 -2.1886  0.1178
15617TIP3   OH268341   2.278   3.023   0.448  0.2935  0.3814  0.2739
15617TIP3    H168342   2.316   2.937   0.430  0.8471  0.8889 -1.1674
15617TIP3    H268343   2.198   3.025   0.396 -0.4953  0.2249  1.4337
15618TIP3   OH268344   3.134   3.098   3.665 -0.2469  0.4025 -0.2112
15618TIP3    H168345   3.157   3.131   3.579  0.8842  0.5407  0.1274
15618TIP3    H268346   3.173   3.160   3.726 -0.3437 -0.1269  0.4008
15619TIP3   OH268347   1.399   5.281   1.742 -0.2072 -0.1197  0.2394
15619TIP3    H168348   1.342   5.222   1.792 -0.6589  0.5116  0.4875
15619TIP3    H268349   1.376   5.266   1.651  1.2466 -1.9344  0.1037
15620TIP3   OH268350   1.946   0.502   1.519 -0.1329 -0.3142 -0.4789
15620TIP3    H168351   1.888   0.575   1.542  2.6866  2.2040 -0.7848
15620TIP3    H268352   1.981   0.526   1.433  2.3825 -0.9834  0.2959
15621TIP3   OH268353   5.536   4.374  14.761 -0.9582  0.1596  0.1600
15621TIP3    H168354   5.482   4.302  14.796 -1.2665  0.0850 -0.4598
15621TIP3    H268355   5.549   4.352  14.669 -0.1251  0.3431  0.2269
15622TIP3   OH268356   2.091   5.495  16.425  0.2769 -0.2060  0.0490
15622TIP3    H168357   2.104   5.416  16.372  1.4366  0.1815 -0.2683
15622TIP3    H268358   2.049   5.557  16.365 -0.2370 -0.4211  0.1747
15623TIP3   OH268359   0.309   4.994  16.445 -0.5335  0.2882  0.5412
15623TIP3    H168360   0.286   5.050  16.371  1.9003  1.8318  0.8352
15623TIP3    H268361   0.313   5.054  16.519  1.4526 -0.3473  1.0135
15624TIP3   OH268362   3.926   2.138  16.284 -0.0232 -0.8130 -0.1501
15624TIP3    H168363   3.970   2.189  16.352  1.1417 -0.1277 -1.3676
15624TIP3    H268364   3.967   2.051  16.289  1.6695 -0.1484 -1.3509
15625TIP3   OH268365   2.644   0.446  16.964 -0.3155 -0.5576  0.1877
15625TIP3    H168366   2.573   0.502  16.933  0.0529 -0.5196 -0.6086
15625TIP3    H268367   2.601   0.363  16.986 -0.8816  0.0718  1.5243
15626TIP3   OH268368   1.033   6.758   3.530 -0.0040 -0.2708 -0.1118
15626TIP3    H168369   1.116   6.799   3.506 -1.0312  1.0779 -1.5951
15626TIP3    H268370   1.034   6.673   3.486  0.5336 -0.2180 -0.2058
15627TIP3   OH268371   1.780   6.485   1.559  0.3931 -0.5212 -0.4151
15627TIP3    H168372   1.784   6.399   1.600  0.9781 -0.0829  0.4634
15627TIP3    H268373   1.691   6.491   1.525 -0.1588 -0.8552  0.9025
15628TIP3   OH268374   4.448   4.412  15.687  0.0074  0.9293  0.4841
15628TIP3    H168375   4.403   4.447  15.764 -0.5840 -0.0858  0.6177
15628TIP3    H268376   4.437   4.318  15.694  0.7097  0.7717 -0.3894
15629TIP3   OH268377   6.761   0.753  16.509  0.0908  0.1788  0.4065
15629TIP3    H168378   6.826   0.821  16.494 -0.1637  0.0727 -1.3985
15629TIP3    H268379   6.713   0.781  16.587  1.1874  1.0965  0.7733
15630TIP3   OH268380   3.475   2.353  10.781 -0.1604  0.4515 -0.2342
15630TIP3    H168381   3.474   2.318  10.692  1.7020  0.4820 -0.2926
15630TIP3    H268382   3.488   2.276  10.837 -2.9104  0.1910  0.2132
15631TIP3   OH268383   5.625   6.531   5.610  0.0385 -0.0043  0.0108
15631TIP3    H168384   5.558   6.582   5.564 -2.0479 -2.6265 -0.0963
15631TIP3    H268385   5.670   6.596   5.665 -3.4521  1.8082  1.0909
15632TIP3   OH268386   2.326   0.652  11.822 -0.1542 -0.0232 -0.5155
15632TIP3    H168387   2.357   0.736  11.855 -1.3744  0.9158 -1.6747
15632TIP3    H268388   2.377   0.637  11.743 -0.6648  0.1471 -0.8816
15633TIP3   OH268389   5.159   2.149   0.981 -0.4278 -0.0320  0.4198
15633TIP3    H168390   5.190   2.166   0.892 -2.5813 -1.6531 -0.7307
15633TIP3    H268391   5.150   2.054   0.986 -1.6453  0.1137  1.8933
15634TIP3   OH268392   1.320   5.475  14.904 -0.0510 -0.0224 -0.2339
15634TIP3    H168393   1.314   5.480  14.999 -0.1590  1.1874 -0.2832
15634TIP3    H268394   1.232   5.494  14.874 -0.0743 -0.6549 -0.5785
15635TIP3   OH268395   5.820   2.844  14.142 -0.0588 -0.3803 -0.1881
15635TIP3    H168396   5.894   2.787  14.123 -0.5618 -0.6128 -1.5093
15635TIP3    H268397   5.806   2.895  14.062  0.5912  1.8991  1.0450
15636TIP3   OH268398   3.131   1.280   3.988  0.3887 -0.4743 -0.1925
15636TIP3    H168399   3.218   1.309   3.962  0.0724 -0.5290 -1.4101
15636TIP3    H268400   3.073   1.351   3.962 -0.0099 -0.7610 -0.1054
15637TIP3   OH268401   3.005   5.457  10.768  0.1683  0.2354  0.4659
15637TIP3    H168402   2.961   5.529  10.723  0.9054  0.3850 -0.0455
15637TIP3    H268403   2.994   5.382  10.709  2.8551  0.8844 -1.0599
15638TIP3   OH268404   2.718   6.404  13.010  0.0726 -0.3555 -0.2836
15638TIP3    H168405   2.683   6.479  12.961  1.9660 -0.3671 -1.7643
15638TIP3    H268406   2.678   6.412  13.097  0.5532  2.6672 -0.2180
15639TIP3   OH268407   6.524   3.371   0.327  0.2350  0.2710 -0.0846
15639TIP3    H168408   6.484   3.303   0.381  1.8876 -3.5040 -3.1462
15639TIP3    H268409   6.455   3.399   0.267 -0.4919  1.6160  1.2818
15640TIP3   OH268410   1.004   1.088  11.750 -0.2113 -0.6317  0.7465
15640TIP3    H168411   1.075   1.029  11.724  1.3691  0.6561  1.9417
15640TIP3    H268412   1.049   1.168  11.778 -2.2484  0.8828 -0.1157
15641TIP3   OH268413   2.095   1.212  12.577  0.0455  0.4393  0.1103
15641TIP3    H168414   2.161   1.264  12.622 -0.3363  0.7684  0.2925
15641TIP3    H268415   2.066   1.147  12.641  1.4155 -0.8407 -0.4919
15642TIP3   OH268416   3.028   0.500   3.292 -0.5060  0.2650  0.3085
15642TIP3    H168417   2.981   0.434   3.241 -0.7951  0.7918 -0.1314
15642TIP3    H268418   2.974   0.513   3.370 -0.9938  0.7134 -0.0924
15643TIP3   OH268419   0.772   2.468  11.203 -0.4584 -0.0094 -0.0445
15643TIP3    H168420   0.845   2.529  11.189 -1.6405  1.1968 -1.1962
15643TIP3    H268421   0.699   2.506  11.154 -1.3670 -2.1419 -0.4364
15644TIP3   OH268422   5.015   1.696  16.780 -0.3691  0.2356  0.5859
15644TIP3    H168423   4.936   1.712  16.831 -1.5005 -0.5604 -0.8383
15644TIP3    H268424   5.083   1.746  16.825 -1.7988  1.4527  1.5064
15645TIP3   OH268425   1.059   3.490   6.152 -0.4759  0.5016  0.1670
15645TIP3    H168426   1.043   3.581   6.178 -2.4697  0.3922 -0.5379
15645TIP3    H268427   1.001   3.439   6.208  0.7336 -0.3946  0.6589
15646TIP3   OH268428   6.253   4.709  13.063  0.1657  0.0038  0.0261
15646TIP3    H168429   6.177   4.737  13.013  0.4178 -2.4587 -1.9395
15646TIP3    H268430   6.327   4.722  13.003  0.8385 -0.6897  0.6854
15647TIP3   OH268431   5.415   6.560  16.792 -0.4102  0.2457 -0.2706
15647TIP3    H168432   5.350   6.489  16.801  1.1502 -1.1592  0.3950
15647TIP3    H268433   5.449   6.550  16.703  0.7271 -0.7030  0.2464
15648TIP3   OH268434   4.478   0.353   1.545 -0.0114  0.3776  0.0096
15648TIP3    H168435   4.513   0.432   1.504  0.4878  0.1350 -0.0321
15648TIP3    H268436   4.432   0.308   1.474  0.0819  0.4097 -0.0719
15649TIP3   OH268437   3.491   0.556  12.325 -0.2983 -0.8810 -0.2996
15649TIP3    H168438   3.402   0.526  12.305 -0.4076 -0.7939  0.0333
15649TIP3    H268439   3.548   0.508  12.265 -0.3777 -2.4077  0.7860
15650TIP3   OH268440   1.342   3.037  11.680  0.1009 -0.2699  0.2771
15650TIP3    H168441   1.343   3.083  11.596  2.6301  0.3183  0.5507
15650TIP3    H268442   1.323   2.946  11.657 -0.3370  0.0816 -0.8112
15651TIP3   OH268443   0.215   0.906   1.318 -0.1696  0.0851  0.4563
15651TIP3    H168444   0.242   0.990   1.355  1.7419 -0.9075  1.4460
15651TIP3    H268445   0.124   0.919   1.292  0.2098  2.5896  0.1664
15652TIP3   OH268446   1.778   3.242  14.121 -0.0708  0.5551 -0.4695
15652TIP3    H168447   1.778   3.179  14.048  1.4956 -0.3026  0.2137
15652TIP3    H268448   1.825   3.196  14.192  0.4273  2.2014  0.3167
15653TIP3   OH268449   4.179   6.013  15.664 -0.3277 -0.6710 -0.5323
15653TIP3    H168450   4.158   6.014  15.757 -0.9550  1.0232 -0.6687
15653TIP3    H268451   4.149   6.097  15.631 -1.1776 -1.6834 -2.5145
15654TIP3   OH268452   1.814   2.525   5.672 -0.3476 -0.4916 -0.2663
15654TIP3    H168453   1.904   2.513   5.703 -1.1509  0.3298  2.7328
15654TIP3    H268454   1.764   2.455   5.714 -1.2571 -0.4608 -1.2498
15655TIP3   OH268455   1.198   4.131   3.875  0.0088  0.1866 -0.1522
15655TIP3    H168456   1.277   4.123   3.822  0.1369  0.1376  0.0425
15655TIP3    H268457   1.226   4.105   3.963  0.1935  1.7865  0.2882
15656TIP3   OH268458   6.733   5.798   1.880  0.6710 -0.0066 -0.2632
15656TIP3    H168459   6.738   5.823   1.972  2.0967 -2.3362  0.3843
15656TIP3    H268460   6.823   5.774   1.857  0.2804  0.2742 -2.1810
15657TIP3   OH268461   0.247   5.342   1.955 -0.4341  0.5262 -0.1974
15657TIP3    H168462   0.257   5.376   2.044  0.5213  1.4791 -0.6415
15657TIP3    H268463   0.238   5.247   1.966 -2.2956  0.7840  1.0264
15658TIP3   OH268464   6.027   6.642   3.514  0.4726 -0.7161 -0.8329
15658TIP3    H168465   6.118   6.667   3.533  0.2869 -1.5165  1.4972
15658TIP3    H268466   5.980   6.658   3.596 -1.7839  0.7084 -2.3014
15659TIP3   OH268467   2.993   1.625   3.387 -0.1787  0.4253  0.0458
15659TIP3    H168468   2.958   1.540   3.414 -1.1422  0.5761 -0.6970
15659TIP3    H268469   2.976   1.630   3.293 -2.6608  2.5536  0.4924
15660TIP3   OH268470   3.936   5.273   4.065  0.0519  0.1174 -0.2521
15660TIP3    H168471   3.928   5.190   4.111 -0.4517  0.8058  0.9459
15660TIP3    H268472   3.889   5.259   3.982 -3.1329  0.2049  1.3671
15661TIP3   OH268473   0.107   3.042  11.182 -0.0444  0.2030 -0.3349
15661TIP3    H168474   0.183   3.098  11.198  0.2525  0.1741 -1.5858
15661TIP3    H268475   0.121   3.007  11.094 -1.3963  0.0275 -0.4934
15662TIP3   OH268476   4.992   5.185   2.060  0.2592 -0.1036 -0.7696
15662TIP3    H168477   5.055   5.229   2.003 -1.0201  0.6196 -1.6729
15662TIP3    H268478   4.917   5.167   2.003 -0.6763 -0.2051  0.4602
15663TIP3   OH268479   2.291   2.253   0.790  0.1663  0.3646 -0.1724
15663TIP3    H168480   2.386   2.246   0.801  0.4511  0.8723 -2.0625
15663TIP3    H268481   2.273   2.347   0.795 -0.4776  0.1891  1.6585
15664TIP3   OH268482   5.025   1.091  13.752  0.1600 -0.0239 -0.4011
15664TIP3    H168483   5.072   1.034  13.690 -0.3997 -1.3217  0.3332
15664TIP3    H268484   5.002   1.034  13.825 -1.2100  0.9447 -0.0359
15665TIP3   OH268485   3.272   5.330  14.973  0.2908 -0.0621 -0.2190
15665TIP3    H168486   3.212   5.278  14.920  0.1076  1.6481 -1.8176
15665TIP3    H268487   3.356   5.323  14.927  0.1142  1.5063 -0.8691
15666TIP3   OH268488   6.004   2.158   5.229 -0.3960 -0.0374  0.0098
15666TIP3    H168489   5.925   2.192   5.271 -0.1672 -0.9756  1.2593
15666TIP3    H268490   6.039   2.094   5.291  1.2847  0.2627 -0.5711
15667TIP3   OH268491   4.342   4.311  13.810  0.3541 -0.0792  0.3947
15667TIP3    H168492   4.430   4.275  13.821  1.1615  1.7520  0.1610
15667TIP3    H268493   4.315   4.337  13.898 -0.6972 -2.1592  0.7578
15668TIP3   OH268494   2.737   2.673   4.089  0.2665 -0.0379  0.1300
15668TIP3    H168495   2.677   2.747   4.100  0.9188  0.4505  0.5098
15668TIP3    H268496   2.811   2.709   4.040  1.1575 -0.0886  1.3640
15669TIP3   OH268497   4.073   1.484   4.270 -0.0697  0.0461  0.1122
15669TIP3    H168498   4.108   1.547   4.207 -1.3468  0.6592 -0.0355
15669TIP3    H268499   4.053   1.406   4.217  2.5119 -0.9417  0.4799
15670TIP3   OH268500   1.568   1.459   6.645  0.1478  0.3428  0.0419
15670TIP3    H168501   1.478   1.489   6.650  0.3159  0.8298  0.1838
15670TIP3    H268502   1.605   1.506   6.569  0.0202 -0.5594 -0.5977
15671TIP3   OH268503   0.086   5.387   2.829 -0.5710  0.4163  0.1719
15671TIP3    H168504   0.001   5.429   2.839 -0.0352  0.9984  3.4526
15671TIP3    H268505   0.135   5.445   2.771 -2.0331  0.5762 -0.9883
15672TIP3   OH268506   5.651   1.137   1.820  0.7019  0.3996  0.1510
15672TIP3    H168507   5.576   1.175   1.867 -0.0042  0.2599 -0.8291
15672TIP3    H268508   5.720   1.202   1.828  0.1355  1.0118  0.1625
15673TIP3   OH268509   2.953   4.849   5.258 -0.4086  0.1081  0.0244
15673TIP3    H168510   3.029   4.818   5.308 -1.3508 -0.9476  0.8580
15673TIP3    H268511   2.931   4.932   5.298 -0.1259  0.0784  0.2489
15674TIP3   OH268512   4.819   5.506   4.947 -0.3907  0.6430 -0.0122
15674TIP3    H168513   4.728   5.479   4.960 -0.7716  0.2920 -2.7552
15674TIP3    H268514   4.812   5.591   4.905  0.4981  0.2837 -0.9230
15675TIP3   OH268515   1.346   5.879   3.622  0.2529 -0.3874 -0.6565
15675TIP3    H168516   1.282   5.948   3.605  2.1999  1.4976 -0.6269
15675TIP3    H268517   1.355   5.833   3.538 -1.4605 -1.0389 -0.5298
15676TIP3   OH268518   3.831   0.044   0.409 -0.4149 -0.3998 -0.4272
15676TIP3    H168519   3.815   0.014   0.499 -0.8872 -1.1205 -0.7476
15676TIP3    H268520   3.850   0.137   0.418  1.3608 -0.8036  0.6280
15677TIP3   OH268521   5.293   6.673   1.823  0.1936 -0.2591 -0.4223
15677TIP3    H168522   5.322   6.753   1.867 -0.4496 -0.2682  0.0383
15677TIP3    H268523   5.261   6.703   1.738 -1.4559  0.2124  0.3164
15678TIP3   OH268524   4.102   3.851   5.869 -0.2118  0.5053  0.7455
15678TIP3    H168525   4.185   3.879   5.908  0.4404  0.9221 -0.8522
15678TIP3    H268526   4.118   3.852   5.774 -1.6159 -0.7717  0.4394
15679TIP3   OH268527   0.974   2.912   6.684 -0.0392 -0.3652 -0.1037
15679TIP3    H168528   1.055   2.955   6.710  0.8696 -1.8241 -0.4464
15679TIP3    H268529   0.906   2.957   6.735  1.1078  0.0884  1.0796
15680TIP3   OH268530   1.385   2.120   0.534 -0.3298 -0.1926  0.2452
15680TIP3    H168531   1.445   2.087   0.600  1.5590 -0.3031 -1.4222
15680TIP3    H268532   1.342   2.041   0.499  0.6226 -0.4419 -0.4209
15681TIP3   OH268533   4.863   6.803  11.472 -0.3490  0.2945  0.7270
15681TIP3    H168534   4.878   6.897  11.477  1.0939  0.0490  1.4615
15681TIP3    H268535   4.846   6.776  11.562  1.2397 -0.4378  0.8318
15682TIP3   OH268536   6.692   2.843   1.025 -0.2520  0.0025 -0.6002
15682TIP3    H168537   6.695   2.763   0.972 -4.0160 -0.2756 -0.6472
15682TIP3    H268538   6.663   2.911   0.965 -0.9234  0.5006  0.2678
15683TIP3   OH268539   5.835   0.799   4.115  0.0885 -0.4530  0.3415
15683TIP3    H168540   5.888   0.781   4.193 -1.0592  1.7018  1.7123
15683TIP3    H268541   5.745   0.784   4.144 -0.3673  0.4995 -0.5343
15684TIP3   OH268542   5.051   5.148   5.516  0.2969  0.5325 -0.0992
15684TIP3    H168543   5.033   5.202   5.439  0.2946  0.1447 -0.3788
15684TIP3    H268544   4.991   5.073   5.506  1.1999 -0.1700 -0.4033
15685TIP3   OH268545   3.551   3.521   4.345  0.5889  0.5751  0.3923
15685TIP3    H168546   3.586   3.503   4.432 -0.5825 -0.7267  0.6292
15685TIP3    H268547   3.610   3.476   4.285 -0.2767 -1.1171  0.7484
15686TIP3   OH268548   3.816   0.047   5.829  0.4875  0.2640 -0.2711
15686TIP3    H168549   3.845   0.108   5.761  1.5717  1.1369  0.9149
15686TIP3    H268550   3.812  -0.038   5.785 -0.7701  1.1067 -1.8955
15687TIP3   OH268551   3.443   4.450   1.088  0.3315 -0.2232 -0.1409
15687TIP3    H168552   3.500   4.447   1.165  0.4240 -1.5295 -0.2389
15687TIP3    H268553   3.473   4.527   1.040  0.3098  0.5736  1.0841
15688TIP3   OH268554   6.427   3.222  10.923 -0.2582  0.4703  0.0161
15688TIP3    H168555   6.337   3.192  10.929 -0.6066  0.9804 -1.9089
15688TIP3    H268556   6.479   3.142  10.919 -0.3712  0.1321  3.0852
15689TIP3   OH268557   5.348   6.643  11.410  0.0888 -0.0389 -0.2618
15689TIP3    H168558   5.387   6.646  11.498 -0.6342 -1.4722  0.1401
15689TIP3    H268559   5.300   6.560  11.409 -1.3652  0.7956 -1.3980
15690TIP3   OH268560   0.847   3.310  16.799  0.1658  0.0929  0.1724
15690TIP3    H168561   0.924   3.260  16.828 -0.7999 -1.3025  0.4267
15690TIP3    H268562   0.884   3.392  16.765  1.8127 -0.7292 -0.1623
15691TIP3   OH268563   4.131   2.944  14.674 -0.4011  0.1414  0.4391
15691TIP3    H168564   4.209   2.980  14.717 -0.5115 -1.6396  2.2929
15691TIP3    H268565   4.104   2.872  14.730 -1.5458 -1.3373 -1.8509
15692TIP3   OH268566   3.680   4.914  15.334  0.1247  0.4713 -0.3960
15692TIP3    H168567   3.735   4.854  15.385  1.4603  1.1373 -0.9905
15692TIP3    H268568   3.743   4.967  15.284 -1.0958  0.6130 -1.8490
15693TIP3   OH268569   0.929   6.245  16.306 -0.1825 -0.5930 -0.5636
15693TIP3    H168570   0.933   6.331  16.347 -1.2183 -0.2249 -1.1997
15693TIP3    H268571   0.969   6.186  16.369 -0.1216  0.2463  0.1932
15694TIP3   OH268572   1.731   2.516  12.697 -0.0874 -0.0669  0.4794
15694TIP3    H168573   1.704   2.475  12.779 -0.1283 -1.5865 -0.2644
15694TIP3    H268574   1.665   2.487  12.633  0.2827  0.5967 -0.2127
15695TIP3   OH268575   1.546   2.537  15.769 -0.3852  0.0562 -0.7056
15695TIP3    H168576   1.587   2.533  15.683  0.6971 -0.1013 -0.2002
15695TIP3    H268577   1.619   2.549  15.830 -1.3205  2.4582  0.0295
15696TIP3   OH268578   1.045   5.522  14.856  0.3133  0.3416 -0.3355
15696TIP3    H168579   1.040   5.546  14.949  1.1017  0.8685 -0.4192
15696TIP3    H268580   1.011   5.432  14.853 -1.8165  1.0712  0.1236
15697TIP3   OH268581   1.260   5.665   3.788  0.2549  0.3691  0.0616
15697TIP3    H168582   1.265   5.743   3.732  1.2251  1.0324  1.0212
15697TIP3    H268583   1.328   5.607   3.754 -1.5606 -0.8352 -1.7110
15698TIP3   OH268584   2.011   3.300  11.813  0.0078 -0.3953 -0.4970
15698TIP3    H168585   2.040   3.391  11.811  0.1239 -0.3405  1.3029
15698TIP3    H268586   1.917   3.304  11.793  0.2536 -0.0303 -1.6097
15699TIP3   OH268587   2.784   0.240  11.565 -0.2758 -0.0056 -0.1328
15699TIP3    H168588   2.844   0.275  11.499  1.1556 -0.9132  0.6388
15699TIP3    H268589   2.771   0.149  11.540  0.1452 -0.3132  0.7084
15700TIP3   OH268590   4.179   5.738   6.170 -0.2556 -0.3546 -0.5069
15700TIP3    H168591   4.203   5.646   6.177 -1.6018 -0.6879  0.2079
15700TIP3    H268592   4.111   5.750   6.237  0.3782  1.3226 -0.1067
15701TIP3   OH268593   1.552   3.101   3.171 -0.4195  0.5272 -0.3625
15701TIP3    H168594   1.557   3.178   3.115 -3.6227  2.0576  1.2465
15701TIP3    H268595   1.481   3.049   3.134 -1.3361  0.6521  1.1250
15702TIP3   OH268596   3.398   2.692  13.790  1.1495 -0.0450  0.4987
15702TIP3    H168597   3.358   2.779  13.780  2.0222  0.1742 -1.4143
15702TIP3    H268598   3.336   2.632  13.748  2.7629  0.3209 -2.6621
15703TIP3   OH268599   5.086   0.072  12.984 -0.2189 -0.0770 -0.4446
15703TIP3    H168600   5.117   0.104  12.899 -0.4467  1.4944  0.0374
15703TIP3    H268601   4.991   0.071  12.976 -0.2276 -0.2672 -0.3201
15704TIP3   OH268602   1.303   2.062  13.689  0.2384  0.3424  0.7999
15704TIP3    H168603   1.250   2.030  13.762  0.9402 -1.1106  0.7055
15704TIP3    H268604   1.244   2.057  13.614  0.3871 -1.0572  0.7373
15705TIP3   OH268605   3.859   3.367   2.258 -0.0303 -0.2668 -0.2413
15705TIP3    H168606   3.853   3.275   2.282 -0.4714 -0.2495 -0.2799
15705TIP3    H268607   3.949   3.391   2.278 -0.4683 -0.1465  1.7520
15706TIP3   OH268608   6.617   2.657  12.709  0.7184 -0.2540 -0.0717
15706TIP3    H168609   6.555   2.684  12.777  0.5826 -1.6644  0.3781
15706TIP3    H268610   6.703   2.666  12.750  0.5641 -3.1779  1.1299
15707TIP3   OH268611   0.931   1.088  10.988  1.0300  0.3157 -0.4802
15707TIP3    H168612   1.005   1.140  10.958  1.6196 -0.4100 -0.3265
15707TIP3    H268613   0.938   1.006  10.940  0.0428  0.4050 -0.8118
15708TIP3   OH268614   5.331   1.453   0.544 -0.3333 -0.3757 -0.5815
15708TIP3    H168615   5.312   1.414   0.630  0.0949 -1.4040 -0.9347
15708TIP3    H268616   5.250   1.498   0.520 -0.2155  0.5474  0.6834
15709TIP3   OH268617   1.712   2.932  12.873  0.3281  0.3810  0.1022
15709TIP3    H168618   1.776   2.866  12.901 -0.0381 -0.5775 -1.2238
15709TIP3    H268619   1.734   3.009  12.925  2.1118 -0.1429  0.2042
15710TIP3   OH268620   0.460   6.328  13.611  0.8401  0.4493  0.5217
15710TIP3    H168621   0.511   6.398  13.652  1.0193  1.5781 -1.5022
15710TIP3    H268622   0.464   6.347  13.518 -2.1663 -0.1943  0.1649
15711TIP3   OH268623   5.740   0.167  10.916 -0.6278 -0.6276 -0.1490
15711TIP3    H168624   5.721   0.212  10.999  0.6050  0.4141 -0.3961
15711TIP3    H268625   5.702   0.225  10.850 -0.8949 -1.0444 -0.3596
15712TIP3   OH268626   6.603   6.536   5.858 -0.2960 -0.1575 -0.2399
15712TIP3    H168627   6.695   6.518   5.877  1.1735  4.5031 -1.5893
15712TIP3    H268628   6.596   6.525   5.763 -1.0647 -0.1566 -0.1864
15713TIP3   OH268629   4.898   3.310  11.678  0.0686  0.5369 -0.0517
15713TIP3    H168630   4.976   3.300  11.733 -0.7081  0.2894  1.0337
15713TIP3    H268631   4.832   3.347  11.736 -0.1724  2.3279 -1.3771
15714TIP3   OH268632   4.063   3.576   1.093 -0.3751  0.1214 -0.1306
15714TIP3    H168633   4.062   3.625   1.175 -2.2891  0.7695 -0.4796
15714TIP3    H268634   4.155   3.572   1.068  0.3769 -0.8801  2.4780
15715TIP3   OH268635   5.177   0.904   4.037 -0.2477 -0.4009  0.1335
15715TIP3    H168636   5.163   0.912   3.943  0.0915 -3.6369 -0.2980
15715TIP3    H268637   5.271   0.916   4.049 -0.1467 -0.9897 -0.0763
15716TIP3   OH268638   2.456   3.394  13.452 -0.2583 -0.5287 -0.0690
15716TIP3    H168639   2.530   3.368  13.398  2.8162  2.1540  2.4241
15716TIP3    H268640   2.487   3.387  13.542 -3.5265 -0.4649  1.2171
15717TIP3   OH268641   1.432   0.530   2.676  0.2832  0.1403 -0.1685
15717TIP3    H168642   1.379   0.453   2.656  0.1329  0.3763 -0.6835
15717TIP3    H268643   1.427   0.538   2.772  0.9209 -0.9248 -0.0358
15718TIP3   OH268644   1.888   4.470  10.793 -0.1674  0.0592 -0.0044
15718TIP3    H168645   1.801   4.443  10.763  0.2212 -1.1735 -0.1025
15718TIP3    H268646   1.942   4.471  10.714 -0.1867  1.2660 -0.0126
15719TIP3   OH268647   5.673   4.609   3.439 -0.3624 -0.4780 -0.1579
15719TIP3    H168648   5.737   4.555   3.485  0.4430  0.5337 -0.0449
15719TIP3    H268649   5.594   4.602   3.492  0.8546  1.6255  2.2181
15720TIP3   OH268650   4.477   6.363   5.482  0.1420 -0.1544  0.0181
15720TIP3    H168651   4.471   6.283   5.430 -1.2733 -0.5241  0.7039
15720TIP3    H268652   4.452   6.433   5.421 -0.0276 -0.4062 -0.2031
15721TIP3   OH268653   4.025   0.264  15.468 -0.1414  0.3392  0.5943
15721TIP3    H168654   4.074   0.329  15.418 -0.1783 -0.4054 -0.4322
15721TIP3    H268655   4.068   0.261  15.553  0.1267  1.3841  0.5133
15722TIP3   OH268656   4.615   3.811  13.915  0.0073  0.3302  0.1932
15722TIP3    H168657   4.622   3.826  14.009  1.7429 -1.9269  0.5143
15722TIP3    H268658   4.700   3.839  13.880 -0.4756  0.7699 -0.6720
15723TIP3   OH268659   0.299   4.691  12.676  0.0923 -0.1162  0.7436
15723TIP3    H168660   0.211   4.664  12.648  0.4574  0.9843 -1.7560
15723TIP3    H268661   0.339   4.611  12.710 -2.1416 -0.4418  2.8989
15724TIP3   OH268662   2.597   5.606  11.878  0.1347 -0.0098 -0.2078
15724TIP3    H168663   2.555   5.687  11.907  0.1973  1.0751 -2.8508
15724TIP3    H268664   2.688   5.614  11.906 -0.4507 -0.5341  2.0336
15725TIP3   OH268665   2.729   3.388  11.726  0.2901  0.0723  0.2044
15725TIP3    H168666   2.684   3.325  11.669 -0.8086  1.8794 -0.9994
15725TIP3    H268667   2.767   3.452  11.666 -3.0926  3.5592  1.3732
15726TIP3   OH268668   1.660   0.932   2.860  0.5034 -0.2206  0.3737
15726TIP3    H168669   1.629   0.967   2.776  0.9675 -0.1247  0.2431
15726TIP3    H268670   1.670   0.838   2.845 -0.3676 -0.3611  0.6120
15727TIP3   OH268671   5.450   4.202  15.626 -0.3739  0.5350 -0.2694
15727TIP3    H168672   5.478   4.146  15.554  1.3311  0.6588  0.2540
15727TIP3    H268673   5.527   4.255  15.647 -0.8701  0.6299  1.5165
15728TIP3   OH268674   3.937   0.809  15.231 -0.0329  0.1748 -0.2733
15728TIP3    H168675   3.892   0.725  15.233  1.8093 -0.8762 -0.6572
15728TIP3    H268676   3.885   0.866  15.289 -1.5680 -1.0675 -0.3802
15729TIP3   OH268677   3.980   5.696  12.035  0.1102 -0.7878 -0.0117
15729TIP3    H168678   4.038   5.770  12.054 -3.5870  2.8696 -1.3944
15729TIP3    H268679   3.966   5.699  11.941 -2.0806 -1.6317  0.2177
15730TIP3   OH268680   6.435   4.333   3.693  0.0553  0.1032 -0.3285
15730TIP3    H168681   6.493   4.338   3.617 -0.3123  1.4356 -0.5598
15730TIP3    H268682   6.379   4.258   3.676 -0.8090  1.0674 -1.9862
15731TIP3   OH268683   1.800   6.137   1.447 -0.0350  0.2899  0.1764
15731TIP3    H168684   1.864   6.206   1.428  0.3205 -0.1429 -0.2166
15731TIP3    H268685   1.740   6.177   1.509  1.4535  0.2625  1.7307
15732TIP3   OH268686   1.881   0.960  16.226  0.3627 -0.0946 -0.4689
15732TIP3    H168687   1.935   0.922  16.295 -1.2983 -0.4420  0.6850
15732TIP3    H268688   1.802   0.990  16.270  0.2031  1.7374 -1.8876
15733TIP3   OH268689   2.447   4.395   5.075 -0.3408  0.1520  0.1228
15733TIP3    H168690   2.364   4.351   5.061 -0.3567  0.0072  0.6341
15733TIP3    H268691   2.439   4.435   5.162  0.1635  0.0302  0.2325
15734TIP3   OH268692   3.786   0.019   2.378 -0.5385 -0.7704 -0.4096
15734TIP3    H168693   3.853  -0.049   2.366 -0.8072 -1.2159  0.5438
15734TIP3    H268694   3.718  -0.004   2.315  0.2716 -0.1882 -1.5508
15735TIP3   OH268695   0.627   6.352   6.660  0.1746  0.1694 -0.0689
15735TIP3    H168696   0.718   6.366   6.687  0.5750 -1.0397 -0.7281
15735TIP3    H268697   0.578   6.347   6.742  0.9174 -0.5557  0.3406
15736TIP3   OH268698   2.244   3.517   5.735  0.0631  0.7241  0.1926
15736TIP3    H168699   2.268   3.446   5.794 -2.8746 -1.6506 -1.1676
15736TIP3    H268700   2.243   3.477   5.648 -1.7087  2.3578 -0.6276
15737TIP3   OH268701   5.469   4.714  16.961 -0.2592 -0.1358  0.0667
15737TIP3    H168702   5.410   4.654  17.009 -2.0242  1.1606 -0.3836
15737TIP3    H268703   5.492   4.665  16.882 -0.0875 -0.9695  0.6109
15738TIP3   OH268704   6.484   5.028   2.544 -0.0317  0.3976 -0.8637
15738TIP3    H168705   6.524   4.947   2.576 -1.5862 -1.7714 -3.9446
15738TIP3    H268706   6.553   5.094   2.556  1.6192 -1.4875  0.9602
15739TIP3   OH268707   4.097   1.320  16.316  0.2843 -0.4464  0.1934
15739TIP3    H168708   4.186   1.296  16.343  0.9955  2.3894  0.7161
15739TIP3    H268709   4.041   1.254  16.355  1.8837 -0.3091  3.0044
15740TIP3   OH268710   2.659   0.583   3.837  0.5304 -0.1056  0.6233
15740TIP3    H168711   2.622   0.515   3.893  1.1565 -0.2027  0.9267
15740TIP3    H268712   2.594   0.653   3.838 -0.3666 -0.8939 -0.1073
15741TIP3   OH268713   3.635   3.832   3.389 -0.3787 -0.1198 -0.5939
15741TIP3    H168714   3.643   3.747   3.432 -1.3787 -0.1036 -0.3576
15741TIP3    H268715   3.697   3.888   3.435  1.6574 -1.1496 -1.9366
15742TIP3   OH268716   5.799   5.420  12.302  0.1841 -0.6174  1.0429
15742TIP3    H168717   5.860   5.352  12.274  0.3631 -1.1006  2.5131
15742TIP3    H268718   5.726   5.413  12.241  2.2206  1.0977 -1.8557
15743TIP3   OH268719   6.312   1.318   1.141 -0.0109  0.1411 -0.0828
15743TIP3    H168720   6.363   1.239   1.156  0.6579  0.4409 -0.6975
15743TIP3    H268721   6.341   1.349   1.055 -2.0499 -0.2965 -0.9793
15744TIP3   OH268722   4.467   4.530   3.262 -0.0088  0.3920  0.6375
15744TIP3    H168723   4.378   4.518   3.293 -0.4873  1.1487 -0.4095
15744TIP3    H268724   4.467   4.494   3.173  0.7324  0.3917  0.6257
15745TIP3   OH268725   1.977   1.308   3.911 -0.0755 -0.1197 -0.1041
15745TIP3    H168726   1.921   1.232   3.926 -1.5391  0.7637 -0.8975
15745TIP3    H268727   1.993   1.308   3.817  1.7579 -0.6424  0.1540
15746TIP3   OH268728   6.700   6.537   6.140  0.1550  0.5618  0.1204
15746TIP3    H168729   6.637   6.563   6.206 -1.6608  0.0025 -1.3055
15746TIP3    H268730   6.746   6.618   6.118  0.5714  0.8120  1.7701
15747TIP3   OH268731   4.356   5.181   4.134  0.3713  0.2018  0.0827
15747TIP3    H168732   4.387   5.129   4.060 -0.2952  1.8745 -1.4763
15747TIP3    H268733   4.436   5.207   4.180  0.9370  0.2735 -0.8989
15748TIP3   OH268734   6.296   5.890   3.451 -0.0463  0.3717 -1.0664
15748TIP3    H168735   6.391   5.897   3.440  0.3953 -2.5273  0.0867
15748TIP3    H268736   6.278   5.937   3.533  0.8069 -1.0432 -0.0260
15749TIP3   OH268737   0.692   2.193  11.611 -0.4420 -0.2288  0.1163
15749TIP3    H168738   0.769   2.250  11.610  1.4328 -2.5848  1.1989
15749TIP3    H268739   0.636   2.228  11.541  0.0993  3.4259  1.2874
15750TIP3   OH268740   2.590   0.437   4.744 -0.1300 -0.4153  0.0017
15750TIP3    H168741   2.561   0.525   4.720 -0.7552 -0.5525  0.2587
15750TIP3    H268742   2.511   0.391   4.772  0.0676 -1.2954 -0.8286
15751TIP3   OH268743   0.087   5.196   3.084 -0.6626  0.2365 -0.3586
15751TIP3    H168744   0.163   5.207   3.141 -0.9452  1.0592 -0.1101
15751TIP3    H268745   0.050   5.285   3.078 -0.3721  0.2566 -2.2180
15752TIP3   OH268746   3.775   6.658   5.571 -0.1041 -0.4711  0.4106
15752TIP3    H168747   3.690   6.647   5.528 -0.4949  2.8690  0.0541
15752TIP3    H268748   3.827   6.710   5.510  0.5566  1.4223  2.4655
15753TIP3   OH268749   2.415   5.938   0.953  0.3439  0.2137  0.0549
15753TIP3    H168750   2.509   5.942   0.971  0.0252  2.2484  1.5178
15753TIP3    H268751   2.405   5.980   0.867  0.9234 -1.9122 -1.1491
15754TIP3   OH268752   3.843   2.638   5.226 -0.7557  0.6803 -0.3289
15754TIP3    H168753   3.877   2.669   5.310 -1.7015  1.5941 -0.2569
15754TIP3    H268754   3.791   2.711   5.193 -2.9947 -0.7485 -0.2057
15755TIP3   OH268755   3.329   0.191   3.524 -0.2862  0.2192  0.6057
15755TIP3    H168756   3.378   0.136   3.462 -0.3513  0.4746  0.3258
15755TIP3    H268757   3.324   0.277   3.481 -2.4495 -0.2177 -0.1435
15756TIP3   OH268758   1.251   0.864   3.972  0.0584 -0.6849 -0.4676
15756TIP3    H168759   1.340   0.844   3.943 -0.2087  1.1975 -2.9281
15756TIP3    H268760   1.253   0.958   3.993 -1.3801 -0.5682 -0.7172
15757TIP3   OH268761   4.388   6.276  11.770 -0.2955  0.2761 -0.0612
15757TIP3    H168762   4.395   6.200  11.712  1.2477  0.3950 -0.0555
15757TIP3    H268763   4.380   6.351  11.711 -2.5925  0.1057 -0.0721
15758TIP3   OH268764   4.589   0.086   3.108  1.1171 -0.3506  0.5253
15758TIP3    H168765   4.638   0.087   3.025 -0.7185  0.8869 -0.6203
15758TIP3    H268766   4.561   0.177   3.120 -1.0048 -1.0284  1.0517
15759TIP3   OH268767   2.396   0.804  10.637 -0.1686 -0.4211  0.0918
15759TIP3    H168768   2.323   0.837  10.689 -0.8053 -0.6836 -0.6148
15759TIP3    H268769   2.377   0.711  10.625 -1.7378  0.1698 -3.2194
15760TIP3   OH268770   3.148   3.135  15.318  0.0735  0.5845 -0.1326
15760TIP3    H168771   3.085   3.084  15.266  2.6300 -1.3927 -1.5258
15760TIP3    H268772   3.209   3.070  15.352  2.0553  2.4732  0.1582
15761TIP3   OH268773   0.139   4.229  15.991  0.2342 -0.3144  0.1537
15761TIP3    H168774   0.086   4.293  15.943  1.0785 -1.4946 -2.5615
15761TIP3    H268775   0.080   4.196  16.059 -1.4863  0.5842 -0.8281
15762TIP3   OH268776   1.310   5.214  17.114  0.0926 -0.2528 -0.1313
15762TIP3    H168777   1.319   5.120  17.101  1.6452 -0.2910  0.8274
15762TIP3    H268778   1.275   5.247  17.032 -0.5722 -1.6669 -0.4491
15763TIP3   OH268779   0.554   5.348   5.633 -0.0784  0.3970 -0.6090
15763TIP3    H168780   0.494   5.377   5.564 -0.7759 -1.5176 -0.8816
15763TIP3    H268781   0.496   5.320   5.704  0.3603 -2.3818 -1.2326
15764TIP3   OH268782   4.224   3.719  13.205  0.0397 -0.0817 -0.0630
15764TIP3    H168783   4.290   3.656  13.236 -1.0193 -1.6641 -0.8460
15764TIP3    H268784   4.161   3.725  13.277  1.0144  1.4861  0.7142
15765TIP3   OH268785   0.141   4.969  10.973 -0.5828  0.6850  0.4747
15765TIP3    H168786   0.158   4.911  11.047 -0.3893  0.9828  0.6687
15765TIP3    H268787   0.047   4.985  10.976 -0.7520 -0.1884 -0.0104
15766TIP3   OH268788   3.519   3.527   5.452  0.0326 -0.0549 -0.7972
15766TIP3    H168789   3.503   3.548   5.544  0.3885  1.0181 -0.9633
15766TIP3    H268790   3.504   3.433   5.446 -1.5608  0.1150  0.0232
15767TIP3   OH268791   1.323   6.062   3.888 -0.0273  0.2198  0.3618
15767TIP3    H168792   1.340   5.971   3.912 -0.0254  0.1988  0.2783
15767TIP3    H268793   1.383   6.080   3.817 -1.2050 -0.2405 -0.7929
15768TIP3   OH268794   2.550   6.102   4.832 -0.2766  0.2658  0.3305
15768TIP3    H168795   2.495   6.035   4.791  2.1522 -1.8829  0.3509
15768TIP3    H268796   2.600   6.055   4.899  0.8821  2.2869  0.9679
15769TIP3   OH268797   2.993   4.709   1.899 -0.4833  0.2124 -0.8063
15769TIP3    H168798   3.084   4.707   1.927 -0.6504  0.2965 -0.2537
15769TIP3    H268799   2.943   4.687   1.977 -0.9297 -0.0425 -1.1568
15770TIP3   OH268800   6.512   5.634   5.555  0.5126 -0.0118 -0.0158
15770TIP3    H168801   6.447   5.694   5.592  1.0621 -0.1158  1.1588
15770TIP3    H268802   6.461   5.562   5.519 -0.2967  1.8588 -2.9633
15771TIP3   OH268803   1.157   3.642  12.065 -0.1694 -0.0477 -0.3038
15771TIP3    H168804   1.220   3.629  11.994 -1.0285 -0.7120 -0.9665
15771TIP3    H268805   1.147   3.555  12.104 -0.2331  0.1728  0.1690
15772TIP3   OH268806   5.012   0.509  14.182  0.1142  0.1981  0.1432
15772TIP3    H168807   5.073   0.547  14.246  1.1864 -0.2436 -0.5848
15772TIP3    H268808   4.933   0.489  14.233  0.5254  0.8890  1.0879
15773TIP3   OH268809   0.765   1.649   0.502  0.0994 -0.4316  0.1306
15773TIP3    H168810   0.690   1.606   0.543  0.6653 -1.2133  0.3761
15773TIP3    H268811   0.830   1.579   0.492  1.2969  0.4987  1.1448
15774TIP3   OH268812   3.420   5.461   3.224  0.8051 -0.4429 -0.2261
15774TIP3    H168813   3.462   5.506   3.150  1.2537 -0.2660  0.1268
15774TIP3    H268814   3.467   5.494   3.301  1.2237 -1.5942  0.0399
15775TIP3   OH268815   5.676   3.075   6.310 -0.0413  0.3281  0.8021
15775TIP3    H168816   5.685   3.136   6.238  1.0644  0.9285  1.4296
15775TIP3    H268817   5.765   3.051   6.333 -0.4335 -1.0749  0.9601
15776TIP3   OH268818   1.398   6.485   1.720 -0.0261 -0.3775 -0.2300
15776TIP3    H168819   1.482   6.461   1.759 -0.4056 -1.2568  0.0675
15776TIP3    H268820   1.407   6.578   1.699  1.7844 -0.9045 -2.1137
15777TIP3   OH268821   3.907   5.665  13.833 -0.1359 -0.3401 -0.5197
15777TIP3    H168822   3.887   5.667  13.740  0.5921 -2.9415 -0.8317
15777TIP3    H268823   3.877   5.749  13.867 -1.5435  0.1743 -2.8551
15778TIP3   OH268824   3.954   5.891   6.089 -0.8250  0.2774 -0.2011
15778TIP3    H168825   3.941   5.891   6.184  1.6958  1.8714  0.2500
15778TIP3    H268826   4.041   5.854   6.077  0.4268  3.2800 -1.4834
15779TIP3   OH268827   0.755   5.672   1.856  0.6862  0.2236 -0.0672
15779TIP3    H168828   0.827   5.711   1.905  0.1768  0.0229  0.8580
15779TIP3    H268829   0.693   5.643   1.923  0.8804 -1.8589 -0.7158
15780TIP3   OH268830   2.988   0.148  15.442 -0.2572  0.0267 -0.0540
15780TIP3    H168831   3.007   0.210  15.371  0.5386  0.4921  0.5415
15780TIP3    H268832   2.954   0.203  15.513  1.7592  0.0136  0.9830
15781TIP3   OH268833   4.493   1.806  15.039 -0.3521  0.2112  0.0981
15781TIP3    H168834   4.587   1.790  15.032 -0.2285  0.9844 -0.1436
15781TIP3    H268835   4.482   1.850  15.123 -0.6554 -0.8894  0.6524
15782TIP3   OH268836   1.855   5.171  15.953  0.2411 -1.0900  0.0901
15782TIP3    H168837   1.939   5.146  15.990  0.6172 -0.5537 -0.3755
15782TIP3    H268838   1.815   5.227  16.020 -0.0277 -1.8602  0.5774
15783TIP3   OH268839   0.241   1.784   1.935  0.2287  0.6814 -0.3454
15783TIP3    H168840   0.180   1.779   1.861  0.3484 -0.0158 -0.4026
15783TIP3    H268841   0.288   1.867   1.921 -0.9477  1.4208 -0.0953
15784TIP3   OH268842   2.144   1.879   5.431  0.1954  0.0178  0.5962
15784TIP3    H168843   2.062   1.898   5.477  0.5237  1.4073  0.6564
15784TIP3    H268844   2.124   1.893   5.339 -0.1720 -1.7071  0.3826
15785TIP3   OH268845   0.612   0.541  13.380  0.0469 -0.6349  0.1665
15785TIP3    H168846   0.686   0.602  13.389  0.0047 -0.8429  2.4584
15785TIP3    H268847   0.536   0.598  13.372  0.3158 -0.4173 -1.0171
15786TIP3   OH268848   0.134   1.023  11.506 -0.3283 -0.3066 -0.5910
15786TIP3    H168849   0.060   0.968  11.480 -0.8220 -0.1520  0.4474
15786TIP3    H268850   0.190   0.966  11.559 -0.3436 -0.0785 -0.3278
15787TIP3   OH268851   2.116   5.952  11.604 -0.1489 -0.0647  0.1711
15787TIP3    H168852   2.153   5.864  11.611 -0.5134 -0.2688 -0.4341
15787TIP3    H268853   2.091   5.960  11.513 -0.3550  0.5757  0.2849
15788TIP3   OH268854   3.726   5.527   1.398 -0.4044 -0.4173  0.3075
15788TIP3    H168855   3.680   5.490   1.474  0.4318 -0.8610  0.6029
15788TIP3    H268856   3.744   5.452   1.342  1.0547 -0.4438  0.7783
15789TIP3   OH268857   2.656   3.282  15.153 -0.0511 -0.3403  0.1078
15789TIP3    H168858   2.619   3.358  15.108 -1.3595 -0.3121  1.1472
15789TIP3    H268859   2.579   3.234  15.185  0.7135 -2.6332 -1.3301
15790TIP3   OH268860   3.588   4.162  11.687 -0.1261 -0.1749 -0.1034
15790TIP3    H168861   3.671   4.198  11.658 -0.6086 -0.5634 -2.1278
15790TIP3    H268862   3.555   4.224  11.751  0.7258  1.1074 -0.8707
15791TIP3   OH268863   1.188   3.291   6.342 -0.2889 -0.0262 -0.3203
15791TIP3    H168864   1.125   3.334   6.401  1.1427  1.0270  0.5089
15791TIP3    H268865   1.265   3.348   6.343  0.4861 -0.9736 -1.7617
15792TIP3   OH268866   4.769   6.600  17.040 -0.4068  0.0909  0.2289
15792TIP3    H168867   4.822   6.634  17.112  1.0520 -1.4702 -0.0303
15792TIP3    H268868   4.727   6.677  17.002  1.0996  1.3122  0.9409
15793TIP3   OH268869   5.165   5.991   3.421  0.4359 -0.0040 -0.0632
15793TIP3    H168870   5.257   6.004   3.444 -0.0761  1.1646  1.4967
15793TIP3    H268871   5.128   6.079   3.418 -0.0436 -0.1808 -3.6638
15794TIP3   OH268872   1.934   3.245   5.899  0.3107 -0.0928  0.0986
15794TIP3    H168873   1.889   3.313   5.949 -0.5284 -0.4286 -0.1904
15794TIP3    H268874   2.007   3.218   5.955  1.1456  1.5988 -0.1162
15795TIP3   OH268875   4.696   1.088   5.305  0.0819  0.1731 -0.2402
15795TIP3    H168876   4.611   1.074   5.263 -0.3796 -0.2408  0.8027
15795TIP3    H268877   4.742   1.148   5.246 -0.5152 -0.4396 -1.3575
15796TIP3   OH268878   4.434   1.302  17.181  0.3111 -0.5533 -0.1396
15796TIP3    H168879   4.346   1.332  17.203  0.3672 -0.9164  0.6039
15796TIP3    H268880   4.483   1.309  17.263  1.1403  0.1897 -0.6728
15797TIP3   OH268881   1.856   6.520   5.598  0.1277 -0.2719 -0.5276
15797TIP3    H168882   1.937   6.545   5.642 -0.0866  1.3731 -0.9817
15797TIP3    H268883   1.873   6.536   5.505 -0.5930 -0.2559 -0.6661
15798TIP3   OH268884   2.907   2.328   3.658  0.2462 -0.4056  0.4951
15798TIP3    H168885   2.832   2.314   3.716  0.8234  0.3859  1.4540
15798TIP3    H268886   2.963   2.251   3.672  0.0083 -0.5971  0.3962
15799TIP3   OH268887   2.914   6.399  12.315 -0.6575 -0.0113  0.3792
15799TIP3    H168888   2.943   6.308  12.309 -0.0759  0.1591  0.5591
15799TIP3    H268889   2.986   6.444  12.358  0.8913  1.3352 -3.2457
15800TIP3   OH268890   5.484   1.594  11.287  0.9284  0.3119 -0.6311
15800TIP3    H168891   5.529   1.515  11.254  0.9203 -1.1850  2.5487
15800TIP3    H268892   5.554   1.647  11.325  0.5275 -0.0141  0.6037
15801TIP3   OH268893   4.051   6.559   4.304  0.0675  0.0336  0.3338
15801TIP3    H168894   4.016   6.625   4.364  0.2025  1.9950 -1.6260
15801TIP3    H268895   3.976   6.501   4.285 -0.1833 -0.1205  1.6728
15802TIP3   OH268896   4.573   2.170  11.551  0.1972  0.2635  0.0001
15802TIP3    H168897   4.615   2.255  11.564  0.1494  0.2038  0.5882
15802TIP3    H268898   4.538   2.174  11.462  2.1354  0.0056 -0.8227
15803TIP3   OH268899   2.808   0.687  15.076  0.2836 -0.2968  0.4054
15803TIP3    H168900   2.728   0.692  15.024  0.9417 -1.3887 -0.7638
15803TIP3    H268901   2.877   0.715  15.016  1.2847 -3.1981  0.0643
15804TIP3   OH268902   0.864   1.897   0.388  0.5761  0.3412 -0.1797
15804TIP3    H168903   0.903   1.882   0.302 -0.3786 -1.3959 -0.3564
15804TIP3    H268904   0.832   1.811   0.416  0.1994  0.9957  1.5939
15805TIP3   OH268905   6.352   2.774  16.767  0.3571  0.1280  0.1200
15805TIP3    H168906   6.415   2.736  16.828  0.2864  0.6324  0.5104
15805TIP3    H268907   6.267   2.762  16.810  0.4450  1.8174  0.8269
15806TIP3   OH268908   0.512   5.900  17.173 -1.1746  0.0968  0.0315
15806TIP3    H168909   0.431   5.948  17.159 -1.7673 -0.2571  1.9793
15806TIP3    H268910   0.534   5.915  17.265  0.4420 -0.6231 -0.1899
15807TIP3   OH268911   0.428   0.342   1.964  0.3643  0.0920  0.2562
15807TIP3    H168912   0.384   0.283   2.024  0.0764  1.3285  1.3107
15807TIP3    H268913   0.363   0.360   1.896 -0.7552  1.6710  1.6452
15808TIP3   OH268914   0.033   1.763  14.961 -0.6166  0.3790 -0.0365
15808TIP3    H168915   0.087   1.839  14.983  1.4307 -0.7883 -0.7467
15808TIP3    H268916  -0.009   1.738  15.044 -1.1119  2.0740  0.2570
15809TIP3   OH268917   3.858   2.815  15.169  0.0355  0.4216  0.0128
15809TIP3    H168918   3.816   2.732  15.190 -1.6916  0.9466 -1.1089
15809TIP3    H268919   3.785   2.872  15.142  1.2971  1.9477 -0.3068
15810TIP3   OH268920   2.764   1.535  15.310  0.0925 -0.5950  0.0300
15810TIP3    H168921   2.747   1.613  15.257  0.4292 -0.7805 -0.3546
15810TIP3    H268922   2.679   1.512  15.348 -0.2358 -0.6988 -0.7568
15811TIP3   OH268923   0.689   0.969   1.608 -0.0493  0.1451 -0.2760
15811TIP3    H168924   0.636   0.931   1.538  0.8176 -2.7660  0.5091
15811TIP3    H268925   0.627   0.982   1.680 -0.4114  0.3918 -0.6331
15812TIP3   OH268926   5.950   1.816   3.406  0.2105  0.7598  0.3219
15812TIP3    H168927   5.909   1.741   3.448  0.1911  0.5594 -0.0508
15812TIP3    H268928   5.889   1.841   3.336 -0.3046  1.7959  1.1268
15813TIP3   OH268929   4.427   0.180  17.286  0.1009 -0.2376 -0.3447
15813TIP3    H168930   4.344   0.223  17.266  0.2170 -0.5984 -1.6955
15813TIP3    H268931   4.402   0.100  17.332 -0.6592 -2.3604 -4.0750
15814TIP3   OH268932   1.263   2.763  13.413  0.3679 -0.4083 -0.3073
15814TIP3    H168933   1.250   2.845  13.365 -4.0079 -0.2683  0.7593
15814TIP3    H268934   1.270   2.696  13.345 -0.3736  0.3651 -1.1680
15815TIP3   OH268935   4.595   2.437  17.196  0.3635  0.2227 -0.4498
15815TIP3    H168936   4.526   2.461  17.133 -0.6443  0.8910  0.8644
15815TIP3    H268937   4.547   2.402  17.271  1.5135  0.0195  0.2020
15816TIP3   OH268938   4.242   6.535   6.782  0.3557 -0.8686  0.1761
15816TIP3    H168939   4.314   6.522   6.721  1.6511 -2.0613  1.8437
15816TIP3    H268940   4.283   6.531   6.869 -1.4527  0.3389  1.1639
15817TIP3   OH268941   4.685   1.729   1.258  0.4200 -0.1758  0.0850
15817TIP3    H168942   4.740   1.788   1.309  0.9398  1.1800 -1.9375
15817TIP3    H268943   4.740   1.701   1.184 -1.2014  0.3505 -1.3981
15818TIP3   OH268944   6.019   4.136  15.247  0.2013 -0.4053  0.0528
15818TIP3    H168945   5.969   4.214  15.272 -0.4137 -1.2061  1.4048
15818TIP3    H268946   6.111   4.160  15.262  0.2215  0.7858 -1.6444
15819TIP3   OH268947   6.631   3.073   4.482 -0.2281 -0.4232 -0.2365
15819TIP3    H168948   6.594   3.121   4.557 -0.0899 -2.1062  0.9721
15819TIP3    H268949   6.594   2.985   4.490  1.4554 -1.2234 -0.9116
15820TIP3   OH268950   2.692   1.854  16.983 -0.3135 -0.0831  0.1776
15820TIP3    H168951   2.742   1.933  17.005  0.8602 -0.6611 -0.3490
15820TIP3    H268952   2.746   1.782  17.014 -0.9459 -0.7209 -0.1735
15821TIP3   OH268953   2.318   4.905   1.900  0.3503  0.2391  0.3348
15821TIP3    H168954   2.351   4.823   1.862  0.8057  0.1223  0.9802
15821TIP3    H268955   2.336   4.898   1.993 -2.7611 -0.4323  0.9916
15822TIP3   OH268956   5.784   0.618  11.705  0.0433  0.2278 -0.1808
15822TIP3    H168957   5.720   0.666  11.652  0.0068 -0.6062 -0.9338
15822TIP3    H268958   5.854   0.680  11.721 -0.0532  0.5758 -1.0420
15823TIP3   OH268959   3.684   4.233   6.885  0.0192  0.0756 -0.2338
15823TIP3    H168960   3.644   4.146   6.882 -1.6608  0.7927 -3.1428
15823TIP3    H268961   3.758   4.227   6.824  0.6818  0.3480  0.5368
15824TIP3   OH268962   1.537   0.791  16.055 -0.2882 -0.2889 -0.3625
15824TIP3    H168963   1.559   0.726  16.121 -0.3246 -1.0622 -1.0903
15824TIP3    H268964   1.447   0.817  16.075 -0.1500 -0.1960  0.1418
15825TIP3   OH268965   5.242   5.698   4.330  0.3991  0.2839 -0.0325
15825TIP3    H168966   5.279   5.737   4.251 -0.5842 -0.0672 -0.6723
15825TIP3    H268967   5.208   5.773   4.380  1.4579  0.5578  0.3175
15826TIP3   OH268968   0.204   4.067   1.854  0.9016  0.6655  0.0851
15826TIP3    H168969   0.220   4.118   1.774  0.0580  1.2864  0.3043
15826TIP3    H268970   0.273   4.095   1.914  0.7965  1.1080  0.0014
15827TIP3   OH268971   6.009   5.303   4.375 -0.3589 -0.5402  0.5212
15827TIP3    H168972   5.944   5.372   4.387 -0.3641 -0.7964  2.3365
15827TIP3    H268973   5.959   5.222   4.387  0.1442 -0.7582  1.1736
15828TIP3   OH268974   1.235   2.818  12.126  0.4245 -0.4490 -0.5287
15828TIP3    H168975   1.148   2.789  12.152  0.4681 -1.3118 -1.2822
15828TIP3    H268976   1.223   2.907  12.094 -0.2239 -0.6478 -0.8494
15829TIP3   OH268977   3.352   3.652   2.067 -0.2079 -0.0283  0.2659
15829TIP3    H168978   3.398   3.628   2.147 -0.3881 -0.5575  0.2140
15829TIP3    H268979   3.286   3.584   2.055  1.5106 -1.4753 -1.7511
15830TIP3   OH268980   5.808   4.203   3.135  0.0894  0.2476 -0.0879
15830TIP3    H168981   5.859   4.173   3.060 -1.5090  1.3366 -1.7075
15830TIP3    H268982   5.719   4.174   3.116 -0.5120  1.3314  0.9574
15831TIP3   OH268983   6.352   2.129   0.751  0.1151  0.5379 -0.3497
15831TIP3    H168984   6.362   2.090   0.664  1.1506  0.8362 -0.3837
15831TIP3    H268985   6.332   2.221   0.733 -0.5992  0.4054 -0.2653
15832TIP3   OH268986   4.749   0.400   0.215  0.3010 -0.0976 -0.0463
15832TIP3    H168987   4.813   0.329   0.205 -0.2982 -0.9461  1.6555
15832TIP3    H268988   4.729   0.427   0.126  2.1068 -0.6479 -0.6625
15833TIP3   OH268989   0.346   4.599  13.471 -0.9398  0.5567  0.3018
15833TIP3    H168990   0.434   4.636  13.473 -0.2180 -0.9099 -1.5478
15833TIP3    H268991   0.340   4.546  13.550  0.6905 -1.0303 -0.5630
15834TIP3   OH268992   5.234   6.069   5.456 -0.0089 -0.1654 -0.2090
15834TIP3    H168993   5.306   6.060   5.519  0.3302 -0.5710 -0.6506
15834TIP3    H268994   5.241   6.159   5.424  0.0341 -0.0689  0.0662
15835TIP3   OH268995   3.480   2.141  14.838  0.0158 -0.1272  0.3238
15835TIP3    H168996   3.501   2.207  14.903 -0.2434  1.9586 -1.5774
15835TIP3    H268997   3.496   2.184  14.754  2.5073 -3.3801 -1.0729
15836TIP3   OH268998   3.200   0.950   4.050 -0.3362  0.6891 -0.2177
15836TIP3    H168999   3.250   0.989   4.122  0.9165  0.4007 -0.9108
15836TIP3    H269000   3.128   0.905   4.094  0.7733 -0.0647  0.9346
15837TIP3   OH269001   5.853   0.646   1.491  0.6006 -0.0025  0.1605
15837TIP3    H169002   5.758   0.652   1.478  0.6489 -1.4577 -1.0829
15837TIP3    H269003   5.863   0.617   1.582 -0.2193 -1.4766 -0.1992
15838TIP3   OH269004   5.512   4.510  13.349 -0.4616 -0.3152 -0.4128
15838TIP3    H169005   5.553   4.426  13.327  0.7264  0.2223 -0.2832
15838TIP3    H269006   5.567   4.547  13.418 -1.3019  0.3218 -0.0654
15839TIP3   OH269007   3.740   3.028  14.580  0.5490 -0.3815 -1.0195
15839TIP3    H169008   3.776   2.979  14.654  0.3527 -1.9150 -1.9082
15839TIP3    H269009   3.646   3.035  14.600  0.5913 -0.2667 -0.8521
15840TIP3   OH269010   1.746   2.299   3.207 -1.1430 -0.9207  0.6586
15840TIP3    H169011   1.806   2.370   3.186 -3.1009  0.7043  0.1471
15840TIP3    H269012   1.740   2.301   3.303 -1.8494  0.2602  0.6158
15841TIP3   OH269013   1.334   2.702  12.644 -0.7105  0.2310 -0.3741
15841TIP3    H169014   1.383   2.657  12.576 -1.0631  0.8140 -1.0181
15841TIP3    H269015   1.401   2.748  12.695 -0.3457 -0.9939  0.2993
15842TIP3   OH269016   1.742   1.241  17.128 -0.2362  0.1825 -0.1588
15842TIP3    H169017   1.666   1.298  17.115  0.8241  1.8607  0.6562
15842TIP3    H269018   1.809   1.277  17.070  0.1243 -0.9317 -0.4461
15843TIP3   OH269019   4.040   3.904  17.182  0.1478 -0.3556 -0.4399
15843TIP3    H169020   3.954   3.872  17.212  1.1884 -1.5381  1.5193
15843TIP3    H269021   4.057   3.979  17.238  0.6918 -0.5802 -0.2977
15844TIP3   OH269022   5.317   5.408  12.180 -0.1806  0.0304  0.4203
15844TIP3    H169023   5.374   5.332  12.186 -2.3433 -1.7788 -0.5485
15844TIP3    H269024   5.319   5.447  12.268  1.6238 -0.6157  0.6930
15845TIP3   OH269025   3.154   5.273  13.099 -0.2339 -0.1442 -0.0135
15845TIP3    H169026   3.083   5.334  13.123  0.4854 -0.1192  2.2993
15845TIP3    H269027   3.136   5.194  13.150 -0.1704 -1.2361 -1.6349
15846TIP3   OH269028   1.350   0.946  13.744 -0.1121 -0.3603  0.3013
15846TIP3    H169029   1.404   0.982  13.814 -0.2059 -0.9497  0.6917
15846TIP3    H269030   1.336   1.019  13.684  2.4214 -0.5467 -0.6479
15847TIP3   OH269031   6.716   3.980  11.725  0.1249 -0.4429 -0.9300
15847TIP3    H169032   6.780   3.970  11.654 -0.0628 -0.0372 -1.1589
15847TIP3    H269033   6.631   3.972  11.682  0.0071 -0.0570 -0.7792
15848TIP3   OH269034   2.974   0.373  11.701  0.4505 -0.3808 -0.3862
15848TIP3    H169035   2.948   0.374  11.793 -1.1306  0.1094 -0.7999
15848TIP3    H269036   2.912   0.312  11.659  1.7517 -1.3518 -0.9802
15849TIP3   OH269037   1.106   5.675   1.374 -0.4811  0.3516 -0.8343
15849TIP3    H169038   1.127   5.647   1.285 -1.6269  1.1540 -1.3866
15849TIP3    H269039   1.011   5.668   1.380 -0.6887  2.5966 -0.5219
15850TIP3   OH269040   6.110   3.340  16.423 -0.4101  0.3522 -0.3542
15850TIP3    H169041   6.079   3.411  16.479 -2.4615 -0.3624 -0.5021
15850TIP3    H269042   6.126   3.381  16.338  0.6943  1.0522  0.1827
15851TIP3   OH269043   3.219   5.854  16.974  0.0533  0.1647 -0.2164
15851TIP3    H169044   3.132   5.881  17.004 -0.1017  0.7274 -1.1504
15851TIP3    H269045   3.279   5.920  17.010  0.4365 -1.3810  2.2813
15852TIP3   OH269046   6.737   3.479  15.990 -0.3594  0.1740 -0.5160
15852TIP3    H169047   6.687   3.553  16.022 -0.7949 -0.0833 -0.5996
15852TIP3    H269048   6.806   3.466  16.055 -1.3431 -0.4697  0.4318
15853TIP3   OH269049   4.863   5.004  12.887 -0.5308  0.6482 -0.7051
15853TIP3    H169050   4.867   4.964  12.801 -0.3411 -0.6732 -0.0965
15853TIP3    H269051   4.791   4.959  12.932  0.5797  0.0046  0.4717
15854TIP3   OH269052   5.759   1.753  14.989  0.2033 -0.1915  0.8818
15854TIP3    H169053   5.785   1.843  14.967 -1.1003 -0.0777 -0.3188
15854TIP3    H269054   5.666   1.749  14.966  0.6881 -2.4334 -1.0547
15855TIP3   OH269055   6.160   2.959   2.532 -0.4274  0.7259 -0.5761
15855TIP3    H169056   6.218   2.946   2.607  0.2712 -1.0856 -1.3556
15855TIP3    H269057   6.146   3.053   2.528  1.0191  1.0368  0.7107
15856TIP3   OH269058   2.404   3.965   2.100 -0.3997 -0.4771  0.3114
15856TIP3    H169059   2.409   3.882   2.053  2.3888 -1.9694  2.8766
15856TIP3    H269060   2.485   4.011   2.076 -0.5385  0.1943  1.0837
15857TIP3   OH269061   0.266   6.486  16.033 -0.2124 -0.6450 -0.2010
15857TIP3    H169062   0.281   6.572  15.994  2.4167 -0.9467 -0.0223
15857TIP3    H269063   0.349   6.440  16.021 -0.5118 -2.0549  2.5118
15858TIP3   OH269064   4.617   5.279   3.498  0.9377 -0.0393  0.1015
15858TIP3    H169065   4.700   5.234   3.486  1.8765  0.6683  3.1420
15858TIP3    H269066   4.635   5.370   3.476 -0.1210 -0.4351 -2.8695
15859TIP3   OH269067   5.716   5.049  12.967  0.0588  0.3283  0.6309
15859TIP3    H169068   5.795   5.072  13.015 -0.0417  0.0090  0.9506
15859TIP3    H269069   5.650   5.031  13.035 -0.2818  0.5621  0.3708
15860TIP3   OH269070   0.054   3.521   3.253 -0.8034  0.1587  0.2822
15860TIP3    H169071   0.077   3.590   3.315  0.4709 -1.6139  1.8911
15860TIP3    H269072  -0.039   3.505   3.268 -0.4280 -0.5386  2.1283
15861TIP3   OH269073   3.724   6.063  16.399 -0.0285  0.4150 -0.8783
15861TIP3    H169074   3.693   6.150  16.425 -0.3651  0.0356  0.0081
15861TIP3    H269075   3.795   6.044  16.460 -1.6398 -1.0085  0.6715
15862TIP3   OH269076   6.529   3.695  15.569  0.1447 -0.0579  0.2997
15862TIP3    H169077   6.546   3.756  15.641  0.4003  0.3518 -0.1096
15862TIP3    H269078   6.602   3.633  15.572  1.0494  0.9147 -0.6150
15863TIP3   OH269079   2.573   3.108   4.640  0.1887 -0.1554  0.4365
15863TIP3    H169080   2.668   3.120   4.633  0.0041  1.4748  0.2614
15863TIP3    H269081   2.540   3.122   4.551 -0.2927  0.2681  0.6734
15864TIP3   OH269082   1.928   3.499   2.597 -0.6737 -0.6119 -0.5715
15864TIP3    H169083   2.022   3.510   2.612 -1.1927  0.8335  2.1212
15864TIP3    H269084   1.918   3.405   2.582  1.2293 -0.7287 -1.5197
15865TIP3   OH269085   5.054   0.286  12.020  0.0305 -0.1999 -0.2510
15865TIP3    H169086   5.128   0.252  11.970 -0.6023  0.7819 -1.9330
15865TIP3    H269087   5.035   0.371  11.980 -0.1771  0.8857  2.0298
15866TIP3   OH269088   1.015   3.061  16.423 -0.0567  0.4220  0.0859
15866TIP3    H169089   1.027   2.968  16.444  2.4213  0.8521  0.9265
15866TIP3    H269090   0.995   3.062  16.329  0.3241 -0.9251 -0.0321
15867TIP3   OH269091   2.192   5.729   4.748  0.0924 -1.0165 -0.4102
15867TIP3    H169092   2.143   5.648   4.735  2.2631 -2.3629 -0.5597
15867TIP3    H269093   2.168   5.757   4.837 -2.6339 -0.3438 -1.2503
15868TIP3   OH269094   3.415   3.981  15.537 -0.2133  0.0224  0.1629
15868TIP3    H169095   3.330   3.943  15.561 -1.1819  2.2331  0.5669
15868TIP3    H269096   3.430   3.952  15.447 -0.9073 -1.2119  0.4224
15869TIP3   OH269097   2.917   3.663   6.218  0.4390 -0.2239  0.7645
15869TIP3    H169098   2.851   3.625   6.160  1.6364 -0.7793 -0.2950
15869TIP3    H269099   2.977   3.591   6.236  0.7790  0.2723  1.6827
15870TIP3   OH269100   1.213   0.920  14.054 -0.7978 -0.1494 -0.3149
15870TIP3    H169101   1.258   0.975  14.118  0.3556 -2.6921  1.2007
15870TIP3    H269102   1.283   0.885  13.999 -1.4009 -0.6926 -0.7493
15871TIP3   OH269103   6.708   5.847  13.830  0.0115 -0.4722 -0.5072
15871TIP3    H169104   6.742   5.860  13.742  0.4609 -1.1330 -0.4352
15871TIP3    H269105   6.723   5.930  13.874  0.4765 -0.3870 -0.8252
15872TIP3   OH269106   4.720   5.478  11.734 -0.0806  0.1840 -0.0463
15872TIP3    H169107   4.811   5.501  11.756  0.8092 -2.6513 -0.3499
15872TIP3    H269108   4.671   5.494  11.814  1.2480 -0.8264  1.0155
15873TIP3   OH269109   0.774   4.995   5.314  0.2337  0.0603  1.0754
15873TIP3    H169110   0.802   5.052   5.386  0.1774  0.9699  0.3918
15873TIP3    H269111   0.740   5.055   5.248 -0.7484 -0.8459  0.7416
15874TIP3   OH269112   3.827   4.593   3.925 -0.4448  0.2936 -0.2425
15874TIP3    H169113   3.853   4.623   4.012 -0.4580 -1.0632  0.2644
15874TIP3    H269114   3.903   4.546   3.891 -0.9295 -0.4510 -0.3336
15875TIP3   OH269115   2.562   4.157   1.775 -0.6001 -0.0301  0.1711
15875TIP3    H169116   2.507   4.158   1.852  1.5076  1.0267  1.7682
15875TIP3    H269117   2.526   4.225   1.718 -1.6578 -0.2223  0.5937
15876TIP3   OH269118   2.387   0.133  16.488 -0.4046  0.0256  0.0727
15876TIP3    H169119   2.459   0.196  16.492  0.0297 -0.1988 -2.2722
15876TIP3    H269120   2.424   0.051  16.521  0.4580 -0.0747 -1.0606
15877TIP3   OH269121   6.439   5.817  15.312 -0.6484 -0.0314  0.1547
15877TIP3    H169122   6.491   5.742  15.282 -0.0631  0.1132  0.8060
15877TIP3    H269123   6.369   5.778  15.364 -2.6142 -0.4383 -2.5314
15878TIP3   OH269124   5.621   5.488   3.336  0.2569 -0.0349  0.4867
15878TIP3    H169125   5.615   5.412   3.394 -0.6740 -0.2389  0.1375
15878TIP3    H269126   5.664   5.555   3.390  0.5345 -0.6053  0.9947
15879TIP3   OH269127   1.659   3.093   2.684 -0.2149  0.1247 -0.2878
15879TIP3    H169128   1.637   3.011   2.729 -1.0628  1.6936  2.4301
15879TIP3    H269129   1.576   3.122   2.647 -0.6245  1.1350  1.3189
15880TIP3   OH269130   1.152   1.548  12.316  0.1287 -1.2214 -0.2353
15880TIP3    H169131   1.061   1.563  12.293 -0.0535 -1.6335  0.2019
15880TIP3    H269132   1.193   1.520  12.234  0.1665  0.2506 -0.7361
15881TIP3   OH269133   4.665   4.642  12.741 -0.0793 -0.6499 -0.3487
15881TIP3    H169134   4.714   4.607  12.816 -0.0057 -1.2197 -0.6597
15881TIP3    H269135   4.729   4.643  12.669 -0.2209 -0.3475 -0.4732
15882TIP3   OH269136   4.569   4.736   2.275 -0.4547  0.2641  0.3149
15882TIP3    H169137   4.661   4.712   2.290 -1.1526 -1.3188  2.4388
15882TIP3    H269138   4.541   4.777   2.356 -2.2366 -1.3652  0.5916
15883TIP3   OH269139   2.726   6.245   2.407 -1.0029 -0.1506  0.2658
15883TIP3    H169140   2.685   6.163   2.381  0.9219 -0.6517 -1.5568
15883TIP3    H269141   2.813   6.219   2.439 -1.5243  0.9406  2.7939
15884TIP3   OH269142   3.982   4.280   6.214 -0.6980  0.3080 -0.1032
15884TIP3    H169143   3.917   4.210   6.203 -0.1613  0.1081 -2.6835
15884TIP3    H269144   4.028   4.283   6.130  0.8164  2.2769  0.7186
15885TIP3   OH269145   0.135   6.295  16.512  0.1005  0.1941 -0.4206
15885TIP3    H169146   0.138   6.351  16.435 -1.3983 -1.3618 -1.6824
15885TIP3    H269147   0.070   6.337  16.570  0.3399  0.7135 -0.5195
15886TIP3   OH269148   2.464   2.860  16.268 -0.3714  0.0021  0.4827
15886TIP3    H169149   2.388   2.849  16.325 -0.5102 -1.2464  0.0845
15886TIP3    H269150   2.536   2.883  16.327 -0.5140 -1.2585  1.1764
15887TIP3   OH269151   0.447   5.983  11.836 -0.0133 -0.5793 -0.1147
15887TIP3    H169152   0.521   5.925  11.818 -0.3456 -0.6833 -1.1982
15887TIP3    H269153   0.485   6.071  11.837  0.2723 -0.7025  0.2568
15888TIP3   OH269154   0.417   2.073  12.754 -0.5393  0.1148  0.1006
15888TIP3    H169155   0.510   2.090  12.738  0.4186 -1.0265  3.6604
15888TIP3    H269156   0.406   1.981  12.729 -0.8920  0.3798 -0.7747
15889TIP3   OH269157   5.360   1.358   1.427 -0.6482 -0.4087 -0.0517
15889TIP3    H169158   5.374   1.451   1.407 -0.9259  0.4246  3.1905
15889TIP3    H269159   5.443   1.329   1.466 -0.4662 -1.6513 -1.2729
15890TIP3   OH269160   1.773   6.183   2.714  0.6934 -0.1853  0.3910
15890TIP3    H169161   1.772   6.272   2.677 -1.2078 -0.2125  0.3037
15890TIP3    H269162   1.803   6.195   2.804  1.5093  0.3888  0.0596
15891TIP3   OH269163   2.488   5.416  13.352  0.2721  0.1664  0.4491
15891TIP3    H169164   2.510   5.426  13.259 -1.0114  3.3410  0.3563
15891TIP3    H269165   2.463   5.324  13.361 -1.2619  0.1384 -2.7899
15892TIP3   OH269166   2.279   3.884  11.536 -0.0649 -0.1815 -0.1269
15892TIP3    H169167   2.373   3.891  11.521 -0.2620  1.0696 -0.9281
15892TIP3    H269168   2.241   3.956  11.485 -1.3178  0.3571  1.4907
15893TIP3   OH269169   1.428   0.471   4.748 -0.0279 -0.8360  0.3651
15893TIP3    H169170   1.479   0.529   4.804  0.9713 -0.8051 -0.5302
15893TIP3    H269171   1.410   0.523   4.669  0.0948 -1.4339 -0.0665
15894TIP3   OH269172   0.302   3.276   5.556  0.1451  0.4510  0.2106
15894TIP3    H169173   0.293   3.310   5.644  3.2984 -0.4347  0.9873
15894TIP3    H269174   0.304   3.353   5.500  0.1973  1.1390  1.1407
15895TIP3   OH269175   2.692   4.514  11.296  0.0335 -0.1496 -0.5149
15895TIP3    H169176   2.653   4.559  11.221 -1.9804  0.8564  1.0426
15895TIP3    H269177   2.753   4.577  11.333  2.1211 -1.1495 -2.0110
15896TIP3   OH269178   6.250   5.304   5.814  0.4084 -0.4164 -0.1955
15896TIP3    H169179   6.298   5.270   5.738 -0.0938 -1.6344  0.0051
15896TIP3    H269180   6.277   5.248   5.887 -0.9029 -0.8109  0.0193
15897TIP3   OH269181   2.025   1.427  16.198 -0.1363  0.1770 -0.6948
15897TIP3    H169182   1.965   1.352  16.189  0.0040  0.2118 -2.2353
15897TIP3    H269183   1.975   1.492  16.246  0.1738 -1.3233  1.8633
15898TIP3   OH269184   2.906   1.439  15.826 -0.5045 -0.8014 -0.7586
15898TIP3    H169185   2.984   1.486  15.795  0.1859 -1.9272 -0.7758
15898TIP3    H269186   2.837   1.506  15.827  0.7606  0.5627  0.5826
15899TIP3   OH269187   0.431   1.639   0.946 -0.0449 -0.5802  0.1933
15899TIP3    H169188   0.514   1.599   0.921 -0.2753 -1.4844  0.8456
15899TIP3    H269189   0.434   1.727   0.907  0.9643 -0.8091 -0.2661
15900TIP3   OH269190   6.395   4.505   1.943  0.3789 -0.2244  0.4293
15900TIP3    H169191   6.353   4.513   2.029  0.9919 -1.4124  0.8725
15900TIP3    H269192   6.381   4.589   1.901  0.5035  0.5736  1.9110
15901TIP3   OH269193   3.612   1.784   3.520  0.3146 -0.5447 -0.0368
15901TIP3    H169194   3.621   1.877   3.499  0.3540 -0.6485 -0.4893
15901TIP3    H269195   3.700   1.748   3.513  0.6223 -0.2855  1.8386
15902TIP3   OH269196   2.182   2.133   1.778  0.4251 -0.3457 -0.1627
15902TIP3    H169197   2.158   2.224   1.757  2.5693  0.5439  0.9602
15902TIP3    H269198   2.158   2.122   1.870  0.0246 -1.0171 -0.3338
15903TIP3   OH269199   5.093   4.557   2.338 -0.0139 -0.3878  0.2494
15903TIP3    H169200   5.162   4.578   2.275  0.4781  1.1052  1.2282
15903TIP3    H269201   5.125   4.479   2.384 -0.0751 -1.0879 -0.8610
15904TIP3   OH269202   1.361   3.944   2.214  0.5333  0.6729 -0.5215
15904TIP3    H169203   1.369   4.034   2.183  0.0166  0.4562 -1.3167
15904TIP3    H269204   1.447   3.905   2.199  0.2547  0.5345 -1.8345
15905TIP3   OH269205   6.781   5.280   4.943 -0.2999  0.6345 -0.0490
15905TIP3    H169206   6.746   5.193   4.959 -0.2736  0.4657 -0.8593
15905TIP3    H269207   6.872   5.266   4.917  0.1990  1.0257  1.3874
15906TIP3   OH269208   0.679   5.886  13.412  0.4148  0.2791  0.2538
15906TIP3    H169209   0.688   5.957  13.349  1.0873  1.0950  1.2262
15906TIP3    H269210   0.644   5.812  13.362 -1.3777  1.6137 -0.5462
15907TIP3   OH269211   3.545   6.692  12.252  0.0780 -0.2488 -0.2061
15907TIP3    H169212   3.469   6.671  12.198  0.1352 -1.0293  0.0088
15907TIP3    H269213   3.521   6.774  12.297 -1.4868 -1.5108  1.4216
15908TIP3   OH269214   2.677   3.930   3.231  0.0509 -1.0476  0.5779
15908TIP3    H169215   2.644   4.016   3.257  0.1799 -0.3291 -1.4819
15908TIP3    H269216   2.769   3.932   3.255  0.2145 -0.3346 -0.0801
15909TIP3   OH269217   2.379   3.226  14.067 -0.7253 -0.7919 -0.4825
15909TIP3    H169218   2.316   3.287  14.029 -0.6433 -1.7345 -2.2428
15909TIP3    H269219   2.330   3.181  14.136 -0.9878  0.7300  0.3536
15910TIP3   OH269220   1.107   1.273  13.068  0.0958 -0.2905  0.0008
15910TIP3    H169221   1.062   1.204  13.117 -1.0740 -0.2819 -1.0119
15910TIP3    H269222   1.102   1.349  13.125 -0.8388 -0.3985  0.0782
15911TIP3   OH269223   6.183   4.966   5.665  0.0254 -0.4400 -0.4165
15911TIP3    H169224   6.212   4.989   5.753  0.3061  0.2243 -0.6801
15911TIP3    H269225   6.261   4.979   5.610 -0.1009 -1.0016 -0.7449
15912TIP3   OH269226   1.838   5.005  11.937  0.1099  0.9779 -0.0973
15912TIP3    H169227   1.900   4.980  11.869 -1.3348  0.0247 -1.1273
15912TIP3    H269228   1.778   5.066  11.893 -1.3151 -0.2510  0.0528
15913TIP3   OH269229   2.755   5.316  15.071  0.0804 -0.1880  0.2202
15913TIP3    H169230   2.819   5.353  15.133  0.4232  0.4549 -0.4978
15913TIP3    H269231   2.807   5.260  15.014 -0.3545 -1.3759  0.9644
15914TIP3   OH269232   5.540   5.017   0.657 -0.6010 -0.5340  0.5099
15914TIP3    H169233   5.542   5.026   0.752 -2.9320  1.3870  0.4749
15914TIP3    H269234   5.559   5.104   0.623 -1.7172 -0.7145 -0.6989
15915TIP3   OH269235   0.122   2.083  14.287 -0.1483 -0.8693 -0.4238
15915TIP3    H169236   0.154   2.118  14.204 -0.2306 -0.4478 -0.2783
15915TIP3    H269237   0.094   2.160  14.337 -0.8974 -1.1810 -0.3423
15916TIP3   OH269238   5.027   5.753   5.407 -0.1043 -0.5699  0.5216
15916TIP3    H169239   5.093   5.720   5.469 -1.3678 -2.8943  0.7678
15916TIP3    H269240   5.075   5.764   5.325  0.6854 -2.0327  0.7441
15917TIP3   OH269241   1.777   3.776  14.443 -0.2985  0.4504 -0.4660
15917TIP3    H169242   1.815   3.689  14.439  0.4292  0.6817  0.8810
15917TIP3    H269243   1.710   3.776  14.375 -3.5753 -2.7057  2.3985
15918TIP3   OH269244   6.295   4.806   4.288  0.5459  0.2858 -0.2830
15918TIP3    H169245   6.378   4.831   4.328  0.3107  0.5345  0.0607
15918TIP3    H269246   6.239   4.884   4.298  0.3226  0.1800 -0.6545
15919TIP3   OH269247   4.259   2.392   4.907  0.1473  0.1266  0.1130
15919TIP3    H169248   4.342   2.400   4.952 -0.3559  1.8326  0.7933
15919TIP3    H269249   4.281   2.400   4.814  0.7190  0.8427  0.3047
15920TIP3   OH269250   5.636   5.397  15.022 -0.1017  0.5104  0.0594
15920TIP3    H169251   5.690   5.464  15.065  1.4978 -0.7810  0.1505
15920TIP3    H269252   5.695   5.354  14.961 -1.2722 -0.4363 -0.4451
15921TIP3   OH269253   3.509   2.749   2.973  0.1746  0.2195  0.1192
15921TIP3    H169254   3.550   2.835   2.972  1.3781 -0.3364 -0.4748
15921TIP3    H269255   3.524   2.713   2.885 -2.3485  0.3075 -0.4024
15922TIP3   OH269256   4.861   0.728  16.195 -0.7051 -0.0792  0.2008
15922TIP3    H169257   4.882   0.807  16.146  0.2098 -0.3787  0.0962
15922TIP3    H269258   4.815   0.759  16.273  1.1003  0.7055  1.0104
15923TIP3   OH269259   6.638   3.447   2.284 -0.3335 -0.1926  0.0402
15923TIP3    H169260   6.633   3.435   2.189 -1.0539  0.4206 -0.0140
15923TIP3    H269261   6.636   3.359   2.320  2.1293 -0.5590 -0.5776
15924TIP3   OH269262   0.135   4.704   3.124 -0.6099  0.1451  0.7543
15924TIP3    H169263   0.155   4.784   3.076 -0.1987  1.1346  2.5181
15924TIP3    H269264   0.220   4.672   3.154 -0.4994 -2.1163 -1.5685
15925TIP3   OH269265   2.703   2.414   6.042  0.8223 -0.1660 -0.0817
15925TIP3    H169266   2.674   2.469   6.115  1.1077 -0.5628  0.3419
15925TIP3    H269267   2.733   2.333   6.084  2.7837  0.3192 -0.4792
15926TIP3   OH269268   4.735   2.722   0.472  0.1053  0.1897  0.3230
15926TIP3    H169269   4.769   2.777   0.402  0.6326  0.9974  1.1886
15926TIP3    H269270   4.644   2.751   0.483  0.3273  0.7741  0.6507
15927TIP3   OH269271   5.613   0.716   4.980 -0.2305 -0.1484 -0.4895
15927TIP3    H169272   5.606   0.659   5.057 -1.0696 -1.3285 -1.3834
15927TIP3    H269273   5.705   0.712   4.955 -0.2109 -0.8592 -0.3329
15928TIP3   OH269274   4.720   4.772   1.860  0.3167  0.5257  0.6404
15928TIP3    H169275   4.727   4.688   1.814  3.0636  0.7487  0.5098
15928TIP3    H269276   4.768   4.759   1.941 -0.0366  1.7046  1.0556
15929TIP3   OH269277   2.397   1.724  16.670 -0.2299  0.1108 -0.6867
15929TIP3    H169278   2.428   1.682  16.751  0.1674 -0.3302 -1.0563
15929TIP3    H269279   2.303   1.709  16.670 -0.1661 -0.3070 -0.5370
15930TIP3   OH269280   6.129   2.696  11.687  0.2129 -0.0961 -0.2477
15930TIP3    H169281   6.179   2.672  11.765 -2.1686  1.2283  1.8375
15930TIP3    H269282   6.195   2.727  11.625  2.1640 -0.6602  1.4438
15931TIP3   OH269283   5.325   3.343   3.930  0.5009 -0.3590  0.1371
15931TIP3    H169284   5.314   3.290   3.851  0.7379 -2.0337  1.1683
15931TIP3    H269285   5.237   3.347   3.968  0.4277  0.2653 -0.0843
15932TIP3   OH269286   4.094   2.965   2.727  0.2993  0.4780 -0.1625
15932TIP3    H169287   4.097   2.872   2.702  0.7978 -0.0901  1.8239
15932TIP3    H269288   4.057   3.009   2.650 -0.6754 -1.4664 -0.8814
15933TIP3   OH269289   3.048   4.635   0.876  0.8670  0.4502  0.3588
15933TIP3    H169290   3.087   4.715   0.910  0.8482 -0.1196  1.7856
15933TIP3    H269291   3.113   4.602   0.813  1.2239  1.1690  0.3338
15934TIP3   OH269292   5.393   5.298   4.786  0.6394 -0.4765 -0.0509
15934TIP3    H169293   5.479   5.257   4.782  0.0098 -1.8646  0.2466
15934TIP3    H269294   5.354   5.281   4.701 -0.0308 -1.4421  0.4317
15935TIP3   OH269295   0.564   0.316   2.736  0.8511 -0.2398  1.1613
15935TIP3    H169296   0.611   0.371   2.673  1.8096  0.3819  2.3626
15935TIP3    H269297   0.484   0.290   2.690  1.0951  0.9069  0.0111
15936TIP3   OH269298   6.521   2.912   0.836 -0.0518 -0.0884  0.2182
15936TIP3    H169299   6.432   2.896   0.805  0.2104 -1.0608 -0.0499
15936TIP3    H269300   6.575   2.904   0.757  0.3881 -0.4927  0.5581
15937TIP3   OH269301   1.025   5.020   4.175  0.1313  0.6798 -1.0852
15937TIP3    H169302   0.995   4.931   4.156  1.3055  0.0890 -0.2711
15937TIP3    H269303   1.041   5.059   4.089  0.0861 -0.0724 -1.4405
15938TIP3   OH269304   0.065   3.648   3.491  0.5217  0.2182 -0.2499
15938TIP3    H169305   0.057   3.740   3.467 -1.9514 -0.1792 -1.1912
15938TIP3    H269306   0.036   3.644   3.581  0.0123  0.2770 -0.4098
15939TIP3   OH269307   6.124   5.119  11.723  0.2839 -0.0878  0.3355
15939TIP3    H169308   6.104   5.098  11.814  0.1987 -1.0595  0.0980
15939TIP3    H269309   6.209   5.162  11.727 -0.5021  1.5021  1.0474
15940TIP3   OH269310   6.331   1.577  14.628 -0.5365  0.1461  0.0259
15940TIP3    H169311   6.398   1.645  14.631 -1.9667  1.6284 -0.0629
15940TIP3    H269312   6.374   1.502  14.586  1.6397  0.3022  1.8148
15941TIP3   OH269313   4.220   1.786  14.769 -0.0442 -0.4847  0.1633
15941TIP3    H169314   4.130   1.766  14.795  0.1290 -3.1105 -1.0138
15941TIP3    H269315   4.215   1.806  14.676  0.4907  0.3066  0.2929
15942TIP3   OH269316   1.364   2.325  16.220  0.2236 -0.2522  0.0720
15942TIP3    H169317   1.411   2.399  16.180 -1.6687  0.4030 -1.0483
15942TIP3    H269318   1.411   2.247  16.187  0.8356  0.3802 -0.5990
15943TIP3   OH269319   0.404   4.303   4.133  0.3657  0.3058  0.5463
15943TIP3    H169320   0.318   4.287   4.172  0.4204  0.9064  0.9339
15943TIP3    H269321   0.405   4.249   4.054  0.4303 -1.3407  1.6075
15944TIP3   OH269322   3.674   6.080  13.433 -0.2988  0.6068  0.5208
15944TIP3    H169323   3.661   6.104  13.341  1.5611 -0.4529 -0.0625
15944TIP3    H269324   3.586   6.059  13.464 -0.7473 -1.0240 -1.6071
15945TIP3   OH269325   6.504   6.189  11.249  0.3514  0.2349  0.6918
15945TIP3    H169326   6.537   6.101  11.264 -0.1900 -0.3798 -1.3066
15945TIP3    H269327   6.409   6.178  11.240  0.4145  0.7524 -0.9886
15946TIP3   OH269328   2.275   2.227  16.362 -0.5838 -0.6066 -0.0449
15946TIP3    H169329   2.342   2.290  16.336 -2.3007  0.6198 -1.7870
15946TIP3    H269330   2.311   2.185  16.440  0.9068  2.1479  0.8968
15947TIP3   OH269331   5.100   4.876   1.454 -0.1526  0.0829 -0.2813
15947TIP3    H169332   5.154   4.955   1.446 -0.2566  0.1907  0.0526
15947TIP3    H269333   5.069   4.878   1.545  1.8478 -1.6419  0.5259
15948TIP3   OH269334   5.551   3.790  14.312  0.0343 -0.0607  0.8318
15948TIP3    H169335   5.528   3.750  14.228  1.1334  0.2883  0.3451
15948TIP3    H269336   5.596   3.721  14.360 -0.2232 -0.1358  0.9644
15949TIP3   OH269337   5.457   5.249  15.976 -0.3344 -0.2631 -0.3404
15949TIP3    H169338   5.492   5.168  15.939 -1.6546 -1.5635  1.0922
15949TIP3    H269339   5.363   5.246  15.956 -0.5591  0.4569  0.5259
15950TIP3   OH269340   2.286   5.731   5.723 -0.1868 -0.0251 -0.0237
15950TIP3    H169341   2.339   5.790   5.775 -0.5285  0.7791 -0.5669
15950TIP3    H269342   2.198   5.769   5.724 -0.7608 -1.2753  0.7790
15951TIP3   OH269343   0.594   2.769  14.221  0.0554  0.2079  0.0654
15951TIP3    H169344   0.688   2.761  14.206 -0.0123 -0.3041 -0.0830
15951TIP3    H269345   0.562   2.821  14.148  0.0257 -0.6874 -0.5666
15952TIP3   OH269346   1.642   0.444   6.189 -0.4848  0.6532  0.2628
15952TIP3    H169347   1.718   0.488   6.149 -0.1734  0.9743  1.1766
15952TIP3    H269348   1.611   0.384   6.122  0.6166  0.4836 -0.1159
15953TIP3   OH269349   0.086   3.692  17.134 -0.1342  0.3848  0.2078
15953TIP3    H169350   0.136   3.773  17.136  0.1092  0.2176  1.2648
15953TIP3    H269351   0.021   3.702  17.204 -2.6132  1.2095 -2.0140
15954TIP3   OH269352   5.126   5.782   2.142  0.1113 -0.2050  0.1086
15954TIP3    H169353   5.079   5.705   2.110 -1.5087  1.3285 -1.3754
15954TIP3    H269354   5.218   5.765   2.119 -0.2490 -1.5562 -0.4216
15955TIP3   OH269355   5.988   2.942   2.804 -0.5018 -0.2487 -0.0999
15955TIP3    H169356   5.938   2.860   2.809  2.4990 -2.3253 -1.1977
15955TIP3    H269357   6.043   2.932   2.726  0.5599  2.4919  0.1883
15956TIP3   OH269358   0.997   6.012  13.505 -0.4259  0.7001  0.2265
15956TIP3    H169359   1.010   5.917  13.500  0.9833  0.9030 -0.5035
15956TIP3    H269360   0.964   6.027  13.594 -1.9857 -0.5983 -0.0980
15957TIP3   OH269361   4.089   3.965   6.176  1.2147  0.1366 -0.3829
15957TIP3    H169362   4.004   4.004   6.198  1.8390  0.2304  2.2567
15957TIP3    H269363   4.068   3.877   6.147  0.1632  0.3257 -0.2436
15958TIP3   OH269364   3.589   0.004   0.900  0.6120  0.0570 -0.2829
15958TIP3    H169365   3.561  -0.086   0.883 -0.6188  0.5550 -1.0512
15958TIP3    H269366   3.675   0.011   0.859  1.0005 -0.9376  0.3387
15959TIP3   OH269367   3.215   3.866  14.979  0.3701  0.2235 -0.3143
15959TIP3    H169368   3.200   3.957  15.005 -0.7078  0.4007 -1.4287
15959TIP3    H269369   3.233   3.871  14.885  3.1923 -0.4639  0.0969
15960TIP3   OH269370   0.080   0.637  14.695  0.1098  0.3359  0.3141
15960TIP3    H169371   0.030   0.568  14.651  3.1553 -2.7708  1.2377
15960TIP3    H269372   0.122   0.685  14.624  1.5582 -1.8397 -0.4218
15961TIP3   OH269373   3.169   0.421  12.931  0.0213  0.1054 -0.4528
15961TIP3    H169374   3.239   0.387  12.874  1.3092  2.4322 -0.4100
15961TIP3    H269375   3.147   0.506  12.892 -0.4666  0.8711  1.4079
15962TIP3   OH269376   5.649   6.421  11.373 -0.6406  0.0514  0.2416
15962TIP3    H169377   5.622   6.390  11.460 -0.8101 -1.0697 -0.2001
15962TIP3    H269378   5.649   6.516  11.381 -3.7014  0.1185  0.6099
15963TIP3   OH269379   6.775   3.779  16.877 -0.5761  0.1478 -0.2231
15963TIP3    H169380   6.843   3.754  16.814  1.4473  0.9067  1.5442
15963TIP3    H269381   6.813   3.758  16.962 -1.9416  2.0155  0.9097
15964TIP3   OH269382   6.572   3.250  11.932  0.5545 -0.1814 -0.4875
15964TIP3    H169383   6.511   3.233  11.861  0.0200 -0.1695 -0.0401
15964TIP3    H269384   6.588   3.345  11.929  0.7464 -0.2215 -0.7567
15965TIP3   OH269385   4.110   6.587  14.213  0.3008  0.0482 -1.2091
15965TIP3    H169386   4.040   6.611  14.273  1.2160 -2.2339  0.9238
15965TIP3    H269387   4.093   6.640  14.135 -0.6040  3.6609  1.1808
15966TIP3   OH269388   3.105   4.455  13.932 -0.1908  0.6058 -0.3413
15966TIP3    H169389   3.042   4.413  13.874 -1.5095 -0.9065  2.0357
15966TIP3    H269390   3.059   4.532  13.966  0.0975  0.7705 -0.3188
15967TIP3   OH269391   6.167   5.520  11.907 -0.3430  0.0750  0.2409
15967TIP3    H169392   6.110   5.597  11.906 -0.8595 -0.2828  1.2687
15967TIP3    H269393   6.179   5.498  11.815 -2.0316  0.0396  0.0061
15968TIP3   OH269394   2.860   1.993  16.764 -0.1659  0.1599 -0.3129
15968TIP3    H169395   2.822   1.925  16.708  1.4564 -1.2737  0.2760
15968TIP3    H269396   2.944   2.014  16.723  0.7217 -0.4037  1.1594
15969TIP3   OH269397   1.041   3.252  12.899  0.3273  0.6000 -0.8505
15969TIP3    H169398   1.071   3.221  12.814  1.0738  0.9326 -0.7175
15969TIP3    H269399   1.031   3.171  12.951  1.1891  0.4778 -0.8480
15970TIP3   OH269400   5.576   0.893   3.522  0.8394 -0.2158  0.2473
15970TIP3    H169401   5.526   0.923   3.598  2.0537  0.0093  0.9870
15970TIP3    H269402   5.531   0.932   3.447  2.9122  4.6953  1.1219
15971TIP3   OH269403   0.210   6.714  15.093  0.6780 -0.0343 -0.0722
15971TIP3    H169404   0.274   6.673  15.151 -0.3775 -0.1178  1.0551
15971TIP3    H269405   0.246   6.802  15.077  1.7353 -0.5267 -0.5660
15972TIP3   OH269406   6.168   1.196   1.989 -0.0783  0.1800  0.0602
15972TIP3    H169407   6.077   1.224   1.990 -0.0640  0.2253  0.2084
15972TIP3    H269408   6.183   1.162   2.078  0.2215  0.7288  0.2210
15973TIP3   OH269409   6.694   5.547   4.221  0.0122  0.0237  0.2561
15973TIP3    H169410   6.654   5.524   4.138 -1.1567  2.1672  0.1543
15973TIP3    H269411   6.645   5.497   4.286  2.3076 -3.3610 -0.3495
15974TIP3   OH269412   1.789   3.793   0.356  0.5094  0.2286  0.0906
15974TIP3    H169413   1.708   3.742   0.345 -0.2893  0.4104  3.9054
15974TIP3    H269414   1.780   3.865   0.294 -0.3940 -1.7980 -2.3085
15975TIP3   OH269415   6.717   0.448  15.745  0.2652  0.5570 -0.8105
15975TIP3    H169416   6.693   0.530  15.701  1.1357  0.6600 -1.1116
15975TIP3    H269417   6.696   0.380  15.681  0.9174  0.6591 -1.1423
15976TIP3   OH269418   1.325   3.973   0.582  0.2855  0.1758 -0.3795
15976TIP3    H169419   1.329   3.895   0.638  0.1878 -0.1794 -0.8589
15976TIP3    H269420   1.231   3.986   0.567  0.3559 -0.7689 -1.8693
15977TIP3   OH269421   4.841   1.050   0.262  0.1995 -0.4130  0.0371
15977TIP3    H169422   4.766   1.094   0.301 -0.3076 -0.7587 -0.5309
15977TIP3    H269423   4.859   1.100   0.182  0.8396 -0.0787  0.3854
15978TIP3   OH269424   2.567   1.340  14.086  0.2273  0.0872 -0.5056
15978TIP3    H169425   2.654   1.378  14.079 -0.0100  0.9610  0.7490
15978TIP3    H269426   2.571   1.286  14.165 -0.7215  1.2681  0.3975
15979TIP3   OH269427   3.439   4.040  14.514 -0.8580 -0.0350  0.2491
15979TIP3    H169428   3.514   4.091  14.545 -1.4494  1.1946 -0.2837
15979TIP3    H269429   3.475   3.982  14.447 -0.2633  0.0408  0.4976
15980TIP3   OH269430   4.173   0.051   4.572 -0.2235  0.3733  0.3521
15980TIP3    H169431   4.098   0.097   4.611  0.3841  0.3981  1.5235
15980TIP3    H269432   4.248   0.109   4.588  0.1667  0.0341 -0.2110
15981TIP3   OH269433   0.750   5.967   5.659 -0.3852  0.3243 -0.4372
15981TIP3    H169434   0.778   6.012   5.739  0.1929 -1.0391  0.1611
15981TIP3    H269435   0.696   6.032   5.613  0.4759  1.6405  0.3339
15982TIP3   OH269436   3.879   2.633   1.797  0.5940 -0.2948 -0.2681
15982TIP3    H169437   3.935   2.569   1.840  1.0600  1.2931  1.6468
15982TIP3    H269438   3.934   2.672   1.730  1.2186  0.0150  0.4157
15983TIP3   OH269439   0.180   5.693  15.686  0.0786 -0.1853 -0.1574
15983TIP3    H169440   0.147   5.604  15.671 -2.2492 -0.0630  3.2897
15983TIP3    H269441   0.103   5.749  15.681  0.5195  0.8622  2.9134
15984TIP3   OH269442   5.203   6.406  11.291  0.3359 -0.2148  0.4238
15984TIP3    H169443   5.223   6.316  11.265  2.5607  0.9539 -2.5204
15984TIP3    H269444   5.108   6.409  11.298  0.1237 -2.4676 -0.7204
15985TIP3   OH269445   1.131   0.456  11.922  0.8295 -0.1693  0.7397
15985TIP3    H169446   1.155   0.365  11.906  0.9079  0.0457 -0.4697
15985TIP3    H269447   1.210   0.497  11.956  1.6627  0.0654 -1.3297
15986TIP3   OH269448   6.083   4.012  12.493  0.3501 -0.1778 -0.2525
15986TIP3    H169449   6.131   3.938  12.457  0.1942 -1.4025  1.8982
15986TIP3    H269450   6.137   4.088  12.472 -0.1540 -0.6031 -3.7332
15987TIP3   OH269451   5.785   0.233   4.193  0.4523  0.8900  0.4235
15987TIP3    H169452   5.878   0.248   4.178  0.2864  0.0493 -1.7598
15987TIP3    H269453   5.747   0.321   4.199  1.1579  1.2555 -0.3587
15988TIP3   OH269454   0.642   1.705  12.368 -0.2911 -0.4117 -0.2398
15988TIP3    H169455   0.700   1.654  12.424 -0.2770 -2.0622 -1.6669
15988TIP3    H269456   0.567   1.648  12.353 -1.2029  0.7635 -0.3556
15989TIP3   OH269457   1.121   0.631   3.721  0.2046  0.1946 -0.1406
15989TIP3    H169458   1.071   0.601   3.645  0.4567  0.9093 -0.5976
15989TIP3    H269459   1.212   0.621   3.694  0.3028 -0.1205  0.3028
15990TIP3   OH269460   1.887   4.676  13.998  0.0882  0.0616 -0.1355
15990TIP3    H169461   1.881   4.736  13.923 -0.2669 -1.1193 -1.0791
15990TIP3    H269462   1.806   4.625  13.993 -0.3966  0.5987  1.6320
15991TIP3   OH269463   6.113   4.570  12.572 -0.2747  0.0707 -0.3623
15991TIP3    H169464   6.101   4.634  12.642  0.3283 -0.0872 -0.1080
15991TIP3    H269465   6.040   4.509  12.583 -0.0853 -0.0544  0.2422
15992TIP3   OH269466   3.437   3.812  13.587  0.1320 -0.2461 -0.5079
15992TIP3    H169467   3.443   3.723  13.621 -0.1410  0.7139  2.3209
15992TIP3    H269468   3.527   3.836  13.565  0.6138 -0.4038  1.1444
15993TIP3   OH269469   0.774   1.167  14.882  0.4383  0.4701 -0.0591
15993TIP3    H169470   0.782   1.244  14.827 -1.4225  0.8611  0.1486
15993TIP3    H269471   0.707   1.113  14.838 -0.4114  0.3633  1.2951
15994TIP3   OH269472   1.915   4.931   2.534 -0.4112 -0.1721  0.0725
15994TIP3    H169473   1.925   4.851   2.482 -2.3208 -0.0410 -0.5937
15994TIP3    H269474   1.939   5.001   2.474  1.2506 -0.2115  0.6527
15995TIP3   OH269475   2.982   0.723  15.552 -0.3696  0.4115  0.3730
15995TIP3    H169476   3.049   0.681  15.607 -0.0157 -2.9305 -2.3128
15995TIP3    H269477   3.032   0.771  15.486 -0.5325 -0.9629 -0.8097
15996TIP3   OH269478   0.082   6.122   2.504 -0.3581  0.5475  0.1127
15996TIP3    H169479   0.079   6.209   2.545  0.9024  0.2558  0.8701
15996TIP3    H269480   0.175   6.107   2.485 -0.5463 -0.6506  0.0437
15997TIP3   OH269481   2.796   3.864   2.190  0.3590  0.2944 -0.4310
15997TIP3    H169482   2.759   3.931   2.132  1.8438  0.2078 -1.5411
15997TIP3    H269483   2.871   3.907   2.230  1.1351 -0.5969 -0.9068
15998TIP3   OH269484   1.414   3.936  10.934 -0.2365 -1.1518  0.0168
15998TIP3    H169485   1.393   3.957  10.843  1.1967 -1.4187 -0.3918
15998TIP3    H269486   1.338   3.967  10.984 -1.0104 -0.9423 -1.2511
15999TIP3   OH269487   5.127   0.555   1.204  0.2680  0.3831 -0.4888
15999TIP3    H169488   5.047   0.503   1.202  0.2463  0.4404 -1.1945
15999TIP3    H269489   5.100   0.641   1.237  0.1898  0.1462  0.0632
16000TIP3   OH269490   1.955   3.940   1.169  0.0832 -0.2375 -0.2471
16000TIP3    H169491   2.050   3.936   1.158  0.4345 -1.1499  2.4127
16000TIP3    H269492   1.935   4.034   1.161  1.6787  0.3781  1.8497
16001TIP3   OH269493   3.674   4.674  12.402 -0.1426 -0.7006  0.5866
16001TIP3    H169494   3.765   4.671  12.373 -1.2151 -1.2458 -3.2715
16001TIP3    H269495   3.659   4.766  12.423  0.1896  0.5133 -3.5476
16002TIP3   OH269496   4.236   3.723  11.805 -0.0440  0.4950  0.0285
16002TIP3    H169497   4.204   3.633  11.813  2.3550 -0.3120  2.0075
16002TIP3    H269498   4.202   3.768  11.883  0.7097  0.5720  0.3319
16003TIP3   OH269499   6.748   4.255  11.711  0.3575  0.3336  0.5281
16003TIP3    H169500   6.739   4.171  11.757 -0.7268 -0.1494 -0.4949
16003TIP3    H269501   6.679   4.252  11.644  0.7673  1.7499  0.0214
16004TIP3   OH269502   3.179   6.245  13.948  0.3021 -0.0715 -0.2384
16004TIP3    H169503   3.192   6.229  13.854 -2.6006 -2.9427 -0.3447
16004TIP3    H269504   3.185   6.158  13.987 -0.4829  0.8061  1.9654
16005TIP3   OH269505   5.427   6.505   3.279  0.3738  0.0491 -0.1186
16005TIP3    H169506   5.515   6.480   3.249  0.8843  0.8563  0.6366
16005TIP3    H269507   5.429   6.601   3.280 -0.8608  0.1071 -1.0493
16006TIP3   OH269508   6.751   2.611  14.155 -0.0103  0.2053 -0.2749
16006TIP3    H169509   6.790   2.642  14.073  1.4720  0.6786  0.5813
16006TIP3    H269510   6.663   2.649  14.155  0.6237  1.7660 -0.7908
16007TIP3   OH269511   1.453   6.739  10.821 -0.0420 -0.0309 -0.3673
16007TIP3    H169512   1.421   6.688  10.745 -1.7605 -1.8129  1.4052
16007TIP3    H269513   1.533   6.694  10.847 -1.3611 -1.7652  0.9688
16008TIP3   OH269514   4.504   4.873   2.037 -0.0829  0.1301  0.1670
16008TIP3    H169515   4.558   4.841   1.965 -0.8881 -0.9948  0.0371
16008TIP3    H269516   4.529   4.819   2.112  1.0912  1.6011  0.9024
16009TIP3   OH269517   1.549   1.898   4.232 -0.1493  0.4746  0.1940
16009TIP3    H169518   1.571   1.956   4.159 -1.3526  1.0120  0.2289
16009TIP3    H269519   1.593   1.936   4.308 -0.2887  0.8964  0.0655
16010TIP3   OH269520   6.641   0.095   1.337 -0.2001 -0.0574 -0.2619
16010TIP3    H169521   6.593   0.135   1.409 -0.3256 -0.0135 -0.3684
16010TIP3    H269522   6.584   0.107   1.261  0.1543  0.3456 -0.4698
16011TIP3   OH269523   0.206   3.414  13.971  0.4053 -0.2256  0.1586
16011TIP3    H169524   0.216   3.472  14.047  0.7443 -1.8821  1.4364
16011TIP3    H269525   0.152   3.342  14.003  0.2927 -0.8123 -1.2778
16012TIP3   OH269526   3.352   6.166   2.141  0.2040 -0.3771  0.0371
16012TIP3    H169527   3.379   6.075   2.152 -0.3605 -0.4220  1.2455
16012TIP3    H269528   3.256   6.162   2.145  0.1913  0.3191  0.6035
16013TIP3   OH269529   2.128   0.107  11.850  0.1742  0.5153 -0.0616
16013TIP3    H169530   2.067   0.103  11.777 -2.6353  1.1756  2.0995
16013TIP3    H269531   2.185   0.181  11.829 -0.5790  0.7172 -1.5513
16014TIP3   OH269532   1.880   5.648   2.254  0.5465  0.1792  0.2254
16014TIP3    H169533   1.932   5.640   2.334 -0.9829 -1.3529  1.1415
16014TIP3    H269534   1.845   5.737   2.257  0.3653  0.0865  1.3784
16015TIP3   OH269535   5.957   5.160   0.109  0.1022 -0.2995  0.0018
16015TIP3    H169536   5.971   5.066   0.105 -0.8259 -0.4363 -0.0889
16015TIP3    H269537   6.015   5.195   0.041 -1.3436 -1.0166 -1.6795
16016TIP3   OH269538   3.076   4.829   2.821  0.0983 -0.2026  0.3430
16016TIP3    H169539   3.140   4.835   2.892 -0.4532 -1.4151  0.9744
16016TIP3    H269540   3.118   4.772   2.756 -0.0382 -0.4003  0.4268
16017TIP3   OH269541   1.309   1.573   3.925  0.0774  0.2820 -0.2342
16017TIP3    H169542   1.398   1.539   3.937 -0.1775 -0.4778 -0.4446
16017TIP3    H269543   1.316   1.632   3.850  0.5918  0.9739  0.3358
16018TIP3   OH269544   4.338   3.533   5.428  0.6813  0.3134 -0.2833
16018TIP3    H169545   4.339   3.602   5.360 -1.6868 -2.3532 -3.3464
16018TIP3    H269546   4.261   3.554   5.481 -0.0520  0.0695 -1.2201
16019TIP3   OH269547   2.872   3.638   4.091  0.3703  0.4685 -0.0737
16019TIP3    H169548   2.793   3.619   4.143  0.9529 -2.0118  0.0374
16019TIP3    H269549   2.926   3.692   4.149 -0.9951  1.7598  0.0466
16020TIP3   OH269550   3.911   1.124  16.407 -0.7091 -0.2931  0.0033
16020TIP3    H169551   3.846   1.153  16.343 -0.2444  2.6528  0.6846
16020TIP3    H269552   3.860   1.087  16.478 -1.4142 -0.8431 -0.7638
16021TIP3   OH269553   5.402   1.191   1.000  0.3189  0.3609  0.4140
16021TIP3    H169554   5.364   1.228   1.079 -0.0970  0.8245 -0.0026
16021TIP3    H269555   5.400   1.096   1.015  1.1411  0.4768  1.3653
16022TIP3   OH269556   2.723   2.908   4.341 -0.0837  1.0697  0.3180
16022TIP3    H169557   2.645   2.854   4.327 -0.4991  2.1631 -2.1860
16022TIP3    H269558   2.691   2.998   4.337  1.1388  1.5323  0.3721
16023TIP3   OH269559   0.782   4.699  13.929 -0.4252 -0.5055  0.2581
16023TIP3    H169560   0.822   4.690  13.843 -0.1223 -1.4149  0.4822
16023TIP3    H269561   0.813   4.623  13.978 -1.4267 -0.5597  0.8375
16024TIP3   OH269562   1.469   2.283   4.093  0.0154 -0.7219 -0.2007
16024TIP3    H169563   1.401   2.241   4.147  1.2331 -1.3041  0.9459
16024TIP3    H269564   1.539   2.302   4.155  0.8922 -0.1115 -1.3547
16025TIP3   OH269565   5.475   1.639   1.711 -0.0504 -0.2909 -0.2852
16025TIP3    H169566   5.499   1.725   1.747  0.7561 -0.6174 -0.0252
16025TIP3    H269567   5.522   1.635   1.627 -0.3384 -0.3490 -0.4436
16026TIP3   OH269568   0.793   2.540  12.211  0.1192  0.9178  0.1930
16026TIP3    H169569   0.768   2.473  12.147  0.8688  0.3887  0.4438
16026TIP3    H269570   0.759   2.507  12.294  1.9215  0.0057  0.6016
16027TIP3   OH269571   4.383   0.600   1.095 -0.1147  0.3658 -0.3390
16027TIP3    H169572   4.324   0.525   1.108  2.0503 -1.4057  0.0456
16027TIP3    H269573   4.331   0.676   1.121 -2.6285 -0.8837 -1.3021
16028TIP3   OH269574   2.464   1.308  16.381 -0.2935 -0.1712 -0.7177
16028TIP3    H169575   2.473   1.399  16.352  1.0641 -0.0839 -0.0763
16028TIP3    H269576   2.373   1.286  16.361 -0.7489  1.4341 -0.5631
16029TIP3   OH269577   2.468   1.613   2.429 -0.4675  0.6850 -0.1511
16029TIP3    H169578   2.453   1.583   2.339 -1.8901 -0.7652  0.5254
16029TIP3    H269579   2.433   1.703   2.430 -1.3150  0.3771 -0.8159
16030TIP3   OH269580   4.016   4.423  17.270  0.2587  0.1893 -0.1066
16030TIP3    H169581   3.980   4.511  17.277 -2.4694 -0.6264 -2.1848
16030TIP3    H269582   4.026   4.408  17.175 -1.0050 -2.2631  0.0537
16031TIP3   OH269583   3.396   0.975   4.979 -0.3244 -0.0379 -0.3028
16031TIP3    H169584   3.470   1.033   4.994  0.0110 -0.2490 -1.0980
16031TIP3    H269585   3.432   0.887   4.990 -1.0178 -0.1371  1.7821
16032TIP3   OH269586   0.503   1.671   3.730 -0.4467  0.1551  0.4950
16032TIP3    H169587   0.581   1.721   3.706  0.2216 -0.2911  1.6329
16032TIP3    H269588   0.444   1.736   3.768 -0.0506  0.2758  0.9125
16033TIP3   OH269589   4.384   3.525  13.093  0.0406 -0.3037  0.1162
16033TIP3    H169590   4.464   3.508  13.142 -0.6985  0.6943  1.7394
16033TIP3    H269591   4.355   3.439  13.064 -0.0876 -1.1120  2.4389
16034TIP3   OH269592   1.363   1.577  14.247 -0.1031  0.3885 -0.2276
16034TIP3    H169593   1.383   1.592  14.339 -0.5973 -0.1673 -0.0239
16034TIP3    H269594   1.408   1.648  14.201  0.1270  0.6852  0.4395
16035TIP3   OH269595   3.679   3.380   5.899 -0.1763  0.2926  0.0392
16035TIP3    H169596   3.742   3.308   5.897 -0.9545 -0.6177  2.8167
16035TIP3    H269597   3.727   3.452   5.938 -0.6553 -0.2837  1.7948
16036TIP3   OH269598   1.832   2.748   0.554 -0.1770  0.2002 -0.1827
16036TIP3    H169599   1.815   2.790   0.639 -0.0902  0.5382 -0.3306
16036TIP3    H269600   1.750   2.702   0.535 -0.4920  0.7875 -0.2938
16037TIP3   OH269601   4.475   2.046  14.820  0.2131  0.3348  0.3922
16037TIP3    H169602   4.555   2.036  14.769 -1.2094 -2.1625 -1.5478
16037TIP3    H269603   4.504   2.039  14.911  2.0308 -2.9724 -0.3010
16038TIP3   OH269604   5.495   2.625   4.454 -0.3592  0.3740 -0.0461
16038TIP3    H169605   5.511   2.531   4.445 -0.0797  0.4654 -0.5363
16038TIP3    H269606   5.537   2.649   4.536 -0.9360 -0.0358  0.3829
16039TIP3   OH269607   3.298   4.481   2.342  0.2536  0.3026 -0.3922
16039TIP3    H169608   3.337   4.396   2.321 -1.2436 -0.6770  0.5763
16039TIP3    H269609   3.334   4.504   2.428  0.0438  0.2341 -0.2835
16040TIP3   OH269610   0.212   6.111   2.078  0.3370 -0.2533 -0.0820
16040TIP3    H169611   0.189   6.131   1.988  0.4553  1.8288  0.3069
16040TIP3    H269612   0.295   6.063   2.071  0.3166 -0.1621 -1.0767
16041TIP3   OH269613   3.204   5.665  13.773  0.3791 -0.4975 -0.6775
16041TIP3    H169614   3.114   5.673  13.743  1.0584  0.9586 -2.4977
16041TIP3    H269615   3.225   5.751  13.810  0.3880 -1.4783  1.7907
16042TIP3   OH269616   0.396   5.183  15.325 -0.1726 -0.6137 -0.2815
16042TIP3    H169617   0.337   5.109  15.320 -1.1440  0.1157  0.0806
16042TIP3    H269618   0.447   5.168  15.405 -0.3563 -0.8963 -0.2200
16043TIP3   OH269619   3.274   1.214  15.049  0.0452  0.3959  0.4447
16043TIP3    H169620   3.296   1.171  15.132 -0.0721  1.7897  1.2264
16043TIP3    H269621   3.200   1.164  15.015  0.4613 -0.5452  0.8807
16044TIP3   OH269622   1.065   5.142   0.243  0.4020 -0.1353 -0.1339
16044TIP3    H169623   1.075   5.074   0.309 -1.4903 -0.3619 -0.0195
16044TIP3    H269624   1.051   5.095   0.161 -1.0588  0.0542 -0.0328
16045TIP3   OH269625   2.605   3.316  12.467  0.1997  0.4519  0.1231
16045TIP3    H169626   2.536   3.372  12.503  0.1305  0.0881  0.5555
16045TIP3    H269627   2.676   3.377  12.446  0.2457  0.6608  0.8784
16046TIP3   OH269628   5.920   6.153   0.587 -0.0208  0.1131  0.6273
16046TIP3    H169629   5.840   6.141   0.638 -1.2207  1.5478 -0.8048
16046TIP3    H269630   5.944   6.065   0.559 -1.7903 -0.2417  0.1216
16047TIP3   OH269631   6.101   3.740  12.062 -0.1759  0.5721  0.7970
16047TIP3    H169632   6.165   3.722  12.131 -0.3310  0.1455  0.8330
16047TIP3    H269633   6.074   3.830  12.078  0.7033  0.8859  0.5443
16048TIP3   OH269634   2.864   0.324   4.705 -0.0121  0.6012 -0.0439
16048TIP3    H169635   2.954   0.330   4.735 -0.2206  1.3111  0.4835
16048TIP3    H269636   2.819   0.397   4.749 -1.4022 -1.1551  1.6797
16049TIP3   OH269637   0.935   6.372  16.021 -0.1396  0.1807 -0.8032
16049TIP3    H169638   0.903   6.462  16.010  0.2684  0.3525 -0.5950
16049TIP3    H269639   0.859   6.318  16.001 -0.3473  0.5663 -1.0864
16050TIP3   OH269640   5.494   5.078  16.523 -0.5792 -0.0377 -0.2806
16050TIP3    H169641   5.399   5.085  16.522 -0.8429 -2.4779  0.4009
16050TIP3    H269642   5.525   5.168  16.511 -2.9490  0.8783 -0.0991
16051TIP3   OH269643   2.431   6.679   5.132  0.1001 -0.2207  0.3696
16051TIP3    H169644   2.491   6.741   5.174 -0.0995  0.4503 -0.3097
16051TIP3    H269645   2.453   6.685   5.039 -0.6749 -0.3536  0.1759
16052TIP3   OH269646   1.052   3.979   0.288 -0.4681  0.5800 -0.1145
16052TIP3    H169647   1.034   4.073   0.299  0.0258  0.4787  1.8963
16052TIP3    H269648   1.126   3.976   0.227 -0.8224  1.4585 -0.6082
16053TIP3   OH269649   3.313   3.184   2.040 -0.1704  0.0650 -0.5447
16053TIP3    H169650   3.344   3.155   1.954  0.5096  0.5246 -0.4558
16053TIP3    H269651   3.241   3.124   2.061 -2.3055  1.6545 -2.7139
16054TIP3   OH269652   2.039   1.820  15.434 -0.0665 -0.0314  0.3127
16054TIP3    H169653   1.998   1.812  15.521  1.1858  0.1043  0.9385
16054TIP3    H269654   2.114   1.877  15.448  0.3367 -0.2645 -0.8079
16055TIP3   OH269655   3.084   1.125   0.629  0.4844  0.2635 -0.1824
16055TIP3    H169656   3.120   1.195   0.575  1.4923 -0.1192 -0.0280
16055TIP3    H269657   3.018   1.168   0.683  1.2816  1.1665  0.1070
16056TIP3   OH269658   1.717   2.288  14.141  0.6421  0.3023  0.0960
16056TIP3    H169659   1.744   2.203  14.176 -0.1626 -0.1240 -0.2799
16056TIP3    H269660   1.798   2.331  14.115  0.9027 -1.6983 -2.7929
16057TIP3   OH269661   4.702   4.552   2.511  0.2283 -0.1373 -0.0887
16057TIP3    H169662   4.735   4.606   2.582  0.9366 -1.5448  0.6816
16057TIP3    H269663   4.767   4.483   2.499 -0.2600 -0.3951 -1.5735
16058TIP3   OH269664   5.338   0.852  12.841 -0.2543 -0.0706  0.9538
16058TIP3    H169665   5.276   0.908  12.888  0.0715  1.0051  0.1401
16058TIP3    H269666   5.415   0.908  12.828 -0.0245 -0.6219 -0.1296
16059TIP3   OH269667   4.780   3.680   0.664 -0.4539 -0.1968  0.1485
16059TIP3    H169668   4.853   3.619   0.676  1.2154  1.5060 -0.7157
16059TIP3    H269669   4.814   3.764   0.696 -1.8028  0.7758 -0.8564
16060TIP3   OH269670   3.013   1.347   5.161  0.2340 -0.3298  0.8648
16060TIP3    H169671   2.954   1.320   5.231 -0.2624  0.4281  0.7443
16060TIP3    H269672   3.035   1.266   5.116 -0.2677 -0.6906  1.2565
16061TIP3   OH269673   4.190   4.710  14.422  0.0460  0.2184 -0.0436
16061TIP3    H169674   4.132   4.782  14.398  0.3086  0.6142  0.5128
16061TIP3    H269675   4.153   4.676  14.504 -1.0247 -1.3209 -1.1002
16062TIP3   OH269676   3.393   2.504  15.663  0.0325 -0.8745  0.0277
16062TIP3    H169677   3.469   2.555  15.691 -0.2347 -0.5509  0.1708
16062TIP3    H269678   3.403   2.419  15.707 -0.2257 -0.4782  0.8754
16063TIP3   OH269679   0.431   4.443   2.273  0.1849 -0.5157 -0.4595
16063TIP3    H169680   0.348   4.473   2.235 -1.3338 -1.6492  1.7323
16063TIP3    H269681   0.494   4.511   2.248 -1.6602  1.0688 -1.1484
16064TIP3   OH269682   5.328   1.668   2.090  0.1316  0.4773 -0.1273
16064TIP3    H169683   5.291   1.617   2.018 -1.1402 -0.7141  1.2845
16064TIP3    H269684   5.287   1.755   2.081 -0.7281  0.0639 -0.3217
16065TIP3   OH269685   3.627   1.103  11.596 -0.1519 -0.3764 -0.0178
16065TIP3    H169686   3.550   1.047  11.584 -0.3242 -0.5131  1.4817
16065TIP3    H269687   3.594   1.177  11.647  0.6317 -0.2345  0.2841
16066TIP3   OH269688   4.083   2.301  16.421 -0.0889 -0.0678  0.0438
16066TIP3    H169689   4.025   2.375  16.440  0.4500  0.0931  1.2031
16066TIP3    H269690   4.138   2.294  16.499 -0.4334 -2.0018  0.1603
16067TIP3   OH269691   5.773   6.701   2.577  0.3128 -0.3222  0.3478
16067TIP3    H169692   5.739   6.768   2.636  2.3749 -0.4596  1.8003
16067TIP3    H269693   5.704   6.690   2.511 -0.6914  2.1817  0.8510
16068TIP3   OH269694   4.139   3.336  11.653 -0.7196  0.9839 -0.6819
16068TIP3    H169695   4.079   3.411  11.657 -1.4168  0.4260 -0.4710
16068TIP3    H269696   4.084   3.261  11.675  0.2563  0.5624  0.3613
16069TIP3   OH269697   6.658   5.824   0.905  0.0313  0.1668 -0.3296
16069TIP3    H169698   6.650   5.825   1.000 -1.2608  1.0140 -0.4188
16069TIP3    H269699   6.752   5.819   0.888  0.2132 -3.2262  0.9452
16070TIP3   OH269700   1.603   1.737  16.259 -0.0602 -0.1727  0.4712
16070TIP3    H169701   1.583   1.696  16.175 -1.8149 -0.4588  0.9723
16070TIP3    H269702   1.537   1.806  16.268  0.5198  0.2865  1.3112
16071TIP3   OH269703   6.729   6.527   2.443  0.1105  0.6060 -0.2204
16071TIP3    H169704   6.817   6.513   2.479  0.4841  2.1962 -0.4052
16071TIP3    H269705   6.691   6.595   2.499 -0.7248  0.4550 -0.5919
16072TIP3   OH269706   5.043   6.288  13.949 -0.2727 -0.1041  0.0685
16072TIP3    H169707   5.063   6.258  14.038 -0.8200  0.9100  0.5451
16072TIP3    H269708   5.024   6.207  13.901 -0.9007 -0.6082  1.1104
16073TIP3   OH269709   1.168   5.547  14.007 -0.1605  0.5511  0.3004
16073TIP3    H169710   1.258   5.527  13.983 -0.5286 -0.6835 -0.1424
16073TIP3    H269711   1.167   5.641  14.023  1.1744  0.5946  0.2065
16074TIP3   OH269712   2.080   4.481   1.751 -0.0678  0.2724 -0.9712
16074TIP3    H169713   2.003   4.427   1.765  0.4167 -0.4992 -1.2244
16074TIP3    H269714   2.055   4.542   1.682 -0.1389 -0.6277 -1.7645
16075TIP3   OH269715   3.038   5.280  14.718  0.3136 -0.3568  0.2492
16075TIP3    H169716   3.007   5.209  14.775  0.1604  0.8223  1.6973
16075TIP3    H269717   3.117   5.244  14.677  0.1349 -1.4335  0.8002
16076TIP3   OH269718   2.437   5.925  16.392 -0.4527  0.2897  0.2495
16076TIP3    H169719   2.360   5.875  16.366 -0.4735 -0.1600  1.1594
16076TIP3    H269720   2.506   5.896  16.332  0.0953 -2.3904  2.0177
16077TIP3   OH269721   2.277   3.943   2.884  0.0228  0.1655  0.0676
16077TIP3    H169722   2.243   3.861   2.921  1.9501  0.5643  3.0988
16077TIP3    H269723   2.321   3.917   2.804  0.9820 -1.9069  1.1973
16078TIP3   OH269724   1.641   4.490   3.817  0.2208  0.1243 -0.0657
16078TIP3    H169725   1.562   4.528   3.855 -0.6881 -0.0889 -1.6470
16078TIP3    H269726   1.694   4.464   3.892 -0.6584  1.3803  1.0314
16079TIP3   OH269727   6.229   5.506  16.542  0.0588 -0.1616  0.5326
16079TIP3    H169728   6.157   5.443  16.532  0.3695 -0.5016  0.4130
16079TIP3    H269729   6.192   5.576  16.595  0.4371 -1.6374  2.8652
16080TIP3   OH269730   2.805   0.425  15.192 -0.0376  0.3784 -0.5567
16080TIP3    H169731   2.739   0.374  15.144  1.1126 -0.6397 -1.1073
16080TIP3    H269732   2.784   0.516  15.172  0.5442  0.0105 -3.2789
16081TIP3   OH269733   1.031   1.070   0.155  0.4279  0.4458 -0.0083
16081TIP3    H169734   1.020   0.976   0.139  0.4014  0.2056  1.2635
16081TIP3    H269735   0.973   1.112   0.091 -1.4555 -0.5079  0.9648
16082TIP3   OH269736   1.625   3.152  16.263 -0.3919  0.0830 -0.2927
16082TIP3    H169737   1.717   3.149  16.291 -0.5732 -2.9995  0.2350
16082TIP3    H269738   1.629   3.149  16.167  0.0212  1.4573 -0.3511
16083TIP3   OH269739   5.551   1.582   1.447 -0.6002  0.3375 -0.0215
16083TIP3    H169740   5.641   1.551   1.456 -0.8651 -0.1217  1.3124
16083TIP3    H269741   5.548   1.622   1.360  0.2805 -1.6056 -1.0011
16084TIP3   OH269742   0.920   4.472   4.621 -0.3521 -0.1748 -0.1530
16084TIP3    H169743   0.872   4.392   4.602 -0.1188 -0.0793 -1.2199
16084TIP3    H269744   0.853   4.536   4.645 -0.6078 -0.4710 -0.0791
16085TIP3   OH269745   5.044   2.440   4.615 -0.1928  0.4734 -0.2107
16085TIP3    H169746   5.072   2.438   4.707  1.4334  1.7037 -0.6166
16085TIP3    H269747   5.047   2.349   4.587 -0.2127  0.1392  0.8203
16086TIP3   OH269748   4.239   6.553  14.989  0.9984 -0.9223 -0.0920
16086TIP3    H169749   4.210   6.518  15.073 -0.4240 -0.2257 -0.2606
16086TIP3    H269750   4.159   6.589  14.950  2.2566  2.3804  0.0429
16087TIP3   OH269751   4.962   2.927   4.914 -0.4756  0.0384 -0.1338
16087TIP3    H169752   4.905   2.888   4.849  0.1820 -1.6903  0.2687
16087TIP3    H269753   4.907   2.989   4.961 -2.0680 -1.6060  0.2755
16088TIP3   OH269754   3.478   0.087  17.252 -0.1811 -0.1974  0.2814
16088TIP3    H169755   3.397   0.071  17.204  0.1951 -2.3781  0.2723
16088TIP3    H269756   3.449   0.112  17.340 -0.9004 -1.1393  0.3349
16089TIP3   OH269757   5.189   3.492  13.302  0.4300 -0.2174  0.2905
16089TIP3    H169758   5.240   3.446  13.235  2.0126  0.5018  0.9705
16089TIP3    H269759   5.224   3.580  13.303 -2.8324  1.3001 -1.3024
16090TIP3   OH269760   5.040   5.780   2.989  0.3461 -0.3024 -0.2548
16090TIP3    H169761   5.124   5.774   2.944  0.9245 -0.6460  0.8437
16090TIP3    H269762   5.010   5.690   2.996  0.6364 -0.3391  0.7081
16091TIP3   OH269763   2.366   4.511   4.843 -0.5905  0.0893 -0.1874
16091TIP3    H169764   2.306   4.534   4.914  1.1922  1.5620  0.9300
16091TIP3    H269765   2.444   4.478   4.887 -0.2872 -1.1673 -1.5712
16092TIP3   OH269766   2.666   4.686  11.053 -0.2284  0.2798  0.1755
16092TIP3    H169767   2.648   4.656  10.964  4.0977 -1.9435 -0.2133
16092TIP3    H269768   2.700   4.775  11.042  1.8736 -0.5762 -0.7155
16093TIP3   OH269769   0.290   4.460   1.522 -0.4579 -0.0579  0.1583
16093TIP3    H169770   0.311   4.497   1.437  0.0319  0.0519  0.3231
16093TIP3    H269771   0.374   4.455   1.567 -0.7754  0.2899  0.7981
16094TIP3   OH269772   1.801   4.012   6.288  0.3371  0.1061 -0.5703
16094TIP3    H169773   1.746   4.059   6.225  1.6958  1.5998 -0.7065
16094TIP3    H269774   1.809   4.073   6.361  1.1629 -0.4119 -0.2259
16095TIP3   OH269775   1.946   5.705  13.227 -0.0714 -0.2299 -0.9494
16095TIP3    H169776   1.870   5.727  13.281  1.5116  0.6485  1.0833
16095TIP3    H269777   1.969   5.616  13.254  2.0245  0.9600  1.6699
16096TIP3   OH269778   6.731   5.522   0.790 -0.3352  0.5523 -0.8608
16096TIP3    H169779   6.764   5.434   0.811  0.6260  0.7297 -1.5749
16096TIP3    H269780   6.664   5.538   0.857  0.5823 -0.0785  0.2642
16097TIP3   OH269781   3.648   1.442   5.205  0.4517  0.2050  0.4930
16097TIP3    H169782   3.702   1.516   5.232  2.0450 -0.3602 -0.9424
16097TIP3    H269783   3.711   1.378   5.172 -1.1372 -0.0337 -2.3645
16098TIP3   OH269784   6.083   1.587  14.744 -0.4368  0.4048  0.1310
16098TIP3    H169785   6.158   1.585  14.683  0.7509  2.5515  1.3621
16098TIP3    H269786   6.107   1.526  14.813  0.3430  1.2459  0.6341
16099TIP3   OH269787   6.437   4.601  14.498  0.5160 -0.5853  0.0701
16099TIP3    H169788   6.366   4.588  14.436 -0.4339  1.0923  0.7361
16099TIP3    H269789   6.431   4.694  14.522  0.9323 -1.1285  2.5505
16100TIP3   OH269790   4.356   5.510  15.474  0.7877  0.6155 -0.6132
16100TIP3    H169791   4.309   5.466  15.403 -2.6696 -0.4262  2.0332
16100TIP3    H269792   4.344   5.604  15.457 -2.4542  0.4045 -0.1368
16101TIP3   OH269793   3.694   3.284   3.536  0.3833  0.0697  0.0150
16101TIP3    H169794   3.621   3.227   3.559 -0.5035  0.7867 -0.9647
16101TIP3    H269795   3.718   3.258   3.447  0.0994  1.0858 -0.3688
16102TIP3   OH269796   2.450   4.393   0.686 -0.3274  0.1959 -0.1003
16102TIP3    H169797   2.379   4.446   0.650 -0.2017  0.1088 -0.4875
16102TIP3    H269798   2.472   4.332   0.615  0.0681  0.1585  0.0533
16103TIP3   OH269799   6.503   3.013  16.685 -0.2504 -0.0182  0.2439
16103TIP3    H169800   6.463   3.095  16.714 -0.0468  0.0087  0.4562
16103TIP3    H269801   6.453   2.945  16.729  0.8921  0.0595  1.7544
16104TIP3   OH269802   2.975   4.088  11.686  0.1108 -0.5450 -0.3547
16104TIP3    H169803   3.025   4.169  11.694 -0.0647 -0.4097 -0.6019
16104TIP3    H269804   2.952   4.083  11.593  0.4854 -1.0985 -0.4243
16105TIP3   OH269805   2.740   5.212  11.322  0.5313 -0.3046  0.1003
16105TIP3    H169806   2.760   5.215  11.228 -0.8788  2.4935 -0.2236
16105TIP3    H269807   2.790   5.283  11.360 -1.8347  1.1704  0.7094
16106TIP3   OH269808   2.367   5.209  13.693  0.1949 -0.8125 -0.0502
16106TIP3    H169809   2.460   5.226  13.675 -0.1945  1.2621 -0.3483
16106TIP3    H269810   2.352   5.254  13.777 -1.0827  1.0434 -1.2150
16107TIP3   OH269811   6.364   4.405  15.107  0.0057  0.1488  0.2980
16107TIP3    H169812   6.427   4.333  15.113  1.0646  0.9628 -0.7388
16107TIP3    H269813   6.303   4.377  15.039 -0.0433 -0.1087  0.4455
16108TIP3   OH269814   2.004   4.003  10.519 -0.3794 -0.3267 -0.3932
16108TIP3    H169815   1.955   3.936  10.566  0.1592  0.7598  1.8710
16108TIP3    H269816   2.093   3.999  10.556  0.5558 -0.4921 -2.5221
16109TIP3   OH269817   4.599   3.256  16.802 -0.3690 -0.1073 -0.4308
16109TIP3    H169818   4.581   3.164  16.822 -0.3352  0.0910  0.5543
16109TIP3    H269819   4.652   3.287  16.876 -1.1772  0.9570 -0.2661
16110TIP3   OH269820   1.506   3.996   0.053 -0.0582  0.5735  0.1263
16110TIP3    H169821   1.501   4.007   0.148  0.2450  0.2396  0.1857
16110TIP3    H269822   1.600   3.989   0.035 -0.0986  0.9034 -0.2319
16111TIP3   OH269823   4.649   1.390   5.238  0.3020  0.2852 -0.6755
16111TIP3    H169824   4.739   1.398   5.204  0.3601  0.0974 -0.5663
16111TIP3    H269825   4.659   1.389   5.333  0.0992  1.2768 -0.6292
16112TIP3   OH269826   5.520   4.544  12.321 -0.6093 -0.1893 -0.1435
16112TIP3    H169827   5.480   4.523  12.405 -1.7032 -0.0164 -0.6101
16112TIP3    H269828   5.596   4.598  12.344 -1.9715  1.4761  0.6395
16113TIP3   OH269829   0.826   5.354   5.651  0.3504  0.6330  0.1368
16113TIP3    H169830   0.732   5.362   5.640 -0.2142 -1.6756  2.2721
16113TIP3    H269831   0.855   5.442   5.674 -0.8637  1.8331 -2.5297
16114TIP3   OH269832   6.483   2.421   3.594  0.0996  0.1765  0.4869
16114TIP3    H169833   6.567   2.466   3.593  0.2659 -0.1143 -0.9802
16114TIP3    H269834   6.445   2.442   3.679  0.8344  1.8384  0.4401
16115TIP3   OH269835   0.593   4.577  13.210 -0.2230 -0.2119 -0.0046
16115TIP3    H169836   0.522   4.513  13.204 -0.0380 -0.3570 -0.7973
16115TIP3    H269837   0.577   4.623  13.292 -2.5153  1.2338 -1.1516
16116TIP3   OH269838   6.285   2.237  15.176 -0.3290 -0.5826  0.6476
16116TIP3    H169839   6.261   2.309  15.117 -1.5945 -1.2936  0.2418
16116TIP3    H269840   6.204   2.218  15.224  0.0050 -1.6380  0.8294
16117TIP3   OH269841   5.789   0.382  15.212  0.5183  0.3644  0.6286
16117TIP3    H169842   5.706   0.393  15.166  1.4215 -4.9295 -3.0342
16117TIP3    H269843   5.845   0.452  15.178 -0.5571 -0.0374 -2.2342
16118TIP3   OH269844   1.006   5.929  10.793  0.3997 -0.1579  0.1156
16118TIP3    H169845   0.972   5.983  10.864  0.6844 -0.5698  0.5683
16118TIP3    H269846   1.020   5.843  10.833 -0.6130 -0.7505 -0.7334
16119TIP3   OH269847   0.724   2.092   5.251 -0.0033 -0.8549  0.5492
16119TIP3    H169848   0.686   2.108   5.165  1.3585  0.3375  0.1176
16119TIP3    H269849   0.813   2.128   5.244  0.9903 -2.9501  1.6897
16120TIP3   OH269850   1.756   5.664  17.000 -0.1887  0.0433 -0.3587
16120TIP3    H169851   1.798   5.685  17.084  0.0117 -1.8845  0.0933
16120TIP3    H269852   1.762   5.744  16.949 -1.3342  1.6516  1.8663
16121TIP3   OH269853   2.906   5.824   2.197  0.9632  0.0896  0.4277
16121TIP3    H169854   2.839   5.794   2.258 -1.9296  1.0681 -2.0693
16121TIP3    H269855   2.918   5.917   2.217 -1.8181  1.0670 -1.8574
16122TIP3   OH269856   3.800   3.793   5.992  0.0140  0.0301 -0.2562
16122TIP3    H169857   3.830   3.702   5.999 -1.4856 -0.4354  0.4596
16122TIP3    H269858   3.705   3.787   5.992 -0.1107  1.6120 -0.1649
16123TIP3   OH269859   4.294   0.792  14.925 -0.2497 -0.1141  0.2730
16123TIP3    H169860   4.352   0.834  14.988 -1.8991  0.7352  1.3051
16123TIP3    H269861   4.325   0.702  14.920  1.0491  0.2751  0.8918
16124TIP3   OH269862   1.524   4.793   1.639  0.3514  0.1994  0.1483
16124TIP3    H169863   1.614   4.761   1.636  0.0779 -0.4896 -1.1400
16124TIP3    H269864   1.527   4.866   1.702  2.1385  1.2148 -1.0388
16125TIP3   OH269865   2.005   2.351  17.076  0.0404 -0.0211 -0.1320
16125TIP3    H169866   2.094   2.316  17.081  0.7036  0.9933 -2.9586
16125TIP3    H269867   2.017   2.443  17.052 -1.7724  0.4876  0.7828
16126TIP3   OH269868   6.201   3.131   5.469 -0.4612  0.3425 -0.2508
16126TIP3    H169869   6.275   3.090   5.514 -0.4671  1.1778  0.5591
16126TIP3    H269870   6.186   3.076   5.392  0.5355 -0.2463 -0.0442
16127TIP3   OH269871   2.985   6.440   0.589  0.0561  0.2829  0.6766
16127TIP3    H169872   3.053   6.503   0.567 -1.0586  1.5419  0.7289
16127TIP3    H269873   2.904   6.480   0.558 -0.6609 -1.2984  0.3640
16128TIP3   OH269874   1.003   1.061  13.192 -0.1008  0.1139  0.3883
16128TIP3    H169875   0.916   1.029  13.215  0.2594 -0.0358  1.5970
16128TIP3    H269876   1.034   1.001  13.125 -0.2287 -0.8986  1.2149
16129TIP3   OH269877   5.188   2.385   5.179  0.1774 -0.1986 -0.0614
16129TIP3    H169878   5.098   2.415   5.171  0.8786  2.1086  0.0778
16129TIP3    H269879   5.239   2.464   5.192  2.2321 -1.4563  0.0169
16130TIP3   OH269880   1.271   0.032  16.526  0.3741  0.8251 -0.4049
16130TIP3    H169881   1.278   0.096  16.455 -0.8894 -0.2800 -1.5734
16130TIP3    H269882   1.237  -0.047  16.484  3.0178 -1.0719  0.7588
16131TIP3   OH269883   3.922   5.847  14.231  0.0306 -0.1427 -0.3378
16131TIP3    H169884   3.905   5.825  14.323 -0.6147  0.9385 -0.1829
16131TIP3    H269885   3.910   5.764  14.184 -1.0078 -0.4306  0.3914
16132TIP3   OH269886   4.794   1.726  15.357 -0.4338  0.3165 -0.6914
16132TIP3    H169887   4.827   1.779  15.430  0.0158  0.3555 -0.9205
16132TIP3    H269888   4.768   1.790  15.291  0.0060  0.2605 -0.9233
16133TIP3   OH269889   6.175   5.610   0.123  0.2021 -0.0116 -0.0163
16133TIP3    H169890   6.150   5.691   0.166  0.2166  0.7477 -1.3801
16133TIP3    H269891   6.269   5.601   0.141  0.4817  0.9615 -0.9009
16134TIP3   OH269892   6.778   4.935   0.434 -0.2980  0.3926 -0.3982
16134TIP3    H169893   6.790   4.987   0.355  0.4475 -1.0180 -1.2547
16134TIP3    H269894   6.758   4.847   0.402 -0.4195 -0.1117  0.9865
16135TIP3   OH269895   2.698   1.347   6.301 -0.1320 -0.2454  0.7749
16135TIP3    H169896   2.608   1.322   6.319 -0.2243 -1.3409 -0.9500
16135TIP3    H269897   2.702   1.355   6.205  2.2788 -3.2063  0.4653
16136TIP3   OH269898   4.210   2.239   3.745  0.3763 -0.2009  0.5624
16136TIP3    H169899   4.223   2.330   3.717 -0.8436 -0.7377 -2.0203
16136TIP3    H269900   4.297   2.199   3.738  0.3649  0.0216 -1.4748
16137TIP3   OH269901   1.985   4.107  15.363 -0.2801 -0.0433  0.1385
16137TIP3    H169902   2.060   4.064  15.404 -0.4516 -1.0391 -0.5427
16137TIP3    H269903   1.923   4.035  15.347 -1.1903  0.6908  0.2777
16138TIP3   OH269904   5.591   1.070   2.493  0.2738 -0.1177  0.1332
16138TIP3    H169905   5.613   1.020   2.414 -1.5212  1.6196 -1.5597
16138TIP3    H269906   5.507   1.111   2.474  0.4247  1.4736  2.4230
16139TIP3   OH269907   0.427   6.669   3.548 -0.0563 -0.0273 -0.1919
16139TIP3    H169908   0.408   6.584   3.589 -1.6252  0.4389  0.1086
16139TIP3    H269909   0.515   6.659   3.513  0.5016 -1.1869  1.4056
16140TIP3   OH269910   5.858   5.609  11.052  0.4478  0.4313  0.0220
16140TIP3    H169911   5.795   5.550  11.012 -1.0727  1.7110  0.4338
16140TIP3    H269912   5.825   5.624  11.140  2.0398  0.1505  0.7036
16141TIP3   OH269913   4.070   3.623  15.169 -0.3880 -0.3061  0.0880
16141TIP3    H169914   4.162   3.622  15.195 -1.2326 -0.2940  3.5701
16141TIP3    H269915   4.071   3.657  15.079  3.0911 -2.1251 -0.7501
16142TIP3   OH269916   5.875   0.244   2.336 -0.2187 -0.1917 -0.2277
16142TIP3    H169917   5.939   0.315   2.342 -1.5273  0.8999  2.6803
16142TIP3    H269918   5.799   0.282   2.293  0.0201 -0.6632 -1.0968
16143TIP3   OH269919   4.858   0.890  10.583 -0.5533  0.0369 -0.0064
16143TIP3    H169920   4.796   0.817  10.583 -0.8947  0.3149 -0.7729
16143TIP3    H269921   4.931   0.859  10.529 -0.0613 -0.2415  0.7903
16144TIP3   OH269922   6.686   3.845   6.099 -0.2943 -0.4815 -0.4719
16144TIP3    H169923   6.648   3.930   6.122 -1.3814 -1.1617  0.3340
16144TIP3    H269924   6.720   3.858   6.010  1.2899  1.3257  0.3418
16145TIP3   OH269925   0.789   0.881  10.710  0.0087  1.0116 -0.0922
16145TIP3    H169926   0.720   0.941  10.741 -0.9431  0.3126 -0.7889
16145TIP3    H269927   0.849   0.936  10.660 -1.5132  1.2288 -1.7765
16146TIP3   OH269928   3.225   6.798   1.122 -0.1482  0.0729 -0.7365
16146TIP3    H169929   3.165   6.735   1.083 -0.8966  0.2757  0.0727
16146TIP3    H269930   3.235   6.866   1.056  1.1742 -1.1744 -1.8921
16147TIP3   OH269931   2.561   0.138   2.254  0.0900  0.5066 -0.0787
16147TIP3    H169932   2.648   0.151   2.292  0.0525  0.8649 -0.1145
16147TIP3    H269933   2.578   0.089   2.174  0.0854 -1.0749  0.8447
16148TIP3   OH269934   6.368   0.507  11.813 -0.0227  0.5958  0.7295
16148TIP3    H169935   6.367   0.435  11.750 -1.3758  1.8483 -0.7885
16148TIP3    H269936   6.387   0.466  11.897  0.0737 -1.3942 -0.2148
16149TIP3   OH269937   4.719   3.964  11.464  0.0489 -0.3822 -0.2392
16149TIP3    H169938   4.736   3.932  11.375  2.0256  1.1574 -0.4998
16149TIP3    H269939   4.723   3.886  11.519 -0.0446 -1.2085 -1.3653
16150TIP3   OH269940   1.793   5.905   2.228 -0.1746 -0.8514 -0.2757
16150TIP3    H169941   1.713   5.926   2.276  0.0584 -0.4074 -0.0779
16150TIP3    H269942   1.766   5.900   2.136 -0.5519 -1.3450 -0.1412
16151TIP3   OH269943   3.638   2.679   5.513  0.3807 -0.0678 -1.0063
16151TIP3    H169944   3.698   2.730   5.568  0.8647 -1.2754 -0.3713
16151TIP3    H269945   3.551   2.702   5.544  0.6172 -0.0811 -0.3085
16152TIP3   OH269946   2.690   0.064   5.162 -0.4038  0.3493 -0.1048
16152TIP3    H169947   2.644   0.148   5.169  0.4975  0.7316  1.6615
16152TIP3    H269948   2.781   0.085   5.183 -0.1565 -1.0553  0.2954
16153TIP3   OH269949   2.433   0.400   2.894 -0.7276 -0.6412  0.0176
16153TIP3    H169950   2.525   0.401   2.920 -0.5743 -3.2652 -0.1088
16153TIP3    H269951   2.414   0.490   2.868  0.9269  0.6622  2.9106
16154TIP3   OH269952   6.710   2.755  13.121 -0.0822  0.0812  0.1832
16154TIP3    H169953   6.775   2.824  13.132 -0.6173  0.5811  0.2528
16154TIP3    H269954   6.762   2.675  13.107  0.6632 -0.2467  3.8749
16155TIP3   OH269955   3.532   2.075   5.920 -0.1867  0.1293 -0.3322
16155TIP3    H169956   3.472   2.020   5.971  0.9015 -0.1551  0.6943
16155TIP3    H269957   3.555   2.021   5.844 -1.4255  0.3541 -0.8877
16156TIP3   OH269958   5.762   4.912  14.324 -0.4071  0.0669 -0.5645
16156TIP3    H169959   5.799   5.001  14.325  0.5122 -0.3010 -0.8658
16156TIP3    H269960   5.709   4.910  14.245 -0.9059  0.5313 -0.2502
16157TIP3   OH269961   3.207   1.004   1.943 -0.0542  0.2293 -0.7056
16157TIP3    H169962   3.147   1.069   1.906 -1.1212 -1.2239 -1.6039
16157TIP3    H269963   3.152   0.948   1.997  0.3574 -1.4074 -1.9067
16158TIP3   OH269964   6.176   1.269  13.869 -0.0982 -0.7139 -0.1308
16158TIP3    H169965   6.125   1.266  13.788 -0.8276 -1.0924  0.3355
16158TIP3    H269966   6.161   1.184  13.910 -0.4137 -0.2230  0.8065
16159TIP3   OH269967   4.046   3.705   1.335  0.0550 -0.1351 -0.0833
16159TIP3    H169968   3.981   3.773   1.317 -0.3915 -0.5968 -0.2463
16159TIP3    H269969   3.999   3.642   1.389 -0.0287 -1.1163 -1.2585
16160TIP3   OH269970   2.677   6.177   1.512 -0.5574  0.2912  0.2610
16160TIP3    H169971   2.695   6.271   1.512 -1.2239  0.4205  0.1144
16160TIP3    H269972   2.707   6.147   1.598 -1.6280  0.8934  0.8621
16161TIP3   OH269973   2.064   2.977  12.670 -0.1992  0.0348 -0.5981
16161TIP3    H169974   2.112   2.999  12.750  2.2010 -2.3705 -1.2006
16161TIP3    H269975   1.996   2.916  12.699 -0.2771  0.2845 -0.2447
16162TIP3   OH269976   6.590   5.311   5.447 -0.1488  0.0591  1.0070
16162TIP3    H169977   6.583   5.325   5.353 -0.6369  2.0832  1.3015
16162TIP3    H269978   6.655   5.240   5.456  1.6284  1.3409 -0.7843
16163TIP3   OH269979   0.975   2.744   0.318  0.1573  0.3913  0.5277
16163TIP3    H169980   0.965   2.742   0.223 -2.9689 -0.7959  0.7428
16163TIP3    H269981   0.893   2.784   0.349 -0.4259 -2.2824  2.7988
16164TIP3   OH269982   4.942   6.803  12.487  0.2951 -0.2591 -0.2586
16164TIP3    H169983   4.879   6.869  12.516  1.0319  0.1945  0.3345
16164TIP3    H269984   4.967   6.830  12.399 -1.0859 -1.0064 -0.9152
16165TIP3   OH269985   1.377   6.647   3.716 -0.4073 -0.2375  0.1371
16165TIP3    H169986   1.330   6.576   3.672  1.2614 -0.5580 -1.2271
16165TIP3    H269987   1.361   6.724   3.660  0.3614 -0.2644 -0.1251
16166TIP3   OH269988   2.267   6.621  16.137  0.0362  0.1406 -0.4087
16166TIP3    H169989   2.254   6.716  16.136  2.8364  0.6128 -1.9591
16166TIP3    H269990   2.297   6.602  16.226  0.5735  0.9077 -0.4153
16167TIP3   OH269991   6.160   2.103  16.108 -0.4707  0.7907  0.2113
16167TIP3    H169992   6.228   2.160  16.144  1.7535 -0.6621 -1.3725
16167TIP3    H269993   6.173   2.019  16.154  1.2277 -0.5378 -2.4516
16168TIP3   OH269994   5.173   5.485   3.590 -0.0089 -0.0564 -0.3340
16168TIP3    H169995   5.185   5.556   3.653 -0.1091 -1.2923  1.1334
16168TIP3    H269996   5.254   5.433   3.598 -1.0625 -1.6313  0.6784
16169TIP3   OH269997   2.417   3.911  16.136 -0.1179  0.6414 -0.1880
16169TIP3    H169998   2.500   3.865  16.145 -0.7235 -0.4875 -0.2948
16169TIP3    H269999   2.433   3.996  16.178  0.5960 -0.1695  1.2605
16170TIP3   OH270000   2.280   5.408   4.243 -0.6690  0.6707  0.1887
16170TIP3    H170001   2.243   5.496   4.252 -1.7314  0.1502  1.2127
16170TIP3    H270002   2.225   5.353   4.299  0.4005 -0.5277  0.1161
16171TIP3   OH270003   0.649   4.827   4.899 -0.2037  0.5925  0.3172
16171TIP3    H170004   0.731   4.852   4.856  0.1310 -0.4117  0.3382
16171TIP3    H270005   0.668   4.743   4.940 -0.7473  1.1509  1.7912
16172TIP3   OH270006   3.200   2.895   4.232  0.7342  0.3732 -0.2817
16172TIP3    H170007   3.200   2.840   4.155  3.1704  0.0316 -0.1278
16172TIP3    H270008   3.179   2.983   4.199 -0.2549 -0.1064 -0.9765
16173TIP3   OH270009   4.601   3.227  10.554  0.3753 -0.1898  1.0319
16173TIP3    H170010   4.626   3.320  10.552 -1.4959  0.4120  2.6101
16173TIP3    H270011   4.680   3.182  10.585  1.3530  0.8224  0.1222
16174TIP3   OH270012   2.676   5.265   2.698  0.3057 -0.5514 -0.5879
16174TIP3    H170013   2.721   5.248   2.615  1.0144 -1.0704 -0.1064
16174TIP3    H270014   2.603   5.323   2.674 -0.3622 -1.8415 -1.7957
16175TIP3   OH270015   2.077   4.127   0.860  0.0900  0.5287 -0.5964
16175TIP3    H170016   2.005   4.066   0.854  0.0267  0.5496 -0.0800
16175TIP3    H270017   2.071   4.163   0.948  2.5220 -1.7153  0.6262
16176TIP3   OH270018   2.066   3.125   2.092  0.6568 -0.2949  0.2167
16176TIP3    H170019   2.125   3.095   2.023 -0.3748  0.2733 -0.9483
16176TIP3    H270020   2.107   3.095   2.173  1.8439 -1.0762 -0.6367
16177TIP3   OH270021   3.112   5.700   5.805 -0.0188  0.2568  0.7163
16177TIP3    H170022   3.115   5.605   5.802 -1.4663  0.1926 -1.3748
16177TIP3    H270023   3.018   5.721   5.814  0.1559  1.4430  0.0923
16178TIP3   OH270024   6.199   6.658   0.974 -0.0143 -0.2361  0.3185
16178TIP3    H170025   6.241   6.643   1.059 -1.9844 -2.9766  0.9613
16178TIP3    H270026   6.268   6.645   0.910  1.1609  0.2752  1.4496
16179TIP3   OH270027   2.661   6.607  12.847 -0.0683 -0.5400  0.4131
16179TIP3    H170028   2.610   6.577  12.772  1.0867 -0.9094 -0.2636
16179TIP3    H270029   2.640   6.700  12.856 -0.7368 -0.6555  0.0613
16180TIP3   OH270030   6.546   4.551   2.280  0.6520  0.2992 -0.3945
16180TIP3    H170031   6.572   4.461   2.257 -0.7604  0.1732 -1.6221
16180TIP3    H270032   6.617   4.605   2.248  1.1342 -0.3160 -0.3888
16181TIP3   OH270033   5.449   1.771  13.878  0.0789 -0.1786 -0.4828
16181TIP3    H170034   5.516   1.822  13.923  0.5661 -0.3324 -1.0144
16181TIP3    H270035   5.421   1.826  13.805  0.9583 -0.8440 -1.3461
16182TIP3   OH270036   1.597   0.266  13.119 -0.6142  0.1105 -0.4956
16182TIP3    H170037   1.610   0.358  13.140 -3.1651  0.8162 -1.5460
16182TIP3    H270038   1.662   0.246  13.053  0.9453  0.6819  0.8087
16183TIP3   OH270039   6.604   0.394  13.822  0.3560  0.6849 -0.8033
16183TIP3    H170040   6.668   0.448  13.776  1.4622 -1.3521 -1.8017
16183TIP3    H270041   6.569   0.335  13.754 -0.0736 -0.5097  0.4045
16184TIP3   OH270042   4.417   3.082   4.699  0.4787  0.5379 -0.2770
16184TIP3    H170043   4.475   3.113   4.769  0.2739 -0.9908  0.6170
16184TIP3    H270044   4.475   3.065   4.625  1.0375  0.0545  0.2595
16185TIP3   OH270045   6.051   6.445  15.354 -0.1217  0.1021 -0.9099
16185TIP3    H170046   6.027   6.524  15.402 -0.7545  0.3228 -1.5746
16185TIP3    H270047   6.146   6.437  15.367 -0.6296 -1.7262  3.1819
16186TIP3   OH270048   3.585   5.299   3.604  0.4612 -0.2222  0.0563
16186TIP3    H170049   3.622   5.249   3.677  2.0655  0.7531 -0.0554
16186TIP3    H270050   3.621   5.257   3.526 -0.2709 -0.4890 -0.1493
16187TIP3   OH270051   0.446   1.918  13.257  0.4541 -0.0173 -0.1735
16187TIP3    H170052   0.396   1.937  13.337  0.7995 -2.3403  0.6943
16187TIP3    H270053   0.537   1.938  13.280  0.3931  0.5517 -0.4303
16188TIP3   OH270054   2.954   2.110  13.915  0.2973  0.2287  0.1693
16188TIP3    H170055   2.989   2.182  13.968 -0.9304  0.2938  0.9384
16188TIP3    H270056   3.032   2.068  13.878  1.1674  0.6380  1.4462
16189TIP3   OH270057   0.906   0.838  15.503 -0.2127 -0.7215 -0.1407
16189TIP3    H170058   0.922   0.743  15.511 -0.5707 -0.7414  0.4205
16189TIP3    H270059   0.814   0.849  15.529 -0.0934 -0.1844  0.0651
16190TIP3   OH270060   1.222   3.667  14.180 -0.1953  0.5459  0.1199
16190TIP3    H170061   1.194   3.758  14.189 -1.4395  0.3767 -1.4926
16190TIP3    H270062   1.316   3.672  14.162 -0.6191  1.7168 -2.1453
16191TIP3   OH270063   2.063   2.823  17.262 -0.2297 -0.4125  0.8403
16191TIP3    H170064   2.052   2.917  17.257  1.3729 -0.1391  1.6165
16191TIP3    H270065   2.076   2.805  17.355  2.8578 -0.8867  0.4331
16192TIP3   OH270066   1.295   4.838  10.961 -0.5094 -0.4573  0.5493
16192TIP3    H170067   1.214   4.877  10.928 -0.4070 -0.4012  0.3633
16192TIP3    H270068   1.327   4.900  11.026  0.1873  0.2921 -0.4632
16193TIP3   OH270069   5.401   2.643   1.355 -0.2165  0.7031 -0.3216
16193TIP3    H170070   5.385   2.558   1.316 -0.5487  1.4515 -1.8830
16193TIP3    H270071   5.492   2.640   1.384 -0.0271  0.0607 -0.9747
16194TIP3   OH270072   4.392   5.623   1.756  0.2076  0.0362  0.5821
16194TIP3    H170073   4.345   5.620   1.839 -1.3894  0.9223 -0.2462
16194TIP3    H270074   4.332   5.585   1.692  0.7933  0.7590 -0.4380
16195TIP3   OH270075   0.529   1.656  15.757 -0.2896 -0.3996 -0.1995
16195TIP3    H170076   0.456   1.651  15.696  0.6201  0.1272 -1.3742
16195TIP3    H270077   0.607   1.655  15.702  0.5597  0.7274  0.8954
16196TIP3   OH270078   4.229   0.173   6.037  0.1167 -0.2330  0.2931
16196TIP3    H170079   4.304   0.163   6.096  1.8804 -1.9013 -2.0435
16196TIP3    H270080   4.235   0.263   6.006 -0.3567  0.4121  1.9500
16197TIP3   OH270081   5.477   0.623   0.562 -0.5512  0.2790  0.4356
16197TIP3    H170082   5.482   0.713   0.594 -0.0852  0.1429  0.7662
16197TIP3    H270083   5.451   0.572   0.638  0.1341  0.0104  0.5011
16198TIP3   OH270084   1.538   4.901  12.308  0.1385  0.0523  0.3248
16198TIP3    H170085   1.540   4.867  12.219 -0.7661 -1.6356  0.9216
16198TIP3    H270086   1.447   4.891  12.336  0.4531  0.3596  1.5121
16199TIP3   OH270087   4.537   2.352   3.208 -0.3640 -0.0917  0.7410
16199TIP3    H170088   4.452   2.331   3.248  0.2347 -0.8351  1.6817
16199TIP3    H270089   4.562   2.436   3.249 -0.3449 -0.2060  0.9671
16200TIP3   OH270090   0.175   2.572   3.911 -0.2685 -0.2496  0.4224
16200TIP3    H170091   0.223   2.614   3.982  1.0124  0.0257 -0.5650
16200TIP3    H270092   0.167   2.481   3.938  0.5849 -0.2407  0.7460
16201TIP3   OH270093   3.889   0.203   5.615 -0.0349 -0.5823  0.1320
16201TIP3    H170094   3.824   0.273   5.615 -0.9889 -1.4251 -0.9183
16201TIP3    H270095   3.969   0.244   5.649 -1.0432  0.5296  1.2435
16202TIP3   OH270096   4.261   1.915  14.532  0.2546  0.4942  0.0562
16202TIP3    H170097   4.311   1.940  14.454  0.7480  1.5049  0.6849
16202TIP3    H270098   4.300   1.965  14.603  0.6328 -1.3306  1.2048
16203TIP3   OH270099   5.895   0.094  15.261 -0.2802 -0.6329 -0.0323
16203TIP3    H170100   5.845   0.144  15.325  0.5911  1.0909 -0.6277
16203TIP3    H270101   5.985   0.095  15.295  0.1605  0.1594 -1.1436
16204TIP3   OH270102   3.910   5.948  12.398  0.5272 -0.2531 -0.0455
16204TIP3    H170103   4.000   5.932  12.426  0.8332 -0.2343 -0.9761
16204TIP3    H270104   3.873   5.861  12.381  0.3139 -0.2696  0.4966
16205TIP3   OH270105   2.163   1.112   3.157  0.2605  0.1255 -0.3365
16205TIP3    H170106   2.088   1.122   3.099  0.6369  1.5180 -0.6197
16205TIP3    H270107   2.158   1.022   3.188 -1.4193  0.1320 -0.5028
16206TIP3   OH270108   3.245   1.512  12.658  0.3099 -0.1400  0.0613
16206TIP3    H170109   3.296   1.562  12.723  0.5694  0.6129 -0.7124
16206TIP3    H270110   3.206   1.578  12.602 -1.3580 -0.7196  0.4929
16207TIP3   OH270111   2.424   1.311   5.318  0.6473  0.3457  0.1844
16207TIP3    H170112   2.446   1.225   5.352  0.4989  0.4457  0.5295
16207TIP3    H270113   2.500   1.336   5.265  0.7312  0.0487  0.1642
16208TIP3   OH270114   1.435   2.308  10.978  0.3678  0.0419 -0.4369
16208TIP3    H170115   1.518   2.355  10.972  0.0328  0.8547  0.9212
16208TIP3    H270116   1.372   2.364  10.932  0.6655 -0.9200 -2.1103
16209TIP3   OH270117   4.843   3.760   3.029  0.2036  0.6261 -0.0016
16209TIP3    H170118   4.814   3.848   3.007  1.1272  0.9207 -0.0667
16209TIP3    H270119   4.938   3.766   3.035  0.2783 -0.3538  0.0472
16210TIP3   OH270120   3.321   6.385   6.012  0.0310 -0.1290 -0.5659
16210TIP3    H170121   3.404   6.409   6.053 -0.1725  0.1211 -0.2964
16210TIP3    H270122   3.257   6.447   6.048 -0.3022 -0.4085 -0.6647
16211TIP3   OH270123   0.781   5.826   5.023  0.6756 -0.3649 -0.2758
16211TIP3    H170124   0.738   5.886   4.962  0.2294  0.4435  0.8087
16211TIP3    H270125   0.713   5.763   5.048  0.8192 -0.6105 -0.4986
16212TIP3   OH270126   5.022   1.705   1.803 -0.4159  0.3078 -0.1538
16212TIP3    H170127   5.045   1.613   1.813  0.3138  0.4666 -0.3102
16212TIP3    H270128   4.980   1.728   1.886  1.4377  0.4044  0.8192
16213TIP3   OH270129   6.213   4.349   0.551 -0.4672  0.0796  0.1581
16213TIP3    H170130   6.274   4.413   0.585  1.5677 -2.6560  2.0897
16213TIP3    H270131   6.193   4.379   0.462 -0.0465  3.5314  1.1046
16214TIP3   OH270132   3.713   3.091   4.565 -0.1545 -1.1522  0.0153
16214TIP3    H170133   3.705   3.065   4.473 -1.7329  0.0378 -0.2306
16214TIP3    H270134   3.711   3.009   4.613  0.0608 -1.7652 -0.9873
16215TIP3   OH270135   0.692   2.868  14.759 -0.5285 -0.0253 -0.0563
16215TIP3    H170136   0.733   2.826  14.835 -1.6795 -1.1014  0.0027
16215TIP3    H270137   0.766   2.890  14.702  0.4806  1.8305  1.8094
16216TIP3   OH270138   6.524   2.667   4.378  0.3926 -0.2793 -0.2681
16216TIP3    H170139   6.445   2.641   4.331  0.0730  0.0209  0.0970
16216TIP3    H270140   6.562   2.737   4.325  0.6937 -0.7636 -0.7073
16217TIP3   OH270141   2.346   6.724  16.861 -0.0706  0.5823  0.1434
16217TIP3    H170142   2.267   6.773  16.837 -0.2749 -0.0799 -0.5494
16217TIP3    H270143   2.381   6.692  16.778  0.8361  0.7161  0.4577
16218TIP3   OH270144   6.573   3.276   0.863  0.1921  0.2228  0.2228
16218TIP3    H170145   6.611   3.356   0.901  0.0335  0.3421  0.1311
16218TIP3    H270146   6.490   3.265   0.909  0.5586 -0.3118  0.7730
16219TIP3   OH270147   2.016   5.671   2.477 -0.2873 -0.3854 -0.6218
16219TIP3    H170148   2.037   5.595   2.531 -2.2483  0.1545  1.0545
16219TIP3    H270149   2.100   5.709   2.455  0.6414 -1.4475  0.9059
16220TIP3   OH270150   1.588   2.273   4.878  0.0093  0.3737  0.5911
16220TIP3    H170151   1.550   2.186   4.887 -0.3513  0.6343  1.6985
16220TIP3    H270152   1.648   2.282   4.952 -0.3746  1.2660  0.8125
16221TIP3   OH270153   1.054   6.393  10.818 -0.0522  0.0629 -0.0416
16221TIP3    H170154   1.087   6.356  10.736 -1.5461 -1.6218  0.0530
16221TIP3    H270155   0.959   6.389  10.809 -0.3273  3.1467  0.3749
16222TIP3   OH270156   4.004   5.765  13.301 -0.4530  0.5651 -0.1858
16222TIP3    H170157   3.936   5.706  13.333 -0.1833  1.1403  1.6069
16222TIP3    H270158   3.985   5.776  13.208 -2.6482  0.5213  0.2004
16223TIP3   OH270159   0.023   1.927  15.713  0.1175 -0.5302  0.0939
16223TIP3    H170160  -0.034   1.923  15.636  2.4023 -0.9172 -1.6833
16223TIP3    H270161   0.060   1.839  15.719  2.5619  0.3994 -0.4988
16224TIP3   OH270162   1.328   2.149  12.285 -0.5110 -0.4892  0.1169
16224TIP3    H170163   1.253   2.092  12.270 -0.3693 -0.9031  0.9143
16224TIP3    H270164   1.296   2.217  12.344 -0.3763 -0.4227  0.1149
16225TIP3   OH270165   6.073   1.881   0.615  0.1786  0.3096 -0.2579
16225TIP3    H170166   6.036   1.934   0.543  1.2287 -0.2761 -1.2578
16225TIP3    H270167   6.011   1.808   0.624 -1.4274  1.7704  1.3098
16226TIP3   OH270168   5.390   1.361  15.909  0.3116  0.0358  0.2915
16226TIP3    H170169   5.412   1.333  15.820  0.5802  1.7074 -0.2110
16226TIP3    H270170   5.457   1.426  15.930 -1.0147  1.2780  0.8372
16227TIP3   OH270171   5.577   5.572   3.065  0.1851 -0.1005 -0.6673
16227TIP3    H170172   5.600   5.665   3.073 -0.5348  0.1216 -1.1009
16227TIP3    H270173   5.605   5.534   3.149 -3.0895  1.3004  1.2857
16228TIP3   OH270174   0.740   4.527   2.158  0.3597  0.2146  0.0190
16228TIP3    H170175   0.764   4.547   2.068  1.9877  1.5085  0.7098
16228TIP3    H270176   0.730   4.432   2.160 -0.2095  0.2195 -1.6245
16229TIP3   OH270177   0.318   3.505  15.181  0.0081  0.0625  0.2273
16229TIP3    H170178   0.307   3.471  15.270  0.9739 -0.6495  0.0942
16229TIP3    H270179   0.241   3.474  15.133  1.0431 -2.4349 -0.0074
16230TIP3   OH270180   1.369   0.402  17.355  0.4266  0.5706  0.7058
16230TIP3    H170181   1.401   0.368  17.439  0.6700  0.9244  0.7587
16230TIP3    H270182   1.396   0.336  17.291  0.5587  0.4758  0.8563
16231TIP3   OH270183   2.995   1.514   3.909 -0.2090 -0.3631 -0.4536
16231TIP3    H170184   3.041   1.562   3.840 -1.9675  1.8652 -0.1847
16231TIP3    H270185   2.915   1.482   3.866 -0.0194 -1.3698 -0.0989
16232TIP3   OH270186   6.466   4.934   3.019  0.1474 -0.7584  0.4987
16232TIP3    H170187   6.510   4.850   3.011  1.1985 -0.2754  0.9825
16232TIP3    H270188   6.536   4.999   3.009 -0.4900  0.0319  1.0251
16233TIP3   OH270189   4.682   0.168   5.360  0.2507 -0.3307 -0.7041
16233TIP3    H170190   4.659   0.125   5.443 -0.3306  0.0327 -0.6658
16233TIP3    H270191   4.763   0.214   5.379  0.1121 -0.2349 -0.3231
16234TIP3   OH270192   5.105   0.802  11.590  0.2618  0.4544  0.2374
16234TIP3    H170193   5.034   0.860  11.617 -1.6362 -0.3309 -2.6972
16234TIP3    H270194   5.154   0.852  11.525 -0.0781 -0.4517 -0.7254
16235TIP3   OH270195   5.088   1.660  13.480  0.2928  0.2175  0.2093
16235TIP3    H170196   5.027   1.591  13.506 -1.3563  1.6741  0.3999
16235TIP3    H270197   5.101   1.645  13.386  0.9259 -1.0343  0.4703
16236TIP3   OH270198   3.399   6.256   2.452  0.0177 -0.3038  0.1956
16236TIP3    H170199   3.428   6.166   2.466  1.2633 -0.0153 -0.4143
16236TIP3    H270200   3.456   6.290   2.382 -1.6731  0.3651 -0.9357
16237TIP3   OH270201   5.511   1.720   4.662 -0.6971 -0.1229  0.3428
16237TIP3    H170202   5.541   1.630   4.669 -1.8332 -0.6636 -1.0963
16237TIP3    H270203   5.450   1.731   4.734 -0.3518 -0.4201  0.6796
16238TIP3   OH270204   3.028   3.945   3.980 -0.4933 -0.0701  0.1553
16238TIP3    H170205   2.984   3.887   4.042  0.9403  0.1025  1.4162
16238TIP3    H270206   2.972   4.022   3.975  0.1458  0.6527  2.6427
16239TIP3   OH270207   3.415   6.221   3.803  0.2768  0.0778  0.0447
16239TIP3    H170208   3.324   6.233   3.778  0.4466 -0.5256 -0.9012
16239TIP3    H270209   3.457   6.183   3.726  0.9645 -1.2333  1.0171
16240TIP3   OH270210   0.466   1.183  11.040 -0.3794 -0.7144 -0.3487
16240TIP3    H170211   0.433   1.273  11.033  1.6770  0.0027 -1.6706
16240TIP3    H270212   0.405   1.131  10.987  0.1942  0.4721 -2.2737
16241TIP3   OH270213   6.783   2.948   3.927  0.6722  0.3542 -0.5116
16241TIP3    H170214   6.871   2.940   3.962  0.8486 -0.9267 -1.1926
16241TIP3    H270215   6.791   3.009   3.854  1.2693 -0.6799 -1.3470
16242TIP3   OH270216   2.038   3.383   2.999 -0.0996 -0.4125  0.1882
16242TIP3    H170217   2.117   3.370   2.947  0.6159  0.4569  1.0163
16242TIP3    H270218   1.995   3.297   2.999  0.4228 -0.6980 -0.9234
16243TIP3   OH270219   6.364   2.756  15.402 -0.6310  0.5519  0.0703
16243TIP3    H170220   6.409   2.755  15.318 -1.1421 -1.5439 -0.2256
16243TIP3    H270221   6.301   2.827  15.394 -0.2374  0.7956 -1.0655
16244TIP3   OH270222   5.374   3.271   0.759  0.0880 -0.9262 -0.2587
16244TIP3    H170223   5.426   3.203   0.801  1.3825  0.0667 -0.1805
16244TIP3    H270224   5.426   3.351   0.769 -1.3240  0.0640 -0.4461
16245TIP3   OH270225   6.172   0.864  14.890 -0.1037 -0.3188 -0.2088
16245TIP3    H170226   6.265   0.854  14.874  0.3052  0.6784  1.3285
16245TIP3    H270227   6.162   0.954  14.921 -1.2763 -0.9757  1.4800
16246TIP3   OH270228   6.664   5.536  16.329  0.4220 -0.1375  0.1133
16246TIP3    H170229   6.673   5.462  16.269 -0.0885 -0.3454  0.2855
16246TIP3    H270230   6.715   5.510  16.406 -1.1828 -1.1091  0.8995
16247TIP3   OH270231   3.749   5.524  14.912  0.2759  0.0776  0.2286
16247TIP3    H170232   3.821   5.582  14.886 -0.9961  1.0879 -1.2381
16247TIP3    H270233   3.718   5.561  14.994  0.9807  0.0530  0.5131
16248TIP3   OH270234   5.657   0.872   1.938 -0.5164 -0.8082  0.1780
16248TIP3    H170235   5.605   0.804   1.894  0.0635 -0.3865 -1.2230
16248TIP3    H270236   5.619   0.955   1.906  0.5642 -0.4983 -0.3378
16249TIP3   OH270237   0.437   6.716  12.270  0.0026  0.2786 -0.4476
16249TIP3    H170238   0.491   6.787  12.303 -0.2077  0.0862  0.3396
16249TIP3    H270239   0.398   6.751  12.190 -0.8286  1.4072  0.4029
16250TIP3   OH270240   5.055   2.573  11.277 -0.3533 -0.0476  0.0271
16250TIP3    H170241   5.075   2.619  11.358  0.2049  0.7600 -0.5614
16250TIP3    H270242   5.073   2.636  11.207  0.6747 -1.2248 -0.8184
16251TIP3   OH270243   3.336   0.475   2.368  0.2151  0.0379  0.1058
16251TIP3    H170244   3.414   0.455   2.315 -0.0476  1.5164 -0.9030
16251TIP3    H270245   3.316   0.566   2.347 -1.5798 -0.2005  0.6330
16252TIP3   OH270246   1.940   2.720   2.320 -0.7712 -0.0591  0.0851
16252TIP3    H170247   1.939   2.722   2.416 -1.4965 -0.0681  0.0808
16252TIP3    H270248   1.848   2.723   2.295 -0.5794  0.0857 -0.6185
16253TIP3   OH270249   5.016   0.982   4.807 -0.4782  0.2567  0.2867
16253TIP3    H170250   5.036   1.034   4.729 -2.4629  1.1936  0.3485
16253TIP3    H270251   4.927   0.951   4.793  0.0077 -1.6238  1.1078
16254TIP3   OH270252   3.963   0.046   3.388 -0.2565 -0.0155  0.0285
16254TIP3    H170253   3.878   0.004   3.396 -0.5661  0.3619 -1.0235
16254TIP3    H270254   3.966   0.111   3.458 -0.6356 -0.3699  0.3704
16255TIP3   OH270255   0.023   4.579   5.563  0.3398  0.0603 -0.4453
16255TIP3    H170256   0.025   4.503   5.505  0.0684  0.7292 -1.3399
16255TIP3    H270257   0.109   4.578   5.607 -0.3703 -1.8678  1.0342
16256TIP3   OH270258   6.537   2.890   1.271  0.3243  0.0941 -0.1314
16256TIP3    H170259   6.626   2.914   1.244  0.6860 -1.3755 -0.2957
16256TIP3    H270260   6.483   2.909   1.194  0.7746 -0.6389 -0.6343
16257TIP3   OH270261   2.367   2.773  15.685  0.1363  0.4085  0.3142
16257TIP3    H170262   2.353   2.836  15.756 -0.0228  1.1682 -0.3706
16257TIP3    H270263   2.284   2.726  15.678 -0.7649  2.0688 -1.0032
16258TIP3   OH270264   3.493   4.882  12.024 -0.0025  0.0531 -0.1285
16258TIP3    H170265   3.506   4.798  11.979 -3.0650 -0.9031  0.5402
16258TIP3    H270266   3.491   4.946  11.953  0.5214 -0.6831 -0.8296
16259TIP3   OH270267   1.971   4.774  16.128 -0.2409 -0.0373 -0.5362
16259TIP3    H170268   1.905   4.716  16.090  1.7275 -1.9662 -1.2518
16259TIP3    H270269   2.022   4.805  16.053  1.4663 -0.9856  0.1719
16260TIP3   OH270270   6.117   5.940  15.441  0.1921 -0.4596 -0.2605
16260TIP3    H170271   6.171   5.932  15.363 -0.1595 -0.3255 -0.5187
16260TIP3    H270272   6.057   6.012  15.422  1.2521  0.7574  0.8141
16261TIP3   OH270273   5.519   3.204   5.723  0.0533 -0.3419 -0.5771
16261TIP3    H170274   5.562   3.177   5.804  0.8950 -0.5682 -1.0834
16261TIP3    H270275   5.512   3.123   5.672  1.5238  0.1617 -1.6233
16262TIP3   OH270276   2.152   3.353  13.959  0.3889 -0.1084  0.3079
16262TIP3    H170277   2.179   3.351  13.867 -0.9412 -0.8658 -0.0900
16262TIP3    H270278   2.120   3.443  13.972  2.2289  0.5637  0.5746
16263TIP3   OH270279   5.533   1.661  15.336  0.5063 -0.3909  0.0700
16263TIP3    H170280   5.534   1.739  15.281 -2.0021 -0.2277  0.1573
16263TIP3    H270281   5.461   1.608  15.302 -1.2056 -0.2635  3.1306
16264TIP3   OH270282   4.312   5.427   0.803 -0.2386 -0.7471 -0.6005
16264TIP3    H170283   4.356   5.346   0.829  0.4840 -0.4350 -0.8253
16264TIP3    H270284   4.267   5.406   0.721  0.6809 -0.6943 -1.1344
16265TIP3   OH270285   5.244   6.532   4.388 -0.7561 -0.1737  0.3201
16265TIP3    H170286   5.232   6.553   4.481  1.5112  2.2906  0.1546
16265TIP3    H270287   5.200   6.602   4.341 -0.7034 -0.6605 -0.4765
16266TIP3   OH270288   3.388   2.962   0.609 -0.3939  0.1561  0.2158
16266TIP3    H170289   3.446   3.001   0.674 -1.0147  2.2500 -0.4239
16266TIP3    H270290   3.310   2.937   0.657 -0.5075  0.9076  0.4229
16267TIP3   OH270291   4.855   0.255   3.742  0.6570  0.7576  0.0886
16267TIP3    H170292   4.794   0.274   3.813 -0.3136 -1.4354 -0.0749
16267TIP3    H270293   4.881   0.164   3.756  0.2463  0.1563 -2.4635
16268TIP3   OH270294   4.927   2.561  13.196 -0.5351 -0.3878 -0.3428
16268TIP3    H170295   4.849   2.524  13.155 -0.9834 -0.4252  0.5319
16268TIP3    H270296   4.914   2.549  13.290  0.6703 -0.6849 -0.1879
16269TIP3   OH270297   0.243   2.614  10.578 -0.5028 -0.1034 -0.0568
16269TIP3    H170298   0.251   2.539  10.519 -1.1061 -1.2049  1.1784
16269TIP3    H270299   0.179   2.671  10.537  0.6729  0.2308 -1.4894
16270TIP3   OH270300   3.573   3.687  15.800 -0.0640  0.1081 -0.8928
16270TIP3    H170301   3.504   3.668  15.736 -0.8019  0.7749 -0.3238
16270TIP3    H270302   3.555   3.776  15.828  2.0144  0.9080 -1.9028
16271TIP3   OH270303   4.584   0.339  11.343 -0.1773 -0.6259 -0.2908
16271TIP3    H170304   4.496   0.352  11.307 -2.4730 -1.9492  4.0254
16271TIP3    H270305   4.596   0.244  11.340  1.3937 -0.4244 -1.2477
16272TIP3   OH270306   1.998   1.822  13.810 -0.3125 -0.3526 -0.6026
16272TIP3    H170307   1.922   1.768  13.832 -1.0233  0.1690 -1.7375
16272TIP3    H270308   1.988   1.843  13.718  0.8847  0.2639 -0.6190
16273TIP3   OH270309   2.945   5.717   3.389 -0.7348 -0.4130  0.0724
16273TIP3    H170310   3.004   5.693   3.318  0.3108  0.9689  0.4238
16273TIP3    H270311   2.942   5.639   3.445 -2.1743 -1.7982 -1.8068
16274TIP3   OH270312   6.584   4.288   2.342  0.0425  0.3641  0.3141
16274TIP3    H170313   6.491   4.264   2.339  0.1517  0.0058 -0.4119
16274TIP3    H270314   6.615   4.252   2.425 -0.2824 -0.2166  0.1875
16275TIP3   OH270315   2.114   0.357  12.450 -0.5524 -0.3520 -0.0574
16275TIP3    H170316   2.113   0.441  12.495  0.0989  0.2934 -1.2034
16275TIP3    H270317   2.041   0.362  12.388 -2.2027 -1.6969  1.6770
16276TIP3   OH270318   3.156   4.505  15.906  0.2216 -0.0840  0.3310
16276TIP3    H170319   3.149   4.528  15.998 -0.8720 -0.5909  0.3944
16276TIP3    H270320   3.077   4.542  15.866  0.1183 -0.8146 -0.1744
16277TIP3   OH270321   5.459   3.868   3.094 -0.2883  0.0916 -0.3930
16277TIP3    H170322   5.468   3.964   3.092 -0.3873  0.1101  0.0689
16277TIP3    H270323   5.439   3.847   3.185 -1.9262 -0.2263 -0.7984
16278TIP3   OH270324   1.141   2.497   3.034 -0.5143 -0.3366 -0.0711
16278TIP3    H170325   1.061   2.499   2.980 -0.2087 -0.3503 -0.5307
16278TIP3    H270326   1.118   2.441   3.108 -1.4356  0.9149  0.6142
16279TIP3   OH270327   4.662   1.631  13.999 -0.2896  0.2882  0.0292
16279TIP3    H170328   4.730   1.678  13.951  0.7751 -1.1249  0.0613
16279TIP3    H270329   4.607   1.699  14.036  0.8159  1.4762 -0.4253
16280TIP3   OH270330   0.030   1.816   5.750  0.0671  0.5284  0.1956
16280TIP3    H170331   0.025   1.831   5.845 -1.1978  2.2355 -0.0727
16280TIP3    H270332   0.112   1.859   5.724 -1.1768  3.0619  0.1295
16281TIP3   OH270333   3.861   0.861  12.456  0.1127 -0.0468  0.2744
16281TIP3    H170334   3.913   0.792  12.497  3.3978  2.3071  0.4607
16281TIP3    H270335   3.860   0.932  12.520 -0.6927  1.1271 -0.9927
16282TIP3   OH270336   0.075   3.062  15.102  0.2867 -0.1184  0.4329
16282TIP3    H170337   0.136   2.988  15.106 -0.0536 -0.3829  0.8143
16282TIP3    H270338   0.016   3.041  15.030  1.1540  0.5468 -0.5107
16283TIP3   OH270339   5.731   3.438  14.566 -0.7866 -0.1871 -0.1956
16283TIP3    H170340   5.652   3.484  14.595 -0.4197 -0.0252  0.5642
16283TIP3    H270341   5.790   3.507  14.538 -1.6060 -0.3856 -2.6438
16284TIP3   OH270342   1.273   6.451  11.004 -0.0410  0.3606 -0.1726
16284TIP3    H170343   1.225   6.450  10.921 -0.5602  0.2107  0.1279
16284TIP3    H270344   1.268   6.542  11.033  0.6039  0.5269 -0.5705
16285TIP3   OH270345   1.210   4.157  13.569 -0.1782  0.2202 -0.3433
16285TIP3    H170346   1.301   4.141  13.596 -0.3764  1.1620  0.9752
16285TIP3    H270347   1.211   4.142  13.474  1.0196 -1.1818 -0.1515
16286TIP3   OH270348   6.338   5.889   2.846 -0.2102  0.2599  0.4905
16286TIP3    H170349   6.291   5.947   2.786 -0.9511 -0.9878 -0.1809
16286TIP3    H270350   6.268   5.837   2.888  0.4656 -0.6730  0.5005
16287TIP3   OH270351   1.539   4.888   3.920  0.1541 -0.0806  0.0101
16287TIP3    H170352   1.467   4.931   3.967  0.6196  0.2587  0.4137
16287TIP3    H270353   1.611   4.951   3.922  0.6014 -0.5814 -0.0402
16288TIP3   OH270354   4.588   0.719  13.479  0.4108  0.1758 -0.2400
16288TIP3    H170355   4.557   0.799  13.521 -0.8109 -0.7685  0.7220
16288TIP3    H270356   4.516   0.658  13.487  1.6637 -1.3484 -0.0637
16289TIP3   OH270357   1.367   5.937  17.194 -0.3127  0.2272 -0.0780
16289TIP3    H170358   1.331   6.017  17.154 -0.6046  0.6354  0.9488
16289TIP3    H270359   1.329   5.866  17.144 -1.4379  0.7028  0.0598
16290TIP3   OH270360   4.781   3.585  16.913  0.1977 -0.6410 -0.2787
16290TIP3    H170361   4.835   3.638  16.971  0.6791 -0.5568 -0.7803
16290TIP3    H270362   4.844   3.524  16.872 -0.3513 -1.6662  0.3556
16291TIP3   OH270363   4.744   3.622  17.348 -0.2963  0.0130 -0.2469
16291TIP3    H170364   4.702   3.537  17.360  1.6225 -0.8740  0.7366
16291TIP3    H270365   4.748   3.634  17.253  0.3945 -1.5774 -0.4579
16292TIP3   OH270366   1.440   3.890   1.372 -0.0723 -0.3774  0.2069
16292TIP3    H170367   1.527   3.862   1.346 -0.3927 -2.2000  0.9776
16292TIP3    H270368   1.454   3.953   1.443  0.6205 -0.0875 -0.1853
16293TIP3   OH270369   3.307   2.557  12.889 -0.1051 -0.4299 -0.0887
16293TIP3    H170370   3.297   2.644  12.928 -1.8139 -0.6783  0.1355
16293TIP3    H270371   3.241   2.554  12.820  0.4978 -1.2680 -0.6542
16294TIP3   OH270372   3.929   2.045  13.575  0.4365  0.2458  0.5175
16294TIP3    H170373   3.843   2.026  13.611  0.1076  0.0491 -0.3518
16294TIP3    H270374   3.915   2.119  13.516  0.7824 -0.0428  0.0617
16295TIP3   OH270375   4.919   5.664   4.606 -0.3682  0.2095  0.3457
16295TIP3    H170376   4.933   5.673   4.512  0.3806  0.0166  0.4358
16295TIP3    H270377   4.870   5.582   4.615 -0.4160  0.2139  0.1288
16296TIP3   OH270378   1.325   5.101   5.102  0.7669  0.0322  0.1830
16296TIP3    H170379   1.381   5.121   5.177  2.0825  0.2565 -0.8212
16296TIP3    H270380   1.237   5.121   5.132  1.3988  1.4014  1.2287
16297TIP3   OH270381   1.750   4.100  12.872 -0.2332  0.1209 -0.1523
16297TIP3    H170382   1.845   4.109  12.880 -0.2783  0.0206  0.5972
16297TIP3    H270383   1.720   4.088  12.962 -0.8583 -0.8355 -0.4836
16298TIP3   OH270384   5.313   0.180   0.745 -0.1084  0.1064 -0.2688
16298TIP3    H170385   5.378   0.247   0.768 -1.0199  1.0880 -0.4544
16298TIP3    H270386   5.259   0.172   0.824 -1.6698  1.6146 -1.1066
16299TIP3   OH270387   0.289   6.562   0.576  0.3645  0.3839  0.1918
16299TIP3    H170388   0.253   6.645   0.606 -1.6896 -0.5935  0.5838
16299TIP3    H270389   0.299   6.510   0.656 -0.1010 -0.3761 -0.2341
16300TIP3   OH270390   5.642   1.827  16.266  0.9936  0.2462 -0.4423
16300TIP3    H170391   5.683   1.741  16.278  0.9911  0.1093 -1.3156
16300TIP3    H270392   5.551   1.814  16.291  1.1075  0.1315 -0.0768
16301TIP3   OH270393   3.897   6.728   4.465 -0.7401  0.4118  1.0503
16301TIP3    H170394   3.856   6.655   4.512 -0.8502 -1.2548 -1.4249
16301TIP3    H270395   3.827   6.792   4.454 -1.0164  0.3016  2.0842
16302TIP3   OH270396   6.192   3.657   1.219 -0.0497  0.5340  0.0394
16302TIP3    H170397   6.216   3.676   1.129 -0.7165 -1.2247 -0.5645
16302TIP3    H270398   6.245   3.717   1.272 -0.3237  2.2408 -1.5278
16303TIP3   OH270399   6.126   6.641  14.556  0.3762  0.2701 -0.5274
16303TIP3    H170400   6.158   6.666  14.642 -0.1521 -1.8027  0.3205
16303TIP3    H270401   6.205   6.637  14.501  0.5766  2.7748 -0.5204
16304TIP3   OH270402   5.878   5.644   0.251  0.9666 -0.4252  0.2860
16304TIP3    H170403   5.822   5.664   0.327  0.8505  0.4416 -0.0156
16304TIP3    H270404   5.883   5.726   0.203 -0.8926 -1.4718 -1.9330
16305TIP3   OH270405   6.468   5.257  13.035 -0.0058  0.4977 -0.2357
16305TIP3    H170406   6.542   5.314  13.053 -0.1829 -0.1887  3.2370
16305TIP3    H270407   6.500   5.169  13.056 -2.0155  0.3123  2.5700
16306TIP3   OH270408   2.912   3.724  16.152 -0.0701 -0.3204 -0.7044
16306TIP3    H170409   2.981   3.733  16.087  1.1940  0.2686  0.6824
16306TIP3    H270410   2.951   3.753  16.234 -1.9997  0.1416  0.1066
16307TIP3   OH270411   4.414   3.824   2.662  0.1668  0.4901 -0.3976
16307TIP3    H170412   4.480   3.758   2.640  0.9635  0.4892  1.7435
16307TIP3    H270413   4.451   3.907   2.631  0.3563  0.2756 -0.7570
16308TIP3   OH270414   4.524   1.946   0.205  0.0112  0.3419 -0.2283
16308TIP3    H170415   4.605   1.956   0.256 -0.2366  0.6912  0.1031
16308TIP3    H270416   4.550   1.892   0.131 -0.3974 -3.3870  2.0914
16309TIP3   OH270417   4.804   3.899  12.325 -0.1631 -0.6719 -0.5098
16309TIP3    H170418   4.877   3.961  12.331 -0.4057 -0.4486  0.1864
16309TIP3    H270419   4.742   3.942  12.265 -1.3456  0.8403  1.6638
16310TIP3   OH270420   4.143   0.380  15.263  0.1523  0.2559  0.1184
16310TIP3    H170421   4.199   0.446  15.223  0.9188 -0.8328 -0.6510
16310TIP3    H270422   4.074   0.364  15.197  0.1171  0.1015  0.1917
16311TIP3   OH270423   5.985   4.057   0.093  0.4607 -0.7258  0.3224
16311TIP3    H170424   5.900   4.082   0.056  1.1865  1.9499  0.2353
16311TIP3    H270425   6.019   3.991   0.033 -1.2766 -1.4127  0.0294
16312TIP3   OH270426   0.093   2.656  15.950 -0.1891  0.1532  0.2888
16312TIP3    H170427   0.127   2.568  15.968  0.6335  0.5380  0.6988
16312TIP3    H270428   0.116   2.706  16.028 -2.1253  0.3399  0.7776
16313TIP3   OH270429   5.206   3.295   2.183  0.1719  0.8273 -0.2606
16313TIP3    H170430   5.174   3.306   2.093  0.1748  0.3321 -0.3283
16313TIP3    H270431   5.164   3.365   2.233 -1.8808 -0.4206 -0.1144
16314TIP3   OH270432   2.401   1.389   5.818 -0.5159 -0.2966 -0.1345
16314TIP3    H170433   2.351   1.343   5.750 -0.7132 -0.9482  0.4363
16314TIP3    H270434   2.355   1.473   5.829 -0.1282  0.0621 -1.2147
16315TIP3   OH270435   1.244   1.808   4.732 -0.1127 -1.0615 -0.2774
16315TIP3    H170436   1.202   1.823   4.647 -0.9636 -2.3008 -0.0993
16315TIP3    H270437   1.337   1.801   4.711  0.4679  3.6612 -0.4596
16316TIP3   OH270438   0.903   2.769  11.196 -0.0136 -0.3589 -0.0708
16316TIP3    H170439   0.948   2.695  11.154  1.8054  0.2855  0.6180
16316TIP3    H270440   0.947   2.778  11.281 -2.8474 -0.9337  1.5752
16317TIP3   OH270441   3.538   4.912  16.088 -0.7485  0.1405  0.9649
16317TIP3    H170442   3.595   4.906  16.012 -1.3842 -0.0967  0.4941
16317TIP3    H270443   3.551   5.001  16.122  2.2284 -0.8511  2.7608
16318TIP3   OH270444   0.953   2.605   1.981  0.0813  0.0466 -0.1655
16318TIP3    H170445   1.014   2.559   2.039  1.6295  3.2615  1.0387
16318TIP3    H270446   0.996   2.604   1.896  1.4978  1.4575  0.4657
16319TIP3   OH270447   2.514   5.454  16.962  0.6113  0.3369  0.0337
16319TIP3    H170448   2.557   5.400  16.896 -1.4984 -2.6186  0.9007
16319TIP3    H270449   2.585   5.483  17.019  1.8061 -2.3480  0.0677
16320TIP3   OH270450   6.069   2.132   3.720 -0.0827  0.2669 -0.1971
16320TIP3    H170451   6.162   2.109   3.713 -0.5225 -1.0290 -2.9766
16320TIP3    H270452   6.069   2.225   3.741  1.7662 -0.4811  4.2502
16321TIP3   OH270453   4.519   5.630  16.623  0.1404 -0.4610  0.1566
16321TIP3    H170454   4.606   5.624  16.663  1.3938 -0.3115 -2.3249
16321TIP3    H270455   4.490   5.719  16.643  1.5410  0.2434 -0.7214
16322TIP3   OH270456   2.251   3.454   0.662  0.1139 -0.7955  0.2255
16322TIP3    H170457   2.306   3.423   0.590 -1.3665 -1.0023 -0.8594
16322TIP3    H270458   2.303   3.522   0.704  1.9520 -2.2153  0.4133
16323TIP3   OH270459   2.528   6.781   5.997 -0.0485  0.1084  0.1232
16323TIP3    H170460   2.586   6.705   6.000 -1.4285 -1.0037 -0.4028
16323TIP3    H270461   2.584   6.852   5.966  0.8909 -1.0881 -1.0396
16324TIP3   OH270462   4.827   5.757   5.626 -0.1975  0.5451  0.3628
16324TIP3    H170463   4.871   5.768   5.541 -1.5596  3.0546 -0.1135
16324TIP3    H270464   4.876   5.813   5.686 -1.3897  1.6923  0.3175
16325TIP3   OH270465   0.871   5.788  12.705 -0.0530 -0.1436  0.5731
16325TIP3    H170466   0.911   5.858  12.756  0.5432 -0.0429 -0.0064
16325TIP3    H270467   0.877   5.710  12.760  0.7528 -0.0776  0.5879
16326TIP3   OH270468   3.519   5.834  16.330 -0.2440 -0.4163  0.5654
16326TIP3    H170469   3.480   5.920  16.319  0.4484 -0.0204  1.1434
16326TIP3    H270470   3.606   5.851  16.365  0.7171 -1.2466 -1.2840
16327TIP3   OH270471   6.741   1.638   2.955 -0.5042 -0.1419  0.4763
16327TIP3    H170472   6.725   1.638   3.050 -0.8244 -0.8218  0.4320
16327TIP3    H270473   6.836   1.629   2.947 -0.4365  0.3175  0.7327
16328TIP3   OH270474   6.748   3.275   1.517  0.4297  0.2033  0.7340
16328TIP3    H170475   6.730   3.365   1.491 -0.1941  0.3539  1.6466
16328TIP3    H270476   6.802   3.240   1.446  0.5241  1.2327  0.2780
16329TIP3   OH270477   4.207   4.783  12.907 -0.3909 -0.0273  0.0840
16329TIP3    H170478   4.227   4.871  12.873  1.1974 -1.4075 -2.9347
16329TIP3    H270479   4.272   4.770  12.977  1.6140  0.0352 -1.6800
16330TIP3   OH270480   2.324   6.722  11.937  0.1578  0.8118  0.0965
16330TIP3    H170481   2.264   6.659  11.976  0.8481  1.2011  1.8671
16330TIP3    H270482   2.270   6.771  11.875 -0.5055 -1.1416 -0.9429
16331TIP3   OH270483   2.565   6.210   6.186 -0.4790  0.0926  0.6152
16331TIP3    H170484   2.606   6.157   6.118 -1.2564  0.6368 -0.2971
16331TIP3    H270485   2.634   6.224   6.250  1.2132  2.0949 -1.4949
16332TIP3   OH270486   3.171   2.920   0.170 -0.5781  0.1570  0.2255
16332TIP3    H170487   3.230   2.859   0.125 -1.1002 -0.0859 -0.1500
16332TIP3    H270488   3.227   2.967   0.232  0.1044  0.2891 -0.4767
16333TIP3   OH270489   6.801   0.402   1.065 -0.4906 -0.1852 -0.0120
16333TIP3    H170490   6.729   0.448   1.108 -0.9990  0.7688 -1.7783
16333TIP3    H270491   6.876   0.416   1.122 -0.7871  2.3082 -0.1469
16334TIP3   OH270492   6.675   0.815   4.677 -0.0302 -0.4883  0.9218
16334TIP3    H170493   6.646   0.888   4.621 -1.4975  0.3156  2.6064
16334TIP3    H270494   6.594   0.768   4.698  0.8915 -2.6418 -0.0870
16335TIP3   OH270495   3.787   2.949  14.835 -0.1964 -0.3865  0.4146
16335TIP3    H170496   3.865   2.902  14.865  0.2522 -0.0344 -0.2088
16335TIP3    H270497   3.760   3.001  14.911  1.3450  1.0446  0.0246
16336TIP3   OH270498   5.863   3.149  12.314  0.2774  0.6246  0.0396
16336TIP3    H170499   5.809   3.099  12.376  0.0072  1.0402  0.1393
16336TIP3    H270500   5.927   3.085  12.282  1.0971  0.6501  1.5221
16337TIP3   OH270501   2.747   5.658   6.974  0.0400 -0.1374  0.0393
16337TIP3    H170502   2.714   5.736   6.929 -0.6632 -1.4013 -1.7800
16337TIP3    H270503   2.668   5.611   7.002  0.4209 -0.7193  0.1548
16338TIP3   OH270504   4.310   0.021  14.987 -0.3200 -0.1116 -0.4669
16338TIP3    H170505   4.272  -0.067  14.984 -0.5862  0.0036 -0.5542
16338TIP3    H270506   4.234   0.080  14.987 -0.1383  0.1383 -1.1691
16339TIP3   OH270507   6.474   6.314   4.935  0.3537 -0.3564 -0.1041
16339TIP3    H170508   6.393   6.344   4.894  1.4861  1.5048 -1.0891
16339TIP3    H270509   6.449   6.292   5.025 -0.6379  3.5938  0.7436
16340TIP3   OH270510   2.578   2.358  15.044  0.1787 -0.4659  0.6248
16340TIP3    H170511   2.512   2.419  15.078  0.3315 -0.3256  0.6722
16340TIP3    H270512   2.553   2.273  15.079  0.2062 -0.3582  0.9057
16341TIP3   OH270513   3.995   4.303   1.745 -0.9692  0.2782  0.1480
16341TIP3    H170514   3.979   4.393   1.716 -0.5525  0.9687  1.9370
16341TIP3    H270515   4.055   4.312   1.819 -1.8626 -1.3733  1.1279
16342TIP3   OH270516   2.341   4.445  14.660 -0.3355 -0.3267  0.6899
16342TIP3    H170517   2.246   4.442  14.650 -0.2453 -0.8196 -0.1373
16342TIP3    H270518   2.371   4.500  14.588  0.1390 -1.6821 -0.1766
16343TIP3   OH270519   5.607   2.614   2.858  0.2256  0.4794  0.1815
16343TIP3    H170520   5.531   2.582   2.811  0.8371  1.2449 -1.3991
16343TIP3    H270521   5.578   2.622   2.949 -0.5465 -2.4892  0.2959
16344TIP3   OH270522   2.138   5.972  17.295  0.0991 -0.9802 -0.0607
16344TIP3    H170523   2.195   5.943  17.224 -0.6077 -1.2109 -0.5326
16344TIP3    H270524   2.132   6.067  17.284  0.5553 -0.9253  0.1189
16345TIP3   OH270525   1.790   0.739   1.507 -0.1736 -0.6304 -0.1866
16345TIP3    H170526   1.707   0.725   1.460 -0.4428  1.6637 -0.5242
16345TIP3    H270527   1.828   0.816   1.465  1.0426 -0.2974  1.4382
16346TIP3   OH270528   6.231   5.755   1.950 -0.1831 -0.3533  0.2477
16346TIP3    H170529   6.303   5.700   1.921  1.5850  1.5513  0.7795
16346TIP3    H270530   6.230   5.828   1.887 -1.6839 -0.3450  0.2438
16347TIP3   OH270531   6.325   4.445   6.086  0.5499  0.6520 -0.5470
16347TIP3    H170532   6.323   4.527   6.136 -0.9228  1.1318 -1.3350
16347TIP3    H270533   6.402   4.399   6.120 -0.5700  0.7421  2.4696
16348TIP3   OH270534   4.749   2.619  12.344  0.4035  0.0152 -0.2616
16348TIP3    H170535   4.788   2.693  12.391  0.6110  0.2586 -0.8033
16348TIP3    H270536   4.776   2.632  12.253 -3.5116  2.0041 -1.3755
16349TIP3   OH270537   4.891   6.395  14.575 -0.5759  0.0011 -0.2025
16349TIP3    H170538   4.968   6.439  14.609 -2.2139  1.5326  1.8087
16349TIP3    H270539   4.925   6.331  14.513  2.4019 -0.5267  1.7774
16350TIP3   OH270540   6.018   5.777  14.188 -0.3618 -0.8351  0.2329
16350TIP3    H170541   6.022   5.793  14.282 -0.4084  0.9140 -0.0272
16350TIP3    H270542   5.933   5.813  14.161  0.7012  1.0307 -0.8440
16351TIP3   OH270543   1.408   2.998   4.784  0.6000 -0.2604  0.4319
16351TIP3    H170544   1.475   3.019   4.848  1.9903  0.8003 -1.2832
16351TIP3    H270545   1.435   3.044   4.705 -2.0971  0.1189 -0.3735
16352TIP3   OH270546   6.164   1.977   5.374 -0.3459  0.3122  0.2765
16352TIP3    H170547   6.199   2.022   5.451 -1.2733 -0.6997  1.3367
16352TIP3    H270548   6.241   1.942   5.329  0.2934  1.9183  0.0814
16353TIP3   OH270549   0.922   6.000  16.173  0.5036  0.2281 -0.0000
16353TIP3    H170550   0.917   6.086  16.216 -0.4955  0.6243 -0.8819
16353TIP3    H270551   1.011   5.996  16.138  1.5028 -0.2881  2.4192
16354TIP3   OH270552   1.486   1.183   2.927  0.2244 -0.2547 -0.3266
16354TIP3    H170553   1.558   1.239   2.955  0.4698 -0.5157 -0.4318
16354TIP3    H270554   1.519   1.094   2.937  0.8473 -0.3696 -2.7087
16355TIP3   OH270555   1.879   2.750  12.685 -0.0721 -0.0440  0.6935
16355TIP3    H170556   1.850   2.777  12.598  0.3783  1.5341  1.0048
16355TIP3    H270557   1.819   2.679  12.709  0.3970 -1.1807 -1.2630
16356TIP3   OH270558   3.101   3.274   4.906  0.4601 -0.5401  0.1862
16356TIP3    H170559   3.109   3.283   5.000 -0.1629  0.7829  0.1239
16356TIP3    H270560   3.007   3.269   4.890  0.5826 -2.1461 -0.2698
16357TIP3   OH270561   3.163   0.125   1.779  0.1052  0.3332 -0.3483
16357TIP3    H170562   3.120   0.048   1.743 -0.3078 -0.2776  1.3330
16357TIP3    H270563   3.151   0.117   1.874  2.0283  1.2803  0.0349
16358TIP3   OH270564   1.865   0.975  14.310 -0.0673  0.3634  0.1658
16358TIP3    H170565   1.854   0.949  14.402 -0.1137  0.9359  0.3256
16358TIP3    H270566   1.948   1.021  14.308  1.5088 -2.2879 -0.6777
16359TIP3   OH270567   0.021   1.216  17.211 -0.2155  0.3295  0.4578
16359TIP3    H170568   0.116   1.223  17.204 -0.1811  1.0002  1.3959
16359TIP3    H270569   0.002   1.243  17.301 -1.4944  2.4694 -0.4028
16360TIP3   OH270570   5.567   3.148   5.041  0.3902  0.2933  0.4914
16360TIP3    H170571   5.519   3.196   5.108  1.2580  2.4284 -0.2940
16360TIP3    H270572   5.659   3.173   5.056  0.7647 -0.4028 -0.5369
16361TIP3   OH270573   6.005   2.421  17.007  0.3498  0.3497 -0.4088
16361TIP3    H170574   6.038   2.484  16.942  1.1861 -0.6087 -0.9414
16361TIP3    H270575   6.056   2.440  17.086  1.2541 -0.2298 -0.8337
16362TIP3   OH270576   0.817   1.853   0.947 -0.4937  0.0100 -0.6211
16362TIP3    H170577   0.743   1.843   1.006  0.3437  1.2372  0.7180
16362TIP3    H270578   0.783   1.830   0.860 -2.0393 -0.8054  0.1671
16363TIP3   OH270579   3.276   3.192   5.637  0.2614 -0.1962 -0.0096
16363TIP3    H170580   3.204   3.254   5.631 -0.3272 -0.8761 -0.1655
16363TIP3    H270581   3.350   3.243   5.670 -1.3933 -0.3533  4.4905
16364TIP3   OH270582   5.823   1.524   1.488  0.1965  0.1162 -0.5489
16364TIP3    H170583   5.882   1.474   1.432 -0.7623 -1.0019 -0.6079
16364TIP3    H270584   5.879   1.586   1.533  1.3436 -0.5817 -0.9725
16365TIP3   OH270585   3.590   3.222  12.311  0.6725 -0.1443  0.0344
16365TIP3    H170586   3.516   3.170  12.341  1.5229  0.4165  3.4976
16365TIP3    H270587   3.607   3.190  12.222 -1.3364 -2.8788  0.5014
16366TIP3   OH270588   4.765   4.060  10.906  0.6289  0.3639 -0.0571
16366TIP3    H170589   4.685   4.042  10.954  1.7012 -1.0840  1.2991
16366TIP3    H270590   4.816   3.979  10.912  2.2850  1.2917 -0.7099
16367TIP3   OH270591   3.474   0.797   3.342  0.5640 -0.3148 -0.0103
16367TIP3    H170592   3.480   0.892   3.345 -0.0528 -0.2707  2.8557
16367TIP3    H270593   3.392   0.780   3.297  0.1069  0.5725  0.4584
16368TIP3   OH270594   2.195   4.012  12.184 -0.3976  0.0042  0.2201
16368TIP3    H170595   2.256   4.085  12.171  0.4970 -0.8885 -0.7744
16368TIP3    H270596   2.161   4.025  12.272  0.4565  1.0997  0.4158
16369TIP3   OH270597   2.804   3.204  16.371  0.0492  0.5793  0.2898
16369TIP3    H170598   2.820   3.297  16.356  0.5806  0.5605  0.7210
16369TIP3    H270599   2.708   3.196  16.374 -0.0063  1.3809  1.8692
16370TIP3   OH270600   4.921   5.840  16.740 -0.1854 -0.2032 -0.0941
16370TIP3    H170601   4.951   5.850  16.831  0.3531 -0.5897 -0.2242
16370TIP3    H270602   4.985   5.889  16.688 -0.4748 -0.0103 -0.2680
16371TIP3   OH270603   3.432   1.577  16.717 -0.0156  0.0530 -0.9681
16371TIP3    H170604   3.394   1.660  16.745  1.6563  0.8733 -0.9771
16371TIP3    H270605   3.425   1.520  16.794  1.3016  1.1265 -0.0147
16372TIP3   OH270606   0.571   2.280  13.803  0.0669  0.1148 -0.2412
16372TIP3    H170607   0.589   2.359  13.854  0.8463 -0.6187  0.6445
16372TIP3    H270608   0.562   2.211  13.868 -0.7943 -0.5091 -0.9957
16373TIP3   OH270609   1.400   3.649  11.443 -0.6055 -0.0355 -0.6092
16373TIP3    H170610   1.394   3.690  11.357 -0.2370 -2.6220 -1.9579
16373TIP3    H270611   1.488   3.669  11.473  0.1023 -1.0389 -1.9194
16374TIP3   OH270612   1.144   1.549   0.792 -0.1046 -0.8465 -0.3804
16374TIP3    H170613   1.153   1.493   0.714  0.2442  0.8476 -1.6269
16374TIP3    H270614   1.050   1.550   0.810 -0.4794  0.3559 -2.1000
16375TIP3   OH270615   3.759   0.409   0.097  0.2488 -0.0210 -0.4479
16375TIP3    H170616   3.809   0.371   0.025 -1.6829 -2.0492 -0.8342
16375TIP3    H270617   3.821   0.467   0.142  1.9982 -0.0544 -2.6648
16376TIP3   OH270618   2.968   6.535   4.408  0.0061  0.3120 -0.0312
16376TIP3    H170619   2.965   6.623   4.369  2.1749  0.6076  0.3137
16376TIP3    H270620   2.999   6.550   4.497  0.1268 -0.7712  0.1182
16377TIP3   OH270621   1.182   4.828  11.408  0.5902  0.1590  0.4369
16377TIP3    H170622   1.155   4.852  11.497  2.7263  1.1842  0.8885
16377TIP3    H270623   1.111   4.858  11.352 -0.2682  0.5739  1.6982
16378TIP3   OH270624   3.493   0.540  17.283  0.8715 -0.0652 -0.9242
16378TIP3    H170625   3.539   0.478  17.341  0.8899  2.7155  2.3880
16378TIP3    H270626   3.561   0.571  17.223  1.4979 -1.3117 -0.8902
16379TIP3   OH270627   3.731   0.176   6.270  0.2750 -0.2142  0.0035
16379TIP3    H170628   3.676   0.127   6.331  0.2892  0.0534  0.2284
16379TIP3    H270629   3.686   0.168   6.186 -0.6010  0.7812  0.3610
16380TIP3   OH270630   6.713   3.889   2.974  0.0080  0.2948 -0.5006
16380TIP3    H170631   6.647   3.849   3.030  2.3013 -0.4146  1.8951
16380TIP3    H270632   6.759   3.951   3.031  1.5925  0.5427 -1.9495
16381TIP3   OH270633   5.582   1.264  16.455  0.0111 -0.3453 -0.3865
16381TIP3    H170634   5.666   1.310  16.453 -0.1733 -0.0354 -1.2435
16381TIP3    H270635   5.601   1.183  16.502  0.9909 -0.6489 -1.2591
16382TIP3   OH270636   2.060   5.140   2.674  0.9456 -0.2802  0.2432
16382TIP3    H170637   1.996   5.069   2.682 -0.2204  0.6107 -0.8471
16382TIP3    H270638   2.142   5.101   2.705 -0.0843 -1.4736  1.6009
16383TIP3   OH270639   0.629   6.327   4.814  0.2910 -0.2048 -0.0058
16383TIP3    H170640   0.575   6.257   4.850 -0.4729  0.6454  0.5404
16383TIP3    H270641   0.629   6.395   4.882  0.6576  0.5102 -0.6996
16384TIP3   OH270642   2.429   5.184   4.926  0.3153 -0.2719 -0.3651
16384TIP3    H170643   2.374   5.184   5.004 -1.8401  0.7188 -1.7678
16384TIP3    H270644   2.447   5.091   4.910 -0.6124 -0.5975  0.3853
16385TIP3   OH270645   6.214   2.651  17.052  0.2397  0.2901  0.3999
16385TIP3    H170646   6.293   2.604  17.079 -0.4448 -0.3540  1.3422
16385TIP3    H270647   6.182   2.693  17.132 -1.0280 -0.4587  0.3140
16386TIP3   OH270648   2.763   3.451   5.044 -0.1047 -0.2222  0.4139
16386TIP3    H170649   2.808   3.532   5.069 -0.6372  0.3700 -0.5091
16386TIP3    H270650   2.804   3.384   5.099 -1.9951  1.1503  3.8472
16387TIP3   OH270651   2.179   0.700   5.114  0.1169 -0.3447  0.9193
16387TIP3    H170652   2.108   0.751   5.154 -0.1748 -1.1086  1.4056
16387TIP3    H270653   2.259   0.744   5.144 -0.1399  1.1679 -0.5108
16388TIP3   OH270654   3.005   3.738   2.677  0.6060  0.6063 -0.1824
16388TIP3    H170655   2.933   3.769   2.731 -1.1956  0.5194 -2.4011
16388TIP3    H270656   3.062   3.814   2.665  1.1052  0.5978  1.8391
16389TIP3   OH270657   4.186   1.951   1.673  0.2544 -0.1815 -0.3861
16389TIP3    H170658   4.230   1.924   1.593 -0.5658  0.0812 -0.9411
16389TIP3    H270659   4.113   2.005   1.643 -1.0222 -1.3712  0.4492
16390TIP3   OH270660   2.329   0.217  12.910 -0.1710 -0.1026 -0.1113
16390TIP3    H170661   2.327   0.274  12.987 -0.4965 -0.5385  0.2038
16390TIP3    H270662   2.358   0.275  12.839  0.2941  0.2622  0.3639
16391TIP3   OH270663   5.682   2.395   4.494 -0.4821  0.2868  0.1087
16391TIP3    H170664   5.758   2.401   4.436  0.0391 -0.4345  0.6951
16391TIP3    H270665   5.719   2.393   4.582 -1.0338 -1.8893  0.3647
16392TIP3   OH270666   1.470   1.800  15.785 -0.0827 -0.3587 -0.8086
16392TIP3    H170667   1.480   1.705  15.797 -1.3167 -0.6633 -1.9812
16392TIP3    H270668   1.505   1.817  15.697 -0.1172  0.2426 -0.7074
16393TIP3   OH270669   1.973   4.868   1.739 -0.4351 -0.3984  0.3821
16393TIP3    H170670   1.951   4.961   1.750 -2.0816 -0.7106  0.0357
16393TIP3    H270671   2.042   4.868   1.673 -1.9681  0.5098 -1.3363
16394TIP3   OH270672   5.939   3.437   3.933 -0.1065 -0.5958  0.3623
16394TIP3    H170673   5.876   3.507   3.919 -3.0885 -2.8172  1.6582
16394TIP3    H270674   5.919   3.372   3.866  0.1184 -1.7799  1.4105
16395TIP3   OH270675   6.100   0.071  13.220  0.4469 -0.3915  0.0369
16395TIP3    H170676   6.022   0.106  13.178  0.2727  0.6197  1.1451
16395TIP3    H270677   6.076  -0.017  13.248 -0.9985  0.5920  2.1104
16396TIP3   OH270678   4.513   1.348  14.663  0.3115 -0.5502 -0.0359
16396TIP3    H170679   4.427   1.314  14.685  0.4334 -1.0442 -0.3215
16396TIP3    H270680   4.514   1.436  14.700  0.1079 -0.9635  0.9854
16397TIP3   OH270681   4.758   0.297  14.064 -0.1139 -0.1813 -0.4033
16397TIP3    H170682   4.831   0.286  14.124 -0.6633 -2.5635 -0.0916
16397TIP3    H270683   4.686   0.328  14.119 -0.0205 -0.2182 -0.2617
16398TIP3   OH270684   4.317   4.988   5.958 -0.1105  0.3635 -0.8088
16398TIP3    H170685   4.347   5.053   6.022 -2.0863  0.5832 -0.0544
16398TIP3    H270686   4.390   4.926   5.952 -1.2067 -2.2576  5.0632
16399TIP3   OH270687   3.122   3.135   0.576 -0.3512  0.2376  0.3581
16399TIP3    H170688   3.042   3.162   0.531  0.3773  0.8279 -0.6199
16399TIP3    H270689   3.104   3.045   0.603 -1.8050  0.7716  1.2815
16400TIP3   OH270690   5.359   1.987  12.358 -0.3283  0.1894  0.0443
16400TIP3    H170691   5.453   1.998  12.341  0.0850 -0.4595  1.6886
16400TIP3    H270692   5.320   1.978  12.271  0.8405  2.4540 -0.8020
16401TIP3   OH270693   3.955   3.836  13.628  0.3546 -0.0228  0.0388
16401TIP3    H170694   3.970   3.804  13.539 -0.7977 -1.0117  0.1781
16401TIP3    H270695   3.938   3.930  13.617 -2.5151 -0.5888 -1.1499
16402TIP3   OH270696   6.727   4.856  15.213  0.0052 -0.2213  0.0499
16402TIP3    H170697   6.697   4.766  15.214  0.9392 -0.5830 -1.1563
16402TIP3    H270698   6.654   4.906  15.175 -1.0607 -0.2072  2.0177
16403TIP3   OH270699   5.819   1.612  15.568 -0.2818 -0.3605  1.3035
16403TIP3    H170700   5.897   1.651  15.608  0.4743 -0.9123  0.3964
16403TIP3    H270701   5.785   1.552  15.635  0.7708 -1.0109  1.2821
16404TIP3   OH270702   3.896   3.335  15.227 -0.2421 -0.3842  0.4923
16404TIP3    H170703   3.910   3.426  15.201 -1.0827  0.0648  1.5683
16404TIP3    H270704   3.857   3.294  15.149  2.4924 -0.5187 -0.9207
16405TIP3   OH270705   5.972   5.511  14.380  0.3281  0.4702  0.3646
16405TIP3    H170706   6.009   5.588  14.336 -0.1938  0.8182  0.5185
16405TIP3    H270707   6.025   5.438  14.349  0.2766  0.7738 -0.4718
16406TIP3   OH270708   5.355   2.051  15.988 -0.2203 -0.1706  0.2431
16406TIP3    H170709   5.282   2.013  15.939 -1.0809  2.0593 -0.3030
16406TIP3    H270710   5.427   2.055  15.925 -1.0072  1.7161 -0.5832
16407TIP3   OH270711   6.077   2.227  14.410 -0.0389 -0.0799 -0.1769
16407TIP3    H170712   6.045   2.300  14.358 -2.1542 -0.6963  0.1836
16407TIP3    H270713   5.999   2.181  14.438  1.0843 -0.5557  2.4634
16408TIP3   OH270714   3.353   2.088  17.273  0.0928  0.0257 -0.4642
16408TIP3    H170715   3.429   2.086  17.332 -0.1258 -0.2719 -0.1905
16408TIP3    H270716   3.384   2.136  17.196  0.4342  0.2661 -0.1801
16409TIP3   OH270717   3.748   2.119   3.829  0.0601 -0.4032 -0.0192
16409TIP3    H170718   3.769   2.195   3.884  0.2980 -0.5599  0.1089
16409TIP3    H270719   3.669   2.082   3.868 -0.0603 -0.2178 -0.0860
16410TIP3   OH270720   3.683   1.940   1.852 -0.2323  0.3886  0.1193
16410TIP3    H170721   3.609   1.887   1.823  0.1199  1.1058 -2.2741
16410TIP3    H270722   3.697   2.003   1.781  1.8093  1.1690  1.1342
16411TIP3   OH270723   5.783   5.637  12.510  0.0137 -0.4918  0.2005
16411TIP3    H170724   5.792   5.604  12.421 -0.0113 -2.3506  0.8499
16411TIP3    H270725   5.811   5.565  12.566 -0.4737  0.4460  1.7262
16412TIP3   OH270726   5.922   5.309  16.099  0.2949  0.2294  0.0059
16412TIP3    H170727   5.909   5.229  16.047  0.5645 -0.2473  0.6541
16412TIP3    H270728   5.843   5.317  16.152  0.3306  0.3133  0.0468
16413TIP3   OH270729   5.333   1.474  13.341 -0.3630 -0.5285  0.1455
16413TIP3    H170730   5.318   1.453  13.433  0.9605  1.6187  0.9277
16413TIP3    H270731   5.416   1.521  13.340  0.4637 -1.8323 -2.3916
16414TIP3   OH270732   4.564   2.087   2.011 -0.2026  0.0702 -0.2215
16414TIP3    H170733   4.485   2.064   1.963  0.5810 -2.0918 -0.5771
16414TIP3    H270734   4.620   2.010   2.004  1.7232  1.3214  0.4934
16415TIP3   OH270735   4.202   5.319  13.831  0.2927 -0.0789 -0.1976
16415TIP3    H170736   4.297   5.317  13.831  0.3276  0.4956 -1.5144
16415TIP3    H270737   4.180   5.408  13.801 -0.6498 -0.2610 -0.0774
16416TIP3   OH270738   5.334   3.881   2.451  0.1063  0.0006 -0.4920
16416TIP3    H170739   5.372   3.797   2.477  1.2443  0.8981  0.9211
16416TIP3    H270740   5.334   3.879   2.356  0.9998 -1.2151 -0.4902
16417TIP3   OH270741   0.842   5.981  13.925 -0.1033 -0.1197  0.2108
16417TIP3    H170742   0.882   6.033  13.994 -1.0092  0.4435  0.3317
16417TIP3    H270743   0.758   6.024  13.908 -0.4760 -1.0162 -0.3125
16418TIP3   OH270744   4.894   4.071   4.739  0.0172  0.3217 -0.0063
16418TIP3    H170745   4.933   4.084   4.825  0.2625  0.0622 -0.0772
16418TIP3    H270746   4.916   4.149   4.689  2.4242 -0.7829 -0.7925
16419TIP3   OH270747   5.396   2.634  10.851  0.0205 -0.0179 -0.1694
16419TIP3    H170748   5.329   2.669  10.792  1.9340  1.1545 -1.7810
16419TIP3    H270749   5.366   2.659  10.939 -1.6947  0.3259 -0.7962
16420TIP3   OH270750   6.580   1.163   1.186 -0.4052 -0.0946  0.3718
16420TIP3    H170751   6.617   1.201   1.266 -2.1916  0.8382  0.8079
16420TIP3    H270752   6.595   1.229   1.118 -1.6464  0.5406  0.6707
16421TIP3   OH270753   2.047   4.588   0.088  0.2529  0.0764 -0.2816
16421TIP3    H170754   2.059   4.581  -0.007  1.4021 -0.6912 -0.0901
16421TIP3    H270755   1.988   4.663   0.099  0.6003  0.5545 -1.5630
16422TIP3   OH270756   6.403   1.652  12.517 -0.3769  0.0262 -0.0324
16422TIP3    H170757   6.335   1.709  12.482  1.0969  1.0875 -1.3800
16422TIP3    H270758   6.391   1.654  12.612 -1.8399  0.6473 -0.2110
16423TIP3   OH270759   0.330   4.555  14.678 -0.0765 -0.2426  0.4643
16423TIP3    H170760   0.410   4.568  14.627 -0.3041  1.2584  0.4405
16423TIP3    H270761   0.267   4.520  14.616  0.0998  0.1181  0.0761
16424TIP3   OH270762   0.848   4.909   5.957 -0.2462  0.4930  0.1996
16424TIP3    H170763   0.895   4.919   6.039  0.0332 -0.2756  0.1444
16424TIP3    H270764   0.795   4.988   5.949  1.9046  1.9720 -0.3121
16425TIP3   OH270765   6.400   6.609  16.954 -0.1325  0.5228  0.4828
16425TIP3    H170766   6.419   6.532  16.901  1.1039 -0.5434  2.3547
16425TIP3    H270767   6.312   6.635  16.929 -0.5486 -1.4750 -0.2528
16426TIP3   OH270768   5.636   1.970   0.459 -0.0049  0.2879 -0.3522
16426TIP3    H170769   5.710   2.001   0.406  1.0891 -2.8241 -0.8419
16426TIP3    H270770   5.588   1.911   0.401 -1.3053  0.1239  0.8341
16427TIP3   OH270771   3.301   4.747  13.560  0.1074 -0.5363  0.0796
16427TIP3    H170772   3.303   4.803  13.637 -1.6428 -0.7750  0.3293
16427TIP3    H270773   3.306   4.807  13.486  1.0865 -0.2638  0.3507
16428TIP3   OH270774   0.455   5.686   1.937 -0.3403 -0.5509 -0.2249
16428TIP3    H170775   0.470   5.631   1.861 -0.8198 -0.3026 -0.5075
16428TIP3    H270776   0.517   5.655   2.003  0.0443 -0.7947 -0.7022
16429TIP3   OH270777   4.580   3.606   0.482  0.5646 -0.1064  0.0864
16429TIP3    H170778   4.640   3.614   0.556  0.2079  0.2802  0.3346
16429TIP3    H270779   4.608   3.676   0.422  0.5269 -0.0971  0.0801
16430TIP3   OH270780   6.004   1.936  11.721 -0.3654  0.6593 -0.6365
16430TIP3    H170781   6.048   1.905  11.801 -1.6348  1.1326  0.2674
16430TIP3    H270782   5.955   2.013  11.749 -2.1479 -0.1139 -1.4945
16431TIP3   OH270783   4.368   3.728   0.060 -0.2597 -0.0914 -0.5151
16431TIP3    H170784   4.386   3.753  -0.030 -1.5967  0.2478 -0.7088
16431TIP3    H270785   4.439   3.768   0.111 -0.4478  1.1857 -1.2196
16432TIP3   OH270786   0.982   0.565  12.357  0.4880  0.5376 -0.0405
16432TIP3    H170787   1.020   0.637  12.308 -0.9612 -0.0448 -2.1708
16432TIP3    H270788   0.914   0.606  12.411 -0.5378  0.7753 -1.4689
16433TIP3   OH270789   3.284   0.879  15.674 -0.3574 -0.9120 -0.2220
16433TIP3    H170790   3.264   0.793  15.711 -0.3172 -1.2286 -0.9056
16433TIP3    H270791   3.245   0.876  15.586 -0.1032 -0.3407 -0.3579
16434TIP3   OH270792   5.351   5.268   5.955 -0.1882  0.6393 -0.1422
16434TIP3    H170793   5.406   5.334   5.913 -0.0527  1.5916  1.4699
16434TIP3    H270794   5.305   5.226   5.882  2.0093  0.3824 -1.4654
16435TIP3   OH270795   3.441   5.824   1.495 -0.0977 -0.1077 -0.4228
16435TIP3    H170796   3.437   5.840   1.589  1.1742 -0.6675 -0.2574
16435TIP3    H270797   3.519   5.871   1.465 -0.4135 -0.0404 -1.1762
16436TIP3   OH270798   0.829   0.809  12.374  0.0049  0.2960  0.0778
16436TIP3    H170799   0.764   0.860  12.325 -3.2961 -1.5955  2.1185
16436TIP3    H270800   0.851   0.865  12.449  0.7571  0.9447 -0.6164
16437TIP3   OH270801   5.820   3.913   3.696  0.1635 -0.1086  0.1805
16437TIP3    H170802   5.734   3.947   3.720 -0.1106 -0.3155 -0.4708
16437TIP3    H270803   5.855   3.977   3.634 -0.7377 -1.3784 -1.7663
16438TIP3   OH270804   1.763   6.674   2.306  0.5285  0.2028 -0.5681
16438TIP3    H170805   1.693   6.724   2.347  0.6164 -0.7883  0.8573
16438TIP3    H270806   1.841   6.697   2.356  0.8341 -0.2634 -0.8232
16439TIP3   OH270807   0.877   4.374  11.488  0.3738 -0.1696  0.4405
16439TIP3    H170808   0.866   4.448  11.547 -1.5628  1.1851 -1.4881
16439TIP3    H270809   0.934   4.406  11.419 -0.6425 -0.3707 -0.5168
16440TIP3   OH270810   3.432   0.872   3.916 -0.3408  0.7026 -0.5303
16440TIP3    H170811   3.425   0.879   3.821 -0.4570 -0.0743 -0.5845
16440TIP3    H270812   3.350   0.908   3.949 -0.2333  1.1199 -0.7198
16441TIP3   OH270813   4.230   6.798  10.620 -0.3194  0.5563 -0.3753
16441TIP3    H170814   4.216   6.715  10.664 -1.4995  0.3718 -1.0558
16441TIP3    H270815   4.220   6.864  10.689  2.3912  0.1244  0.5580
16442TIP3   OH270816   4.135   2.386   0.958 -0.0555  0.0929 -0.1709
16442TIP3    H170817   4.099   2.346   1.038 -1.4346 -0.4419 -1.0303
16442TIP3    H270818   4.083   2.465   0.945 -1.1898 -0.8724 -1.6252
16443TIP3   OH270819   2.833   1.438  14.155 -0.8976  0.1928 -0.3593
16443TIP3    H170820   2.788   1.387  14.223 -0.7421 -1.8722 -1.7018
16443TIP3    H270821   2.869   1.513  14.202 -1.0266 -0.9875  1.7999
16444TIP3   OH270822   0.443   6.703   2.317 -0.0537 -0.1492  0.1932
16444TIP3    H170823   0.492   6.672   2.241 -0.1178  0.1544  0.0285
16444TIP3    H270824   0.355   6.667   2.305 -0.9094  2.2098 -1.3760
16445TIP3   OH270825   3.151   4.080  16.497 -0.0325 -0.4333  0.5771
16445TIP3    H170826   3.063   4.062  16.531  0.5251 -0.8111  1.8952
16445TIP3    H270827   3.195   3.995  16.497  0.5522 -0.1394  0.5912
16446TIP3   OH270828   1.177   0.048  10.858  0.0214 -0.1826 -0.2506
16446TIP3    H170829   1.195  -0.028  10.802 -2.4973 -0.0158 -1.4327
16446TIP3    H270830   1.082   0.055  10.859 -0.0511  0.3127  3.5405
16447TIP3   OH270831   2.222   6.072   4.845  0.7440  0.3381 -0.0363
16447TIP3    H170832   2.133   6.067   4.810  0.0395 -1.7012  1.8101
16447TIP3    H270833   2.250   6.162   4.828 -1.2772  0.7459 -1.5226
16448TIP3   OH270834   5.448   2.497   0.104  0.2630 -0.1657 -0.2029
16448TIP3    H170835   5.516   2.447   0.150 -0.7042 -2.3973 -1.0499
16448TIP3    H270836   5.394   2.533   0.174  0.9073 -0.4413  0.4530
16449TIP3   OH270837   5.527   0.528   5.840 -0.0574  0.2383 -0.2305
16449TIP3    H170838   5.564   0.545   5.927 -0.2712 -0.1914 -0.0502
16449TIP3    H270839   5.482   0.444   5.850  0.3769 -0.0826 -0.9014
16450TIP3   OH270840   2.291   5.472  12.294  0.7404  0.3415  0.2472
16450TIP3    H170841   2.289   5.452  12.200  1.1664  2.6936 -0.3398
16450TIP3    H270842   2.337   5.398  12.334  1.5026 -0.2179 -1.5652
16451TIP3   OH270843   6.459   2.830  11.006  0.3509 -0.1654 -0.5747
16451TIP3    H170844   6.507   2.883  10.943 -0.0242  0.8523 -0.0227
16451TIP3    H270845   6.367   2.842  10.983  0.2073  0.2946  0.2238
16452TIP3   OH270846   4.826   6.272  13.412  0.2420 -0.0423 -0.1531
16452TIP3    H170847   4.809   6.362  13.385 -0.2303  0.1128  0.6081
16452TIP3    H270848   4.849   6.279  13.505  0.5340 -0.6758 -0.1717
16453TIP3   OH270849   3.374   1.329   2.819  0.0912 -0.4415 -0.7370
16453TIP3    H170850   3.435   1.274   2.866  1.7197  1.8282  0.0057
16453TIP3    H270851   3.387   1.306   2.727  0.2899 -1.6568 -0.4233
16454TIP3   OH270852   0.050   4.236   2.080  0.2443  0.1150 -0.2346
16454TIP3    H170853   0.030   4.145   2.104 -1.7579  0.4604 -0.4911
16454TIP3    H270854   0.068   4.233   1.986 -0.0518  0.0284 -0.2872
16455TIP3   OH270855   3.910   6.480  12.060 -0.0328  0.2897  0.4581
16455TIP3    H170856   3.878   6.390  12.055 -0.3570  0.4645 -1.8814
16455TIP3    H270857   3.845   6.531  12.012  0.2463  1.7730  1.5897
16456TIP3   OH270858   4.804   6.096  10.722  0.1388  0.2523 -0.1628
16456TIP3    H170859   4.858   6.092  10.643 -0.8608 -0.3049 -0.8423
16456TIP3    H270860   4.724   6.049  10.698 -0.3460  0.4344  1.0552
16457TIP3   OH270861   0.643   1.238   0.649 -0.3050 -0.1195 -0.3224
16457TIP3    H170862   0.694   1.212   0.725  0.8194  0.0021 -1.0009
16457TIP3    H270863   0.699   1.215   0.574  0.2700  2.9977 -1.0182
16458TIP3   OH270864   4.176   3.550  12.032  0.1936  0.6053 -0.0640
16458TIP3    H170865   4.167   3.584  12.121  0.3692  2.4543 -0.7270
16458TIP3    H270866   4.270   3.531  12.024  0.0649 -0.2882  0.3713
16459TIP3   OH270867   5.529   0.682  15.697 -0.5668 -0.0478 -0.0122
16459TIP3    H170868   5.487   0.596  15.702  2.6471 -1.7757 -0.0832
16459TIP3    H270869   5.563   0.697  15.786 -1.5867  1.5165  0.1674
16460TIP3   OH270870   2.986   1.122   3.128  0.2004 -0.0803 -0.4510
16460TIP3    H170871   2.940   1.206   3.121  2.0293  0.9777 -0.5503
16460TIP3    H270872   2.919   1.056   3.111 -1.7149  1.2481  1.3955
16461TIP3   OH270873   5.848   4.573  14.328 -0.5177  0.6346 -0.9479
16461TIP3    H170874   5.843   4.545  14.420 -0.0887  0.4478 -0.9811
16461TIP3    H270875   5.938   4.558  14.303 -0.6897  0.4741 -1.4767
16462TIP3   OH270876   0.862   1.993  13.612  0.0293  0.5043 -0.1531
16462TIP3    H170877   0.838   2.079  13.580 -0.5067  0.4237  0.0373
16462TIP3    H270878   0.958   1.995  13.615 -0.0073  1.3753  0.6514
16463TIP3   OH270879   1.363   2.900  13.623 -0.3647  0.0108 -0.5617
16463TIP3    H170880   1.336   2.838  13.555  0.4684 -1.9294  0.8016
16463TIP3    H270881   1.438   2.859  13.666 -0.1956  1.6608  0.8632
16464TIP3   OH270882   5.571   0.485   5.505  0.1258  0.4291  0.2266
16464TIP3    H170883   5.586   0.391   5.516  0.5165  0.4230 -0.3227
16464TIP3    H270884   5.628   0.526   5.570 -1.4675  0.2436  1.8171
16465TIP3   OH270885   1.941   0.137   3.740 -0.1104  0.1696 -0.5117
16465TIP3    H170886   1.873   0.090   3.787  1.1483  1.2353  2.6286
16465TIP3    H270887   2.005   0.069   3.716 -1.1199 -0.4903 -1.4305
16466TIP3   OH270888   2.955   2.072   2.130  0.6102 -0.2876 -0.8435
16466TIP3    H170889   2.957   2.163   2.160 -0.7803 -0.0523 -1.3904
16466TIP3    H270890   2.988   2.021   2.205  0.7334  0.6005 -0.2809
16467TIP3   OH270891   6.549   3.883  16.450 -0.0695  0.0090 -0.0454
16467TIP3    H170892   6.525   3.822  16.521 -0.6319 -1.3293 -1.3299
16467TIP3    H270893   6.636   3.913  16.473 -1.1818  1.6422  2.5288
16468TIP3   OH270894   6.231   0.639   3.238  0.4497  0.4331  0.6641
16468TIP3    H170895   6.234   0.731   3.262  0.1501  0.4390  0.6858
16468TIP3    H270896   6.182   0.637   3.155  1.5810  0.4278 -0.0235
16469TIP3   OH270897   0.789   5.178  15.937 -1.0601  0.4772 -0.5618
16469TIP3    H170898   0.884   5.173  15.934 -1.1114 -0.3130 -1.5818
16469TIP3    H270899   0.766   5.143  16.023 -0.3963  1.8222  0.2025
16470TIP3   OH270900   2.007   5.551  11.630 -0.5076  0.1218  0.3249
16470TIP3    H170901   2.078   5.613  11.641 -1.7628  1.3026  2.4044
16470TIP3    H270902   2.012   5.524  11.538  1.9338  0.9430  0.1662
16471TIP3   OH270903   4.302   0.967  15.935  0.4297 -0.3099  0.0179
16471TIP3    H170904   4.225   0.972  15.992  0.8310 -0.8113  0.6066
16471TIP3    H270905   4.322   0.873  15.930  1.1742 -0.1592  0.0989
16472TIP3   OH270906   6.042   4.394  15.713  0.3624 -0.0234  0.0907
16472TIP3    H170907   6.065   4.362  15.800  1.9806 -0.4067 -0.4384
16472TIP3    H270908   6.046   4.316  15.657  1.4610  0.5713 -0.6912
16473TIP3   OH270909   2.118   3.326  13.409  0.1990 -0.1051  0.3224
16473TIP3    H170910   2.029   3.351  13.433  0.0392 -1.0129  0.7142
16473TIP3    H270911   2.111   3.291  13.321  0.4153  1.1536 -0.2091
16474TIP3   OH270912   6.566   1.862   2.668  0.1692  0.5602  0.2097
16474TIP3    H170913   6.552   1.774   2.703  1.2646  0.6488  0.9352
16474TIP3    H270914   6.555   1.920   2.743 -0.3217  1.0283 -0.2165
16475TIP3   OH270915   1.820   0.612   4.909 -0.0332  0.2720 -0.4841
16475TIP3    H170916   1.868   0.640   4.831  0.7592 -0.7159 -0.3731
16475TIP3    H270917   1.867   0.654   4.982 -1.4053  2.0636 -0.5597
16476TIP3   OH270918   5.356   2.884  15.446 -0.7040 -0.3833 -0.0604
16476TIP3    H170919   5.366   2.935  15.365 -0.7829 -0.1832  0.0549
16476TIP3    H270920   5.420   2.923  15.506  1.9386 -2.7579 -1.1006
16477TIP3   OH270921   4.509   1.280   1.745 -0.2054  0.5727 -0.1182
16477TIP3    H170922   4.492   1.194   1.783 -1.6897  0.2606 -1.3810
16477TIP3    H270923   4.588   1.268   1.692 -0.4430 -0.0362 -0.3366
16478TIP3   OH270924   2.614   6.053  17.329  0.3402  0.1239  0.1262
16478TIP3    H170925   2.653   5.965  17.336  2.2749  0.9386  0.3340
16478TIP3    H270926   2.565   6.051  17.247 -0.9012 -1.5864  0.8518
16479TIP3   OH270927   1.925   2.092  14.540  0.4529 -0.0115 -0.1018
16479TIP3    H170928   1.845   2.125  14.581 -0.1804  0.1876 -1.4532
16479TIP3    H270929   1.978   2.059  14.613  0.6488  2.9637  1.2531
16480TIP3   OH270930   2.617   2.559   0.180  0.1719 -0.4621  0.4428
16480TIP3    H170931   2.689   2.567   0.117  0.2653  0.1701  0.6254
16480TIP3    H270932   2.567   2.640   0.170  1.1499  0.4393  2.3864
16481TIP3   OH270933   2.885   5.574  15.607  0.2262 -0.2591  0.5872
16481TIP3    H170934   2.841   5.494  15.582  0.4884 -0.1854 -0.1514
16481TIP3    H270935   2.978   5.550  15.612  0.6428  0.5214 -2.1072
16482TIP3   OH270936   5.706   1.881  15.673 -0.1632 -0.2435 -0.2179
16482TIP3    H170937   5.679   1.912  15.586 -1.9764 -3.2047 -0.8534
16482TIP3    H270938   5.753   1.799  15.656  0.4484 -0.3085  1.5547
16483TIP3   OH270939   0.635   0.632  17.158 -0.6156 -0.3148  0.4092
16483TIP3    H170940   0.717   0.676  17.182 -1.3390  1.5659 -0.4385
16483TIP3    H270941   0.588   0.695  17.105  0.1901 -3.4881 -4.8891
16484TIP3   OH270942   1.643   2.880  11.855 -0.3063  0.1467  0.0733
16484TIP3    H170943   1.551   2.857  11.842 -0.3101 -0.0728  0.4745
16484TIP3    H270944   1.693   2.808  11.817 -0.3123 -0.2037  0.7155
16485TIP3   OH270945   3.261   0.430  17.204 -0.4100  0.7239 -0.0958
16485TIP3    H170946   3.341   0.459  17.248 -1.0854  0.2379  1.5457
16485TIP3    H270947   3.230   0.508  17.157  0.8139  1.0157 -0.4342
16486TIP3   OH270948   3.216   0.050  17.269  0.0247 -0.0306  0.2169
16486TIP3    H170949   3.175   0.133  17.293 -0.0328 -0.5165  1.9244
16486TIP3    H270950   3.143  -0.005  17.239 -0.0785  0.2346 -0.0141
16487TIP3   OH270951   4.919   3.957   4.056  0.5951 -0.1678  0.1143
16487TIP3    H170952   5.004   4.001   4.063  0.4861  0.1039 -0.2435
16487TIP3    H270953   4.886   3.980   3.969  0.4021 -0.7255  0.0323
16488TIP3   OH270954   0.693   1.248  11.559  0.0206 -0.3370 -0.6400
16488TIP3    H170955   0.605   1.272  11.532 -0.5471 -1.0148  0.5205
16488TIP3    H270956   0.750   1.289  11.495 -1.0415  1.4818 -0.4880
16489TIP3   OH270957   1.796   2.332   4.002  0.0908  0.2517 -0.2221
16489TIP3    H170958   1.729   2.327   3.934 -1.9736 -2.1603  1.7665
16489TIP3    H270959   1.748   2.354   4.081  1.7245 -0.8969  1.1647
16490TIP3   OH270960   4.000   5.588  11.445 -0.1813  0.5133  0.0114
16490TIP3    H170961   4.050   5.554  11.520 -0.7912 -0.5398 -0.0349
16490TIP3    H270962   3.913   5.549  11.455 -1.0130  2.2884  0.0677
16491TIP3   OH270963   4.214   5.564  12.493 -0.3228  0.2227 -0.7168
16491TIP3    H170964   4.194   5.536  12.404 -0.3390  1.4349 -1.1146
16491TIP3    H270965   4.310   5.569  12.496 -0.1544 -2.3208  0.1554
16492TIP3   OH270966   6.454   3.115   2.869 -0.3885 -0.0345  0.3471
16492TIP3    H170967   6.380   3.072   2.913 -0.8282  1.4048  1.1135
16492TIP3    H270968   6.526   3.053   2.877 -1.4936 -1.5062 -0.4636
16493TIP3   OH270969   4.007   2.202   1.154  0.0779 -0.4601 -0.2166
16493TIP3    H170970   3.949   2.230   1.224 -1.4740 -1.3107 -1.0957
16493TIP3    H270971   3.962   2.128   1.113  1.8003 -1.1746 -0.9542
16494TIP3   OH270972   5.951   4.981  17.187 -0.7840 -0.5034  0.2237
16494TIP3    H170973   5.859   4.976  17.160 -0.2960 -2.0771 -1.3392
16494TIP3    H270974   5.959   4.913  17.255 -0.1619 -2.6461 -1.8506
16495TIP3   OH270975   1.988   3.344   0.010 -0.0611 -0.0136  0.3220
16495TIP3    H170976   2.025   3.361  -0.076  0.6116  0.2467  0.6510
16495TIP3    H270977   1.893   3.339  -0.004  0.1304 -1.5741 -0.6898
16496TIP3   OH270978   6.689   1.516   1.364 -0.5653 -0.2368  0.1828
16496TIP3    H170979   6.632   1.572   1.417 -0.0610  0.8956 -0.4396
16496TIP3    H270980   6.664   1.427   1.388 -1.5032  0.2470  1.0771
16497TIP3   OH270981   3.868   4.072  12.239 -0.5410 -0.1648 -0.2107
16497TIP3    H170982   3.822   4.105  12.317 -0.0824  2.1783 -0.8723
16497TIP3    H270983   3.957   4.056  12.269  0.2219  2.7600 -0.6233
16498TIP3   OH270984   0.521   5.570  12.065 -0.0975 -0.0805  0.1736
16498TIP3    H170985   0.486   5.483  12.043 -0.7754 -0.2259  1.6738
16498TIP3    H270986   0.454   5.608  12.122  1.1502  0.5741  1.2311
16499TIP3   OH270987   2.196   0.299   2.126 -0.3324 -0.4656  0.5850
16499TIP3    H170988   2.207   0.204   2.131 -0.5021 -0.4656  0.9957
16499TIP3    H270989   2.110   0.316   2.163 -0.1607 -0.1197  0.8436
16500TIP3   OH270990   3.069   2.668  13.401  0.0663  0.2039  0.0583
16500TIP3    H170991   2.974   2.663  13.390 -0.0983  0.6607  1.1383
16500TIP3    H270992   3.101   2.706  13.319 -0.4111 -2.1057 -1.2771
16501TIP3   OH270993   1.110   2.318  17.205  0.0824 -0.1136 -0.2755
16501TIP3    H170994   1.101   2.343  17.297  1.1800  0.8087 -0.3980
16501TIP3    H270995   1.162   2.388  17.165 -0.5329 -0.3998 -1.6473
16502TIP3   OH270996   0.906   6.208   2.627 -0.5933  0.4476 -0.1510
16502TIP3    H170997   0.840   6.244   2.686 -0.7665  0.6995 -0.4966
16502TIP3    H270998   0.975   6.274   2.626 -0.1354 -0.0173  0.5533
16503TIP3   OH270999   3.754   3.220  10.972  0.0660 -0.5795  0.2088
16503TIP3    H171000   3.835   3.223  11.024  0.6503 -0.4083 -0.6797
16503TIP3    H271001   3.761   3.295  10.913 -0.2591 -1.1576 -0.5807
16504TIP3   OH271002   3.610   6.573  14.013  0.1683 -0.3097  0.1669
16504TIP3    H171003   3.571   6.601  14.096  0.5300  0.3216  0.1330
16504TIP3    H271004   3.637   6.655  13.971 -2.3477 -0.3403 -1.7769
16505TIP3   OH271005   2.224   2.470   6.189 -0.0815  0.4072  0.2332
16505TIP3    H171006   2.284   2.536   6.153 -1.2651  1.9486  0.9369
16505TIP3    H271007   2.281   2.409   6.236  1.0587  0.9914 -0.3460
16506TIP3   OH271008   2.033   1.072   3.775  0.0651 -0.0126  0.1921
16506TIP3    H171009   2.046   1.061   3.681  0.0272 -1.0886  0.2987
16506TIP3    H271010   2.087   1.147   3.798  1.0832 -0.5235 -0.4680
16507TIP3   OH271011   0.706   0.486   4.642 -0.7424 -0.0086  0.3133
16507TIP3    H171012   0.678   0.553   4.579  0.0583  0.0943  0.0534
16507TIP3    H271013   0.800   0.503   4.654  0.0271 -2.4673 -1.4921
16508TIP3   OH271014   2.299   6.214  12.719  0.3000 -0.4777 -0.0549
16508TIP3    H171015   2.303   6.255  12.632 -1.1034  0.0838  0.1117
16508TIP3    H271016   2.387   6.224  12.754  0.2015  1.9328 -0.2786
16509TIP3   OH271017   4.106   0.712  16.731 -0.1332 -0.0808 -0.3679
16509TIP3    H171018   4.196   0.680  16.738 -0.3737 -0.7593 -0.3447
16509TIP3    H271019   4.116   0.806  16.716  0.5747  0.1691  1.3299
16510TIP3   OH271020   6.397   6.465   2.027  0.0636 -0.2511 -0.5810
16510TIP3    H171021   6.398   6.374   2.056  0.2855 -0.5773 -1.5917
16510TIP3    H271022   6.483   6.479   1.988  0.0500  0.4141 -0.3896
16511TIP3   OH271023   4.324   1.155   1.179 -0.3226 -0.0039 -0.1547
16511TIP3    H171024   4.335   1.169   1.273 -0.2171  1.6197 -0.3712
16511TIP3    H271025   4.398   1.202   1.139 -2.5416  2.9553 -1.2040
16512TIP3   OH271026   3.785   3.707  14.338  0.2840  0.4030  0.5749
16512TIP3    H171027   3.851   3.657  14.290  0.8713 -0.1720  1.9498
16512TIP3    H271028   3.833   3.753  14.406 -0.6322  0.5974  1.1092
16513TIP3   OH271029   3.107   0.357   5.740  0.3486  0.0402  0.6907
16513TIP3    H171030   3.078   0.448   5.743 -0.9548 -0.3569  0.6625
16513TIP3    H271031   3.122   0.340   5.647  0.2229  0.1115  0.6572
16514TIP3   OH271032   1.560   1.350   3.521  0.5812  0.1535 -0.4056
16514TIP3    H171033   1.565   1.255   3.536 -1.6611 -0.0756 -0.6931
16514TIP3    H271034   1.588   1.361   3.430  0.2925 -0.3275 -0.5595
16515TIP3   OH271035   1.124   2.894  12.567 -0.3036  0.6025 -0.1441
16515TIP3    H171036   1.193   2.830  12.588 -0.3001 -0.1761 -2.2861
16515TIP3    H271037   1.160   2.944  12.494 -0.0434  3.5809  1.8619
16516TIP3   OH271038   6.316   4.972   4.808  0.2757  0.5316 -0.0466
16516TIP3    H171039   6.337   4.982   4.901 -1.4698 -0.9946  0.5894
16516TIP3    H271040   6.342   4.882   4.787 -1.2570  0.1362 -0.4050
16517TIP3   OH271041   5.597   3.973   5.148 -0.0598 -0.2054 -0.2716
16517TIP3    H171042   5.530   3.995   5.084 -0.1113 -0.1016 -0.1827
16517TIP3    H271043   5.568   3.890   5.186  1.2654 -1.6534 -2.1979
16518TIP3   OH271044   3.891   3.195  11.574 -0.5387  0.3786 -0.2396
16518TIP3    H171045   3.841   3.113  11.568 -0.3726  0.3023 -0.5929
16518TIP3    H271046   3.840   3.258  11.524 -0.2621  0.2881 -0.6452
16519TIP3   OH271047   5.793   4.994  11.889  0.0855  0.7051 -0.5213
16519TIP3    H171048   5.798   5.059  11.820  1.9309 -0.6647 -1.8052
16519TIP3    H271049   5.822   4.912  11.847 -0.4196 -0.5555  1.4338
16520TIP3   OH271050   1.315   4.595   2.323 -0.1236  0.8023  0.3393
16520TIP3    H171051   1.282   4.537   2.255  0.1927  1.2501 -0.2089
16520TIP3    H271052   1.274   4.564   2.403 -1.8730  1.3394 -0.2992
16521TIP3   OH271053   0.426   0.020   0.700 -0.4043 -0.6600 -1.1427
16521TIP3    H171054   0.338   0.001   0.733 -0.4428  0.0876 -0.7913
16521TIP3    H271055   0.435   0.114   0.711  0.9622 -0.9103  0.1048
16522TIP3   OH271056   2.694   1.321  14.856 -0.0046 -0.0081 -0.4581
16522TIP3    H171057   2.751   1.287  14.787  1.9861 -0.7772  1.4290
16522TIP3    H271058   2.705   1.259  14.928 -2.9066  0.1022  0.2124
16523TIP3   OH271059   4.369   4.034  13.068  0.1255  0.3073 -0.0382
16523TIP3    H171060   4.382   3.955  13.120 -0.1307  1.3134  1.6095
16523TIP3    H271061   4.274   4.038  13.056 -0.1217  1.6247  1.9951
16524TIP3   OH271062   3.119   2.373  15.899 -0.1439  0.8005  0.8540
16524TIP3    H171063   3.092   2.281  15.892 -1.8133  1.2396  0.9962
16524TIP3    H271064   3.213   2.369  15.916  0.0008 -0.8502 -0.0719
16525TIP3   OH271065   1.620   3.023  10.709  0.3255 -0.0705  0.1536
16525TIP3    H171066   1.677   2.946  10.702  0.4289  0.0411 -0.3345
16525TIP3    H271067   1.588   3.037  10.620  0.2920  0.4365  0.2400
16526TIP3   OH271068   0.743   3.192  16.497  0.0415 -0.1975 -0.2642
16526TIP3    H171069   0.837   3.213  16.497  0.2374 -1.0226 -0.5500
16526TIP3    H271070   0.700   3.275  16.517  0.8470  0.1193  0.2146
16527TIP3   OH271071   3.644   1.120  12.284 -0.5713  0.1934  0.0783
16527TIP3    H171072   3.563   1.151  12.244  0.0291  0.8915 -0.6307
16527TIP3    H271073   3.632   1.025  12.293 -1.3319  0.2465 -0.3266
16528TIP3   OH271074   2.725   6.680   0.833  0.0808  0.2548  0.0562
16528TIP3    H171075   2.636   6.713   0.825  0.2054  0.8848  1.0580
16528TIP3    H271076   2.762   6.686   0.745 -2.0160 -3.5940 -1.3397
16529TIP3   OH271077   1.048   0.932  13.446 -0.1455  0.1388  0.3014
16529TIP3    H171078   0.997   0.852  13.455 -0.3704  0.2400 -0.0306
16529TIP3    H271079   1.005   0.980  13.375  0.6919  0.0051 -0.3104
16530TIP3   OH271080   2.061   0.636  11.741 -0.2326 -0.0417  0.5097
16530TIP3    H171081   2.022   0.587  11.814  0.8377  0.7236  1.6460
16530TIP3    H271082   2.150   0.653  11.770  0.2415  0.2179 -1.0488
16531TIP3   OH271083   3.541   2.101   0.113  0.1247  0.0696  0.4058
16531TIP3    H171084   3.607   2.130   0.176 -1.9074 -0.8740  3.1779
16531TIP3    H271085   3.541   2.005   0.121 -1.2127  0.0205  0.1118
16532TIP3   OH271086   6.002   6.453  14.946  0.3463  0.3965  0.2711
16532TIP3    H171087   6.061   6.438  14.872  0.1332  1.9108 -0.2493
16532TIP3    H271088   5.982   6.366  14.979  1.3282 -0.2511 -0.7619
16533TIP3   OH271089   5.141   3.439   4.454  0.6856 -0.4795  0.3511
16533TIP3    H171090   5.053   3.464   4.427  1.8955  1.4421 -2.1469
16533TIP3    H271091   5.169   3.509   4.512  0.1899 -1.7550  2.2488
16534TIP3   OH271092   2.410   3.152  17.264 -0.3301 -0.3375 -0.2549
16534TIP3    H171093   2.377   3.229  17.218  0.4260  0.3073  0.2713
16534TIP3    H271094   2.440   3.093  17.194 -0.5848 -0.0088 -0.6412
16535TIP3   OH271095   0.812   6.799  14.855  0.3818 -1.0092 -0.7350
16535TIP3    H171096   0.783   6.882  14.892  0.8508 -0.9199 -0.5554
16535TIP3    H271097   0.752   6.782  14.782  1.2851  0.3186 -1.8445
16536TIP3   OH271098   6.202   4.573  11.843  0.2820  0.0047 -0.4472
16536TIP3    H171099   6.248   4.655  11.831  0.7768 -0.3498 -1.0329
16536TIP3    H271100   6.271   4.506  11.844 -0.2366 -0.5683 -1.6989
16537TIP3   OH271101   6.300   0.194  13.062  0.4351 -0.6150 -0.8902
16537TIP3    H171102   6.320   0.257  13.132  1.0116 -0.3613 -1.2719
16537TIP3    H271103   6.256   0.122  13.106  0.3040 -0.2116 -0.3493
16538TIP3   OH271104   1.374   2.396   2.948 -0.4461  0.3925  0.0652
16538TIP3    H171105   1.287   2.401   2.986 -0.2996  0.1122  0.4356
16538TIP3    H271106   1.430   2.444   3.008 -0.0293 -0.9055  0.7543
16539TIP3   OH271107   1.381   4.991   1.489 -0.4066  0.7587  0.0515
16539TIP3    H171108   1.338   4.983   1.575  0.7739 -0.1633  0.5683
16539TIP3    H271109   1.472   4.970   1.505 -0.2981 -0.1702 -1.5817
16540TIP3   OH271110   3.432   1.501  10.729 -0.0594 -0.2694 -0.0804
16540TIP3    H171111   3.354   1.452  10.704 -0.1934 -0.0692 -0.0625
16540TIP3    H271112   3.476   1.445  10.793  0.6852 -1.1257 -1.3012
16541TIP3   OH271113   1.712   0.200  14.449 -0.4724 -0.3971  0.3399
16541TIP3    H171114   1.622   0.203  14.482 -0.4578 -0.6726  0.4059
16541TIP3    H271115   1.751   0.125  14.494  0.1571  0.4409  1.2418
16542TIP3   OH271116   5.302   5.083  15.432 -0.3569  0.4162  0.0279
16542TIP3    H171117   5.328   5.147  15.498 -0.3709 -3.2955  4.0871
16542TIP3    H271118   5.207   5.093  15.425 -0.4564  0.4352  1.1611
16543TIP3   OH271119   6.407   3.133   4.059 -0.6631  0.0190 -0.5613
16543TIP3    H171120   6.355   3.161   3.984  0.9316 -0.7703 -2.0055
16543TIP3    H271121   6.374   3.046   4.080 -1.6328  0.5425  0.1952
16544TIP3   OH271122   4.236   3.037   2.390  0.5638  0.4946  0.4380
16544TIP3    H171123   4.301   3.001   2.329  0.4556  0.7448  0.1720
16544TIP3    H271124   4.191   2.960   2.425 -0.3021  0.3900 -0.8302
16545TIP3   OH271125   5.063   5.084   2.523 -0.4843  0.1885  0.6991
16545TIP3    H171126   5.125   5.152   2.547 -0.5792 -0.0521  1.6609
16545TIP3    H271127   5.104   5.003   2.552 -0.8255 -0.0643  0.4832
16546TIP3   OH271128   4.844   6.261   3.141 -0.2931  0.0392  0.3329
16546TIP3    H171129   4.855   6.347   3.183 -0.5032  0.6636 -0.8726
16546TIP3    H271130   4.826   6.202   3.214  0.3155  0.9274  1.2361
16547TIP3   OH271131   6.561   5.406  17.144  0.0768 -0.1389  0.1305
16547TIP3    H171132   6.510   5.383  17.067  0.6839 -0.6695 -0.1212
16547TIP3    H271133   6.564   5.326  17.196  0.7840 -0.1644  0.0604
16548TIP3   OH271134   5.436   2.939  14.702  0.2995  0.6689 -0.2030
16548TIP3    H171135   5.351   2.895  14.699 -0.7486  2.5222  0.6021
16548TIP3    H271136   5.483   2.904  14.627 -1.3772 -0.0331 -0.9903
16549TIP3   OH271137   5.514   0.545   3.723 -0.3729  0.2639  0.4554
16549TIP3    H171138   5.556   0.479   3.667  1.4585  0.3727  1.6342
16549TIP3    H271139   5.581   0.568   3.787 -1.8932  1.3083  1.7286
16550TIP3   OH271140   0.753   1.665   5.308  0.5634  0.2222  0.0384
16550TIP3    H171141   0.710   1.714   5.378 -0.9143  1.2318 -1.5003
16550TIP3    H271142   0.692   1.670   5.234  3.3518  1.9390 -2.3720
16551TIP3   OH271143   5.774   0.521   3.178 -0.1556  1.0086 -0.7977
16551TIP3    H171144   5.715   0.530   3.253  1.4682 -0.3470  0.7366
16551TIP3    H271145   5.716   0.525   3.101 -1.8703  2.4277  0.4922
16552TIP3   OH271146   6.796   0.168   3.641 -0.2261 -0.3295  0.2766
16552TIP3    H171147   6.724   0.230   3.624 -0.1102 -0.1418  0.4668
16552TIP3    H271148   6.775   0.092   3.587  0.0747  0.2134 -0.6336
16553TIP3   OH271149   3.042   0.875   1.186  0.2331 -0.0347  0.3084
16553TIP3    H171150   3.059   0.963   1.151 -1.8028 -0.1086 -1.0413
16553TIP3    H271151   3.005   0.890   1.273 -1.0060  0.5342 -0.2927
16554TIP3   OH271152   3.921   1.895   3.896  0.4755 -0.3482 -0.0181
16554TIP3    H171153   3.935   1.898   3.991  1.6093 -0.0849 -0.1821
16554TIP3    H271154   3.856   1.964   3.880  3.3822  2.6708  0.1069
16555TIP3   OH271155   3.635   0.534  12.888 -0.0200  0.0276 -0.4063
16555TIP3    H171156   3.641   0.455  12.834  1.8672 -0.0774 -0.1189
16555TIP3    H271157   3.604   0.601  12.828 -0.9695 -0.7689 -0.8330
16556TIP3   OH271158   3.326   1.857   2.793  0.3146 -0.4044 -0.1020
16556TIP3    H171159   3.418   1.847   2.766  0.5924  2.2426 -0.3997
16556TIP3    H271160   3.300   1.942   2.758 -2.3551 -1.1593 -0.1870
16557TIP3   OH271161   4.851   5.047  16.008  0.1838 -0.1209 -0.1272
16557TIP3    H171162   4.811   5.087  15.931  2.4164  0.4204 -1.0917
16557TIP3    H271163   4.945   5.046  15.988  0.5125 -3.6596  0.8597
16558TIP3   OH271164   4.802   0.811   1.025 -0.2110  0.1442 -0.2476
16558TIP3    H171165   4.744   0.849   1.091  0.7454 -0.8783  1.2686
16558TIP3    H271166   4.880   0.867   1.027 -1.0281  1.4415 -2.1844
16559TIP3   OH271167   5.091   3.648   1.671 -0.3162  0.6143  0.4868
16559TIP3    H171168   5.024   3.579   1.668 -0.5846  0.8634  0.6543
16559TIP3    H271169   5.105   3.672   1.579  0.1487 -0.0105  0.3861
16560TIP3   OH271170   0.598   0.310  15.234 -0.3731  0.4867 -0.1312
16560TIP3    H171171   0.548   0.355  15.165 -2.9378 -2.3571 -0.3483
16560TIP3    H271172   0.560   0.342  15.316 -2.6599 -1.5093 -0.2934
16561TIP3   OH271173   6.149   4.825  15.512 -0.3597  1.1691 -0.2865
16561TIP3    H171174   6.107   4.781  15.586  0.5318 -0.9441 -0.9496
16561TIP3    H271175   6.241   4.832  15.537 -0.3680  2.1073 -0.4744
16562TIP3   OH271176   6.386   1.307  14.960 -0.4735  0.4967 -0.3213
16562TIP3    H171177   6.365   1.244  15.029 -0.3095  0.9007  0.0977
16562TIP3    H271178   6.415   1.386  15.006 -0.5157  0.8271 -0.8451
16563TIP3   OH271179   1.887   2.442  12.243 -0.4821  0.3550 -0.6873
16563TIP3    H171180   1.804   2.476  12.209 -1.3014 -2.1426 -1.4054
16563TIP3    H271181   1.860   2.381  12.313  0.7137 -0.7440 -1.1586
16564TIP3   OH271182   0.886   1.745  11.207 -0.2345 -0.5515  0.1849
16564TIP3    H171183   0.859   1.667  11.255 -0.5080 -1.1589 -0.9223
16564TIP3    H271184   0.827   1.814  11.237 -0.8298 -1.0774  0.2387
16565TIP3   OH271185   0.288   4.962   0.223 -0.5446 -0.0371 -0.5347
16565TIP3    H171186   0.346   5.035   0.203  0.1413 -0.2079  0.7460
16565TIP3    H271187   0.217   5.001   0.274 -0.0829 -0.2811  0.3063
16566TIP3   OH271188   5.295   6.444  13.878  0.2916  0.6319 -0.7352
16566TIP3    H171189   5.235   6.426  13.805  1.7419  0.9737 -2.0805
16566TIP3    H271190   5.321   6.358  13.910 -0.8902  0.4805 -0.1393
16567TIP3   OH271191   4.141   5.333  16.687 -0.7199  0.4255  0.1452
16567TIP3    H171192   4.221   5.335  16.740  0.5798 -2.0000 -1.5145
16567TIP3    H271193   4.152   5.402  16.623 -1.8743  2.7509  2.2850
16568TIP3   OH271194   4.845   3.708   0.357 -0.3475 -0.1057 -0.1976
16568TIP3    H171195   4.873   3.629   0.404 -1.2304  0.7023  1.8279
16568TIP3    H271196   4.926   3.746   0.322  0.4457 -0.4827  1.1727
16569TIP3   OH271197   0.825   5.543   2.308 -0.0259 -0.4591 -0.1935
16569TIP3    H171198   0.901   5.600   2.318 -0.6318  0.2506  0.4262
16569TIP3    H271199   0.793   5.529   2.397 -0.9774 -0.2586 -0.4972
16570TIP3   OH271200   2.036   1.673  14.186 -0.2385  0.1577  0.2335
16570TIP3    H171201   2.039   1.588  14.229  0.2986  0.4130  0.7261
16570TIP3    H271202   2.128   1.699  14.178 -0.2907 -0.1158 -1.5726
16571TIP3   OH271203   1.816   0.632  12.782 -0.3326 -0.0325 -0.1061
16571TIP3    H171204   1.852   0.665  12.700  1.1617 -0.2704  0.4171
16571TIP3    H271205   1.773   0.550  12.758  1.2492 -0.7931 -0.4718
16572TIP3   OH271206   3.977   3.297  13.399  0.0004  0.0117 -0.2689
16572TIP3    H171207   3.971   3.212  13.444 -2.4104  0.6060  0.6986
16572TIP3    H271208   3.929   3.284  13.318 -1.7158  0.7936  0.5671
16573TIP3   OH271209   3.798   1.393  12.881 -0.6120  0.0987  0.0416
16573TIP3    H171210   3.874   1.444  12.855 -0.8563 -0.0224 -0.9575
16573TIP3    H271211   3.756   1.368  12.798 -1.1955 -0.6500  0.5465
16574TIP3   OH271212   1.979   4.182   1.951  0.3747  0.5384 -0.3800
16574TIP3    H171213   2.018   4.121   1.888  1.1634  0.4596  0.1630
16574TIP3    H271214   1.885   4.181   1.932  0.2589 -1.4602  0.1282
16575TIP3   OH271215   5.739   3.253  15.107  0.0181  0.3734 -0.3033
16575TIP3    H171216   5.693   3.246  15.023  0.1252 -2.3928 -0.2237
16575TIP3    H271217   5.814   3.193  15.098  0.0232  0.0002  1.7693
16576TIP3   OH271218   0.930   5.626   0.481  0.0763  0.0629 -0.9534
16576TIP3    H171219   0.882   5.552   0.518 -0.8294  1.6749  1.3287
16576TIP3    H271220   1.009   5.632   0.535 -0.3403  1.3006 -0.4421
16577TIP3   OH271221   1.006   1.061   1.741  0.5080 -0.1531 -0.1072
16577TIP3    H171222   0.948   1.067   1.816  1.7253  0.5635  0.8181
16577TIP3    H271223   1.005   1.149   1.703  0.4893 -0.3084 -0.4721
16578TIP3   OH271224   1.887   2.473  14.041 -0.1418  0.6289  0.2163
16578TIP3    H171225   1.974   2.441  14.016 -0.3637  2.3988 -3.4212
16578TIP3    H271226   1.857   2.523  13.965 -4.8854 -0.8880  0.7762
16579TIP3   OH271227   0.961   4.562  12.214  0.2018 -0.2074  0.1001
16579TIP3    H171228   1.005   4.477  12.218 -0.0575 -0.4226 -1.2087
16579TIP3    H271229   0.871   4.542  12.189  0.6298  0.5551 -2.2794
16580TIP3   OH271230   2.849   2.248  12.554  0.1506  0.2865  0.1221
16580TIP3    H171231   2.782   2.300  12.510  1.5669  1.2929 -0.9245
16580TIP3    H271232   2.930   2.268  12.507  2.0743  2.4052  3.7856
16581TIP3   OH271233   6.273   0.851   4.450  0.7194 -0.1877 -0.4198
16581TIP3    H171234   6.233   0.916   4.507  0.6160 -0.9147  0.3641
16581TIP3    H271235   6.350   0.894   4.413  1.2040  0.0584  0.8483
16582TIP3   OH271236   0.585   3.885  15.294  0.0293  0.3761  0.2178
16582TIP3    H171237   0.554   3.898  15.383 -1.7043  1.5266 -0.4857
16582TIP3    H271238   0.505   3.872  15.242  0.6857  2.8219 -1.6140
16583TIP3   OH271239   1.601   0.637  15.275 -0.1644 -0.5073  0.0874
16583TIP3    H171240   1.639   0.614  15.360 -2.0988 -2.5864  0.4852
16583TIP3    H271241   1.538   0.706  15.294  2.8446  2.7282 -0.5322
16584TIP3   OH271242   2.564   2.864  16.611  0.5755 -0.2566  0.1499
16584TIP3    H171243   2.564   2.784  16.558 -0.3710  0.2619 -0.6636
16584TIP3    H271244   2.472   2.886  16.621  0.7887  0.2723  1.1007
16585TIP3   OH271245   6.282   1.497  15.579 -0.3362 -0.3489  0.0994
16585TIP3    H171246   6.369   1.457  15.581 -0.8314 -1.4848 -0.6229
16585TIP3    H271247   6.254   1.491  15.488 -0.2449  2.1217 -0.1712
16586TIP3   OH271248   1.813   5.354   2.251  0.0831  0.2379 -0.7522
16586TIP3    H171249   1.856   5.439   2.248  1.0396 -0.0106  2.1121
16586TIP3    H271250   1.728   5.372   2.290  1.5458 -0.3159  3.1937
16587TIP3   OH271251   0.528   0.032   1.502 -0.3750  0.1084 -0.8255
16587TIP3    H171252   0.579   0.037   1.583  0.2769 -1.6942 -1.0870
16587TIP3    H271253   0.545   0.116   1.459 -0.6940  1.0876  0.8554
16588TIP3   OH271254   4.059   5.073   0.592 -0.8610 -0.0530  0.2964
16588TIP3    H171255   4.139   5.058   0.543 -0.9197 -1.0514  0.4845
16588TIP3    H271256   4.087   5.121   0.670 -0.3999 -0.6787  0.5185
16589TIP3   OH271257   1.632   4.784   5.652 -0.0149 -0.3131  0.5842
16589TIP3    H171258   1.558   4.787   5.592 -1.2858 -0.0992  2.1088
16589TIP3    H271259   1.631   4.695   5.687  0.1456 -0.1664  0.9668
16590TIP3   OH271260   4.097   6.380   0.916 -0.1387 -0.0196 -0.1349
16590TIP3    H171261   4.190   6.360   0.907  0.1071  1.0644 -0.1826
16590TIP3    H271262   4.075   6.428   0.836 -0.6515  0.0055  0.0169
16591TIP3   OH271263   6.668   6.342  11.831 -0.1784 -0.4258  0.2364
16591TIP3    H171264   6.679   6.269  11.770 -0.1827  0.6877 -1.1530
16591TIP3    H271265   6.647   6.417  11.775  0.5778  0.8160  1.5489
16592TIP3   OH271266   3.970   3.063   0.586  0.2335  0.2410 -0.3003
16592TIP3    H171267   4.002   3.000   0.651 -0.6215 -0.4629 -0.5479
16592TIP3    H271268   4.010   3.035   0.504 -1.3211 -0.9587 -0.7153
16593TIP3   OH271269   1.800   5.210  13.780 -0.0774  0.4590 -0.1661
16593TIP3    H171270   1.707   5.205  13.804 -0.7831 -1.7972 -2.8538
16593TIP3    H271271   1.804   5.282  13.718  0.2220  1.2642  0.7679
16594TIP3   OH271272   1.242   6.260  10.625 -0.0182 -0.0099  0.4212
16594TIP3    H171273   1.207   6.189  10.572  1.1806 -0.6075  0.3945
16594TIP3    H271274   1.329   6.277  10.589 -0.0053  0.9932  0.8763
16595TIP3   OH271275   5.225   4.597   4.547 -0.3211  0.8322 -0.2952
16595TIP3    H171276   5.142   4.600   4.596  0.0812  0.9128  0.3945
16595TIP3    H271277   5.200   4.617   4.457 -1.3389 -1.1438 -0.4940
16596TIP3   OH271278   2.653   5.899  16.206  0.1137  0.1393 -0.0549
16596TIP3    H171279   2.739   5.861  16.223 -1.3115 -2.6816  1.4594
16596TIP3    H271280   2.601   5.827  16.170 -1.8804  1.5136 -0.1253
16597TIP3   OH271281   6.742   3.296  12.452 -0.6201  0.0161  0.4429
16597TIP3    H171282   6.788   3.361  12.504 -0.5639 -1.2781  2.1142
16597TIP3    H271283   6.784   3.299  12.366  0.5907  0.8870  1.0429
16598TIP3   OH271284   4.556   0.793   2.748  0.2529  0.2599 -0.3026
16598TIP3    H171285   4.567   0.847   2.826 -2.1049  2.7408 -1.5341
16598TIP3    H271286   4.646   0.776   2.718  1.1222  1.6917  1.3262
16599TIP3   OH271287   6.657   0.764  14.334 -0.4365  0.1990  0.0881
16599TIP3    H171288   6.735   0.712  14.318  0.3528  1.2088  0.5424
16599TIP3    H271289   6.616   0.723  14.410  0.7185  0.8177  1.0677
16600TIP3   OH271290   4.459   4.464   5.757 -0.6661 -0.2724 -1.1493
16600TIP3    H171291   4.460   4.552   5.796  0.5727 -0.6387 -0.2740
16600TIP3    H271292   4.391   4.417   5.805  0.7837 -0.6912  0.6333
16601TIP3   OH271293   1.783   4.486  15.141 -0.0632  0.4666  0.0439
16601TIP3    H171294   1.717   4.464  15.075  0.5332 -2.2927  0.2814
16601TIP3    H271295   1.859   4.434  15.117  0.0213 -0.9919  3.1344
16602TIP3   OH271296   1.838   0.165   5.593  0.0389  0.2352 -0.1153
16602TIP3    H171297   1.847   0.141   5.501  1.8607  3.1976 -0.8595
16602TIP3    H271298   1.919   0.134   5.634 -0.5675 -0.6753  0.4262
16603TIP3   OH271299   1.602   4.639   0.457  0.4758 -0.1466  0.2724
16603TIP3    H171300   1.621   4.711   0.517  1.0922  2.3495 -2.6487
16603TIP3    H271301   1.659   4.568   0.486  1.6245  1.3319  1.9006
16604TIP3   OH271302   1.842   1.009  14.604  0.1845 -0.5033  0.3881
16604TIP3    H171303   1.761   1.046  14.639  0.7837  0.9946  0.2684
16604TIP3    H271304   1.887   0.972  14.680 -0.0904 -0.3132  0.6456
16605TIP3   OH271305   1.736   5.593   5.707 -0.0150  0.1892 -0.1563
16605TIP3    H171306   1.746   5.687   5.719  0.9530 -0.1018  1.7588
16605TIP3    H271307   1.800   5.570   5.640 -0.4781  0.9109 -0.8699
16606TIP3   OH271308   3.964   0.324   5.879 -0.5907  0.0650  0.1849
16606TIP3    H171309   3.963   0.267   5.955 -0.2199 -0.7616 -0.4082
16606TIP3    H271310   4.055   0.354   5.873 -0.4743 -0.3588 -0.2691
16607TIP3   OH271311   5.699   3.765  16.464  0.1910 -0.4951 -0.1273
16607TIP3    H171312   5.768   3.800  16.520  0.5654 -0.1455 -0.7868
16607TIP3    H271313   5.710   3.670  16.468  0.1407 -0.4745  0.4762
16608TIP3   OH271314   4.924   2.351  11.232 -0.3041 -0.3480  0.2546
16608TIP3    H171315   4.888   2.391  11.152  1.5337 -0.9727 -0.9552
16608TIP3    H271316   4.964   2.424  11.278  0.8681 -0.3572 -0.7070
16609TIP3   OH271317   5.891   6.454  12.853  0.2805  0.1167 -0.2401
16609TIP3    H171318   5.807   6.451  12.898  1.4940 -2.4202  2.1217
16609TIP3    H271319   5.932   6.535  12.884  0.5289 -0.9092  2.3609
16610TIP3   OH271320   1.856   0.246   2.513  0.8586  0.4027  0.4907
16610TIP3    H171321   1.935   0.267   2.562  1.1974  0.6705 -0.1615
16610TIP3    H271322   1.796   0.210   2.578  0.3881  2.9905  1.6080
16611TIP3   OH271323   3.949   0.756   3.271 -0.0212  0.3972 -0.3359
16611TIP3    H171324   3.955   0.665   3.300 -0.9068 -0.2707 -2.0772
16611TIP3    H271325   3.890   0.753   3.195 -0.7535  2.5569  0.0757
16612TIP3   OH271326   1.383   6.545  13.223 -0.2788  0.6850 -0.0658
16612TIP3    H171327   1.443   6.528  13.149 -0.9484  2.2084 -1.0125
16612TIP3    H271328   1.299   6.563  13.182 -1.1227 -0.2410  1.1950
16613TIP3   OH271329   4.731   3.777   4.992 -0.2679  0.2492 -0.1017
16613TIP3    H171330   4.819   3.743   4.974  1.0528  3.7974 -1.1041
16613TIP3    H271331   4.697   3.802   4.906 -1.9737 -0.2575  0.3768
16614TIP3   OH271332   2.824   5.745  14.032  0.4755 -0.5105  0.3495
16614TIP3    H171333   2.809   5.737  13.938 -0.0659  0.2814  0.3586
16614TIP3    H271334   2.843   5.656  14.062  0.9717 -0.7161 -0.5599
16615TIP3   OH271335   6.267   6.342   4.724  0.1346  0.3313  0.0368
16615TIP3    H171336   6.331   6.376   4.661  2.1065  1.8737  2.6208
16615TIP3    H271337   6.182   6.370   4.689  1.2739  2.9361 -0.9616
16616TIP3   OH271338   0.732   5.492  13.585 -0.7623  0.6309  0.5129
16616TIP3    H171339   0.778   5.414  13.554 -0.5007  1.1235 -0.3556
16616TIP3    H271340   0.640   5.474  13.567 -0.8860 -0.1156  1.7389
16617TIP3   OH271341   2.886   6.190  17.338 -0.0423 -0.9064 -0.0524
16617TIP3    H171342   2.939   6.158  17.411  1.2495 -0.1608 -0.6277
16617TIP3    H271343   2.821   6.121  17.323  1.6983 -2.5872 -0.2954
16618TIP3   OH271344   4.526   1.499   4.113  0.0272  0.7940  0.1764
16618TIP3    H171345   4.532   1.539   4.200  0.1847 -0.6388  0.8444
16618TIP3    H271346   4.589   1.548   4.060  2.2022 -0.2581  1.6574
16619TIP3   OH271347   1.664   5.275   0.129  0.6689  0.5639 -0.3074
16619TIP3    H171348   1.706   5.358   0.106  0.9629  0.2346 -1.0230
16619TIP3    H271349   1.581   5.276   0.081  0.0078  1.0613  0.8274
16620TIP3   OH271350   6.102   2.017  13.368  0.0967  0.2079  1.0102
16620TIP3    H171351   6.110   2.111  13.377 -2.0849  0.4261  1.1014
16620TIP3    H271352   6.056   1.988  13.447 -4.1970 -0.0834 -1.2943
16621TIP3   OH271353   0.230   2.198   2.753 -0.3892 -0.2174 -0.2731
16621TIP3    H171354   0.315   2.177   2.792 -1.5907 -2.9370  1.1732
16621TIP3    H271355   0.238   2.174   2.661  0.8454  1.1071 -0.5470
16622TIP3   OH271356   4.544   5.666  13.298 -0.0437 -0.3193 -0.0153
16622TIP3    H171357   4.468   5.668  13.357 -0.3059  0.1846 -0.3657
16622TIP3    H271358   4.509   5.690  13.213  0.8761  2.1771  0.2392
16623TIP3   OH271359   3.918   2.865   6.622 -0.5214  0.0738 -0.2062
16623TIP3    H171360   4.002   2.838   6.660 -0.8857 -0.2766  0.3680
16623TIP3    H271361   3.928   2.850   6.528 -0.0862 -0.3629 -0.0949
16624TIP3   OH271362   6.485   2.328  11.142  0.1105 -0.9705 -0.2960
16624TIP3    H171363   6.504   2.235  11.156 -2.0557 -1.9164 -2.8388
16624TIP3    H271364   6.461   2.360  11.229  1.4935 -2.6183  0.7545
16625TIP3   OH271365   5.554   4.286   0.582 -0.2718 -0.2309 -0.3786
16625TIP3    H171366   5.648   4.293   0.565 -0.4093  1.6233 -0.5624
16625TIP3    H271367   5.531   4.368   0.625 -1.8616 -0.5463 -0.5638
16626TIP3   OH271368   3.230   3.704   3.499  0.0574 -0.0268  0.1752
16626TIP3    H171369   3.154   3.711   3.557  0.1550  1.2838  0.1725
16626TIP3    H271370   3.285   3.780   3.521  1.2152 -0.7749 -0.0428
16627TIP3   OH271371   1.225   3.405  13.562  0.3527 -0.2047  0.4731
16627TIP3    H171372   1.235   3.310  13.574 -0.4499 -0.8599 -2.9677
16627TIP3    H271373   1.151   3.414  13.501 -0.3398  2.7368  1.6045
16628TIP3   OH271374   3.601   3.557   0.380  0.5888 -0.3467  0.4491
16628TIP3    H171375   3.613   3.613   0.457 -0.1293 -0.1071  0.3967
16628TIP3    H271376   3.684   3.565   0.331  0.9506 -0.2983  1.0604
16629TIP3   OH271377   5.852   3.920  12.632  0.5205 -1.0281  0.3362
16629TIP3    H171378   5.931   3.947  12.586  0.5443  0.1621  1.0384
16629TIP3    H271379   5.826   3.838  12.588 -0.1080  0.5966 -2.6110
16630TIP3   OH271380   6.038   6.672   5.246  0.2751  0.0308  0.3123
16630TIP3    H171381   6.092   6.615   5.193 -2.1751 -1.4431 -0.7847
16630TIP3    H271382   5.976   6.712   5.184 -0.0232  1.5301  1.4962
16631TIP3   OH271383   6.089   1.374  14.118  0.5721  0.5220  0.6402
16631TIP3    H171384   6.120   1.323  14.043 -1.2248 -1.6283  1.2499
16631TIP3    H271385   6.169   1.400  14.164  1.5989 -0.5205 -0.4821
16632TIP3   OH271386   0.644   6.696   5.223  0.4571  0.3588 -0.6343
16632TIP3    H171387   0.593   6.767   5.184  0.7051  0.8317 -0.1218
16632TIP3    H271388   0.580   6.626   5.239  0.3036  0.2661 -1.6089
16633TIP3   OH271389   2.441   1.794   0.042 -0.1658 -0.0044 -0.1593
16633TIP3    H171390   2.402   1.803   0.129  2.3117  1.9083  0.8639
16633TIP3    H271391   2.373   1.825  -0.018 -0.8053  1.7763  1.3917
16634TIP3   OH271392   3.145   2.379   4.232 -0.1981  0.1375 -0.6148
16634TIP3    H171393   3.112   2.344   4.315  0.5641  0.2862 -0.2379
16634TIP3    H271394   3.068   2.387   4.176 -0.8966  1.0387  0.4378
16635TIP3   OH271395   6.224   0.861   6.473 -0.4730  0.2730  0.3552
16635TIP3    H171396   6.274   0.833   6.396 -2.0818 -0.2933 -0.5370
16635TIP3    H271397   6.198   0.951   6.452 -2.1691 -0.3749 -0.4848
16636TIP3   OH271398   5.906   4.301  16.376 -0.6046  0.0826 -0.4198
16636TIP3    H171399   5.861   4.376  16.336  1.1292  1.1543 -0.4776
16636TIP3    H271400   5.943   4.253  16.302  0.3990  0.5998 -0.2690
16637TIP3   OH271401   5.675   1.648  12.858  0.4606 -0.6172  0.2155
16637TIP3    H171402   5.712   1.693  12.934  0.2511 -0.0143 -0.0332
16637TIP3    H271403   5.629   1.573  12.894 -2.5389  1.4421  1.0728
16638TIP3   OH271404   5.461   6.488  14.150  0.0425 -0.2757  0.0744
16638TIP3    H171405   5.393   6.543  14.110 -0.5348 -1.9207 -1.3513
16638TIP3    H271406   5.534   6.492  14.089  0.7764  0.4942  0.9831
16639TIP3   OH271407   3.225   0.797  16.850  0.7184  0.2473  0.3505
16639TIP3    H171408   3.248   0.855  16.777  0.5152  0.4766  0.4671
16639TIP3    H271409   3.309   0.764  16.882  1.0509  2.2490  1.7385
16640TIP3   OH271410   6.464   2.407  15.938 -0.7193  0.1254 -0.3434
16640TIP3    H171411   6.370   2.418  15.925 -0.7126  1.3114  0.4643
16640TIP3    H271412   6.473   2.364  16.023 -0.5074  1.0346  0.1018
16641TIP3   OH271413   6.565   3.754   3.184 -0.5834  0.0030  0.3632
16641TIP3    H171414   6.616   3.702   3.245 -1.3794 -0.9488  0.2465
16641TIP3    H271415   6.505   3.804   3.239 -0.7467 -0.2422  0.4106
16642TIP3   OH271416   5.991   5.955   5.910 -0.2224  0.2519  0.2125
16642TIP3    H171417   6.035   5.894   5.851 -1.3077  0.2085 -0.5894
16642TIP3    H271418   6.058   5.980   5.974  0.8760  0.0067 -0.8185
16643TIP3   OH271419   6.445   5.621  13.182 -0.1362  0.2304 -0.0709
16643TIP3    H171420   6.529   5.606  13.139 -0.4734  0.1628 -0.7255
16643TIP3    H271421   6.442   5.716  13.197  0.0027  0.2492 -0.1613
16644TIP3   OH271422   5.956   4.727   1.507  0.3309 -0.7005  0.7468
16644TIP3    H171423   5.981   4.806   1.458  2.3198 -1.9173 -0.3333
16644TIP3    H271424   6.004   4.656   1.464 -0.4632 -2.3378  2.4263
16645TIP3   OH271425   5.707   0.239   5.546  0.4421 -0.5164 -0.1919
16645TIP3    H171426   5.737   0.274   5.630  0.1000 -1.4754  0.3315
16645TIP3    H271427   5.768   0.167   5.527  0.3880 -0.4419 -0.6715
16646TIP3   OH271428   6.757   3.449   5.910  0.2132 -0.3163 -0.0548
16646TIP3    H171429   6.709   3.367   5.921  1.8154 -1.1691  0.8626
16646TIP3    H271430   6.757   3.489   5.997  1.1162 -0.2982 -0.0559
16647TIP3   OH271431   0.329   3.132   6.194  0.1251 -0.6229  0.3257
16647TIP3    H171432   0.303   3.040   6.199  2.0701 -1.1450  1.8638
16647TIP3    H271433   0.334   3.160   6.286 -1.9087  1.5133 -0.1064
16648TIP3   OH271434   1.472   2.793   5.286  0.2139 -0.1476  0.2821
16648TIP3    H171435   1.445   2.866   5.342  0.6461  1.3310 -1.3596
16648TIP3    H271436   1.507   2.728   5.348 -1.8631  0.2052  1.9529
16649TIP3   OH271437   4.945   1.634  10.410  0.3965 -0.3859 -0.2823
16649TIP3    H171438   4.973   1.604  10.496  3.9569  1.0252 -0.7716
16649TIP3    H271439   4.962   1.560  10.352 -1.5937 -1.1813  0.0511
16650TIP3   OH271440   6.461   5.329   1.622 -0.1260  0.2462 -0.2801
16650TIP3    H171441   6.450   5.422   1.604  0.4157  0.3157 -0.2758
16650TIP3    H271442   6.542   5.324   1.674 -0.1816 -0.2204 -0.2333
16651TIP3   OH271443   6.232   5.696  15.478 -0.4729 -0.7710 -0.6322
16651TIP3    H171444   6.182   5.777  15.489  0.9721  0.0122  0.6414
16651TIP3    H271445   6.195   5.636  15.543 -0.4533 -0.5538 -0.4191
16652TIP3   OH271446   6.708   3.505  11.920 -0.0521 -0.3612 -0.4533
16652TIP3    H171447   6.763   3.528  11.996 -0.2692 -1.1221 -0.0553
16652TIP3    H271448   6.765   3.517  11.845  0.2060  0.2939 -0.1629
16653TIP3   OH271449   0.213   5.931   3.512 -0.4125 -0.3072 -0.4999
16653TIP3    H171450   0.117   5.927   3.515 -0.3802 -1.0996 -0.2731
16653TIP3    H271451   0.235   6.010   3.561 -0.9135 -0.6524  0.3050
16654TIP3   OH271452   5.485   3.408   2.171 -0.0436 -0.0248 -0.1982
16654TIP3    H171453   5.449   3.334   2.219 -0.9441  0.9284  0.6336
16654TIP3    H271454   5.409   3.453   2.135  0.3857  1.2297  0.4021
16655TIP3   OH271455   3.705   5.439   6.192  0.1374 -0.1395 -0.1791
16655TIP3    H171456   3.716   5.416   6.100  0.0997 -1.3647  0.1041
16655TIP3    H271457   3.672   5.359   6.233 -0.9207  0.7038  0.6993
16656TIP3   OH271458   5.828   2.827  15.217 -0.6652  0.8612  0.0103
16656TIP3    H171459   5.737   2.802  15.200 -0.2291 -0.6016 -0.3691
16656TIP3    H271460   5.861   2.758  15.275 -0.1502  2.0891  1.2265
16657TIP3   OH271461   2.814   0.643   2.984  0.0410 -0.1191 -0.7622
16657TIP3    H171462   2.885   0.673   2.927 -0.7806 -0.4403 -1.9919
16657TIP3    H271463   2.816   0.548   2.977  0.2237 -0.1892  0.1309
16658TIP3   OH271464   1.077   4.770  14.064 -0.5558  0.1132  0.2652
16658TIP3    H171465   1.023   4.691  14.074 -0.4008  0.0156  0.3322
16658TIP3    H271466   1.126   4.754  13.983  0.9178 -0.7229  1.2733
16659TIP3   OH271467   1.078   3.237  14.891  0.0224 -0.2110 -0.4307
16659TIP3    H171468   0.988   3.268  14.905 -0.5266 -1.5645 -0.8407
16659TIP3    H271469   1.087   3.163  14.952  0.3219 -1.0694 -1.4986
16660TIP3   OH271470   5.840   1.179   2.502  0.1410 -0.2118 -0.6994
16660TIP3    H171471   5.837   1.218   2.415  1.1572  0.6229 -0.3848
16660TIP3    H271472   5.752   1.143   2.516 -0.6159  1.2881 -1.3262
16661TIP3   OH271473   0.964   3.562   4.115  0.9826  0.4027  0.0565
16661TIP3    H171474   0.998   3.486   4.068  0.2192  0.0256  0.0881
16661TIP3    H271475   0.979   3.543   4.207  2.6340  1.2189 -0.0153
16662TIP3   OH271476   5.194   0.595  15.992 -0.4665 -0.1690  0.1061
16662TIP3    H171477   5.289   0.592  16.000 -0.0061  0.6394 -3.2650
16662TIP3    H271478   5.167   0.503  15.988  0.2503 -0.4026  0.4822
16663TIP3   OH271479   2.768   1.520   5.581 -0.2019  0.1643 -0.1074
16663TIP3    H171480   2.759   1.452   5.648 -0.4320 -0.7633 -1.0682
16663TIP3    H271481   2.680   1.557   5.573 -0.5239 -0.7485 -0.9510
16664TIP3   OH271482   0.049   2.612  13.895  0.2433  0.4332  0.6862
16664TIP3    H171483   0.048   2.547  13.825  1.1702 -0.1801  1.2251
16664TIP3    H271484   0.025   2.694  13.852 -3.2503 -0.5984  0.4033
16665TIP3   OH271485   4.084   3.521   3.435  0.5989 -0.1507 -0.1450
16665TIP3    H171486   4.127   3.606   3.438 -1.8346  1.2171 -1.0568
16665TIP3    H271487   4.047   3.516   3.347 -0.1227 -1.7057  0.2086
16666TIP3   OH271488   5.336   6.666  15.065  0.0438 -0.1070 -0.6956
16666TIP3    H171489   5.401   6.681  15.134 -0.4729  1.6457 -0.5472
16666TIP3    H271490   5.259   6.634  15.112  0.1731 -0.3404 -0.6413
16667TIP3   OH271491   3.600   6.167   3.607 -1.0560  0.2523  0.1010
16667TIP3    H171492   3.651   6.145   3.529 -0.2049 -0.9321  0.9431
16667TIP3    H271493   3.563   6.253   3.589  0.5738  0.7875 -0.8855
16668TIP3   OH271494   1.120   5.553  17.084 -0.8952 -0.6992 -0.0578
16668TIP3    H171495   1.106   5.485  17.018  1.3596 -0.4475 -0.8667
16668TIP3    H271496   1.214   5.551  17.100 -0.7261  2.3552 -0.2357
16669TIP3   OH271497   6.336   6.595  12.880  0.1764 -0.2086  0.2670
16669TIP3    H171498   6.347   6.556  12.967  0.6962 -0.9677 -0.1305
16669TIP3    H271499   6.366   6.685  12.890  0.6409 -0.4182  0.7707
16670TIP3   OH271500   6.019   6.692  12.997 -0.2297 -0.0939 -0.0796
16670TIP3    H171501   5.957   6.655  13.060  0.8748 -0.4692  0.8189
16670TIP3    H271502   6.045   6.776  13.036 -1.4646  0.9139 -1.3026
16671TIP3   OH271503   4.321   0.198  13.474 -0.0812  0.4721  0.6848
16671TIP3    H171504   4.407   0.156  13.471  0.2978  1.2679 -0.0419
16671TIP3    H271505   4.269   0.152  13.408  0.2016  0.8468  0.1932
16672TIP3   OH271506   5.615   1.242  14.038  0.3316  0.0537 -0.1771
16672TIP3    H171507   5.533   1.292  14.040 -0.6132 -1.4390 -0.4255
16672TIP3    H271508   5.683   1.309  14.039 -0.8736  1.3241  0.4336
16673TIP3   OH271509   6.269   3.688   2.686 -0.3855  0.1617 -0.1280
16673TIP3    H171510   6.300   3.707   2.775 -1.2011 -0.0810  0.2273
16673TIP3    H271511   6.210   3.613   2.697 -0.4457  0.0880 -0.8863
16674TIP3   OH271512   5.044   3.845   3.321  0.6516 -0.6724 -0.5692
16674TIP3    H171513   5.137   3.844   3.301  1.1109 -1.3893  1.3239
16674TIP3    H271514   5.029   3.764   3.369 -0.5622  0.2174  0.6475
16675TIP3   OH271515   6.024   0.499   5.035  0.1601  0.7145 -0.2873
16675TIP3    H171516   6.072   0.416   5.027  0.6322  1.0684 -1.3460
16675TIP3    H271517   6.092   0.564   5.056  0.1812  1.2384 -1.8774
16676TIP3   OH271518   4.458   0.644  12.676 -0.0089  0.2383  0.0219
16676TIP3    H171519   4.429   0.597  12.598  0.1150  0.2099 -0.0072
16676TIP3    H271520   4.432   0.735  12.660  1.1075  0.4598 -0.5973
16677TIP3   OH271521   3.108   0.560   3.915  0.0831  0.6748 -0.5146
16677TIP3    H171522   3.101   0.467   3.935 -1.6159  1.0729  0.9841
16677TIP3    H271523   3.167   0.594   3.983 -1.3520  1.0972  0.5619
16678TIP3   OH271524   4.093   2.444  13.239  0.0934  0.2318 -0.3955
16678TIP3    H171525   4.170   2.391  13.263  0.7681  0.8143 -1.2347
16678TIP3    H271526   4.045   2.454  13.322  1.0140  0.0153  0.1835
16679TIP3   OH271527   2.163   5.079  11.570  0.1265  0.0887  0.8499
16679TIP3    H171528   2.257   5.098  11.578  0.0832  0.3176  0.8056
16679TIP3    H271529   2.151   5.057  11.477 -0.1343  1.5273  0.5203
16680TIP3   OH271530   3.378   4.327  13.739  0.3811 -0.0172 -0.1393
16680TIP3    H171531   3.433   4.252  13.762  0.3232 -1.2906 -3.6341
16680TIP3    H271532   3.421   4.402  13.781  2.8638 -1.4341  0.0307
16681TIP3   OH271533   5.091   6.068  15.172  0.2785  0.0574 -0.0380
16681TIP3    H171534   5.161   6.133  15.170  0.7939 -0.4539  0.8401
16681TIP3    H271535   5.091   6.034  15.262 -1.7770  0.7802  0.3071
16682TIP3   OH271536   2.063   3.348  15.666  0.4556 -0.2639 -0.3551
16682TIP3    H171537   2.042   3.280  15.730 -0.5553  0.0864 -0.2975
16682TIP3    H271538   2.111   3.414  15.716  1.9877 -1.1971 -0.5429
16683TIP3   OH271539   6.399   6.738  14.106 -0.3680  0.5438 -0.1711
16683TIP3    H171540   6.311   6.701  14.102 -1.1727  2.3553  0.0176
16683TIP3    H271541   6.454   6.666  14.138 -1.8668 -0.4520  0.2498
16684TIP3   OH271542   1.744   3.267   1.315 -0.3486 -0.1639 -0.4577
16684TIP3    H171543   1.690   3.306   1.383 -0.2953  1.4677 -1.3113
16684TIP3    H271544   1.818   3.228   1.363 -1.5430 -1.2266  0.5926
16685TIP3   OH271545   4.173   3.030   5.948  0.3122 -0.5518  0.1349
16685TIP3    H171546   4.118   3.013   6.024 -1.6450 -3.9832 -1.8140
16685TIP3    H271547   4.112   3.055   5.879  1.7182 -0.2514 -1.0561
16686TIP3   OH271548   2.667   2.672   3.130  0.3356 -0.1300  0.1566
16686TIP3    H171549   2.730   2.625   3.075 -0.4563 -0.2755 -0.6705
16686TIP3    H271550   2.693   2.764   3.124 -1.1265  0.2128 -2.5101
16687TIP3   OH271551   2.114   0.936  14.014 -0.3056  0.1617  0.2347
16687TIP3    H171552   2.203   0.943  13.978 -1.0532  2.1516 -1.4179
16687TIP3    H271553   2.117   0.985  14.095  0.2976 -0.5072  0.6278
16688TIP3   OH271554   4.507   0.604   3.598  0.0160 -0.1933 -0.8091
16688TIP3    H171555   4.527   0.653   3.677 -0.2239  0.2799 -1.0371
16688TIP3    H271556   4.518   0.512   3.623 -0.4385 -0.0643 -0.1167
16689TIP3   OH271557   1.846   0.258  11.383 -0.4942  0.0745 -0.0639
16689TIP3    H171558   1.825   0.315  11.457  1.3361  1.3403 -0.4608
16689TIP3    H271559   1.766   0.206  11.370 -1.9023  1.8804  0.9124
16690TIP3   OH271560   2.745   0.038   4.657 -0.8686  0.0098 -0.5320
16690TIP3    H171561   2.750   0.110   4.720  1.3822 -0.7631  0.2800
16690TIP3    H271562   2.686  -0.026   4.698 -1.0571  0.4073 -0.1784
16691TIP3   OH271563   3.199   3.393   4.006  0.4014 -0.3722 -0.2757
16691TIP3    H171564   3.183   3.431   4.092  0.2941 -1.0901  0.0292
16691TIP3    H271565   3.119   3.410   3.957  1.0556  1.4916 -0.8028
16692TIP3   OH271566   1.681   4.327  16.923  0.2336  0.3527  0.0397
16692TIP3    H171567   1.720   4.359  17.005 -0.0228 -1.8034  1.0578
16692TIP3    H271568   1.588   4.348  16.931  0.3761  1.0982 -0.1919
16693TIP3   OH271569   5.298   0.930  11.109 -0.0685 -0.1458  0.5649
16693TIP3    H171570   5.356   0.963  11.178  0.1346  1.1930 -0.2217
16693TIP3    H271571   5.319   0.983  11.033 -0.9747 -0.9657 -0.2752
16694TIP3   OH271572   5.917   3.867   3.130 -0.0588 -0.0014 -0.5344
16694TIP3    H171573   5.873   3.886   3.048 -1.0774 -0.8565 -0.2090
16694TIP3    H271574   5.972   3.944   3.147  0.2245  0.1483 -2.0320
16695TIP3   OH271575   1.422   2.471   4.766  0.6801 -0.0759 -0.0579
16695TIP3    H171576   1.395   2.513   4.848  1.3213  1.9350 -0.8352
16695TIP3    H271577   1.475   2.396   4.794  0.6277  0.3866  1.3669
16696TIP3   OH271578   1.771   3.076  16.732  0.8237  0.2056 -0.9736
16696TIP3    H171579   1.696   3.084  16.791  0.6425 -0.1383 -1.1524
16696TIP3    H271580   1.848   3.087  16.788  0.6446  0.2678 -0.7403
16697TIP3   OH271581   5.446   2.291  17.247  0.6888  0.0742 -0.2721
16697TIP3    H171582   5.451   2.217  17.187  1.0105 -0.1071 -0.0274
16697TIP3    H271583   5.473   2.255  17.332 -0.2563  0.1994  0.0975
16698TIP3   OH271584   3.730   5.675   6.427 -0.2694 -0.1201 -0.0214
16698TIP3    H171585   3.672   5.691   6.502 -1.2181  1.1563 -0.9900
16698TIP3    H271586   3.763   5.586   6.441 -0.8653 -0.1127  1.6106
16699TIP3   OH271587   0.943   4.687  10.858 -0.2793  0.1370  0.1811
16699TIP3    H171588   0.966   4.779  10.875 -3.6457  1.0551  0.4167
16699TIP3    H271589   1.024   4.648  10.825  1.3769  3.0792  0.4129
16700TIP3   OH271590   3.407   4.187  12.571  0.3939 -0.2336 -0.2549
16700TIP3    H171591   3.414   4.099  12.533 -1.3766 -0.4062 -0.2436
16700TIP3    H271592   3.357   4.237  12.507  0.1329  0.3641  0.4057
16701TIP3   OH271593   3.643   1.066  12.630 -0.0173 -0.4350  0.0007
16701TIP3    H171594   3.645   1.158  12.604 -0.3478 -0.5790 -0.5619
16701TIP3    H271595   3.711   1.058  12.696 -0.7413  0.4509  0.8727
16702TIP3   OH271596   3.692   1.725   3.214  0.8825 -0.1529 -0.0179
16702TIP3    H171597   3.665   1.806   3.258  1.9811  0.0639  0.2970
16702TIP3    H271598   3.627   1.712   3.145  0.6210  0.9288  0.0124
16703TIP3   OH271599   2.606   2.695  13.039  0.7155  0.1772 -0.0920
16703TIP3    H171600   2.668   2.682  12.967 -0.2139 -2.7177 -0.4945
16703TIP3    H271601   2.530   2.641  13.015 -0.6860  1.1695  1.8583
16704TIP3   OH271602   2.574   2.423   5.448 -0.6377 -0.1199 -0.0448
16704TIP3    H171603   2.612   2.510   5.455 -1.1462  0.2670 -1.7148
16704TIP3    H271604   2.480   2.438   5.448 -0.7278 -0.5363 -1.3837
16705TIP3   OH271605   6.267   1.272   4.050  0.4695 -0.1873 -0.5510
16705TIP3    H171606   6.185   1.315   4.071  0.5200 -0.2974 -0.1241
16705TIP3    H271607   6.251   1.229   3.965 -0.1818 -0.9130 -0.0728
16706TIP3   OH271608   1.471   1.146  10.307  0.1083 -0.5096 -0.4581
16706TIP3    H171609   1.451   1.151  10.213 -1.0934  0.7523 -0.1661
16706TIP3    H271610   1.391   1.175  10.350  1.3004  0.8941  0.9035
16707TIP3   OH271611   0.766   3.171   2.732  0.0230 -0.2415  0.3139
16707TIP3    H171612   0.815   3.234   2.787 -1.4624 -0.5533  2.0932
16707TIP3    H271613   0.812   3.088   2.744 -1.1648 -0.6631  2.4471
16708TIP3   OH271614   3.389   0.771   3.649 -0.2935 -0.3784  0.0515
16708TIP3    H171615   3.319   0.832   3.672  0.6479 -0.1627  2.5730
16708TIP3    H271616   3.406   0.788   3.556 -2.4290  0.7121 -0.1902
16709TIP3   OH271617   6.206   2.548  15.464 -0.2006 -0.0594 -0.7880
16709TIP3    H171618   6.226   2.475  15.406  0.9748  0.7800 -1.4780
16709TIP3    H271619   6.274   2.613  15.446 -0.5794  0.7688  0.5859
16710TIP3   OH271620   3.377   2.298  15.895  0.3129  0.1809 -0.1280
16710TIP3    H171621   3.405   2.238  15.826 -0.1058  1.1702 -1.1904
16710TIP3    H271622   3.379   2.245  15.975 -0.9640 -1.5161 -1.1655
16711TIP3   OH271623   3.405   0.061  13.446 -0.1366  0.5857 -0.1945
16711TIP3    H171624   3.380  -0.003  13.512  0.8052  1.2315  0.8184
16711TIP3    H271625   3.376   0.145  13.482  1.7456  1.1291  0.1571
16712TIP3   OH271626   5.023   4.682  11.548  0.2987  0.1295  0.3662
16712TIP3    H171627   5.040   4.763  11.596  1.1470 -1.6329  3.3555
16712TIP3    H271628   4.940   4.650  11.583  0.6532 -0.9277  0.3037
16713TIP3   OH271629   2.146   2.216  13.674  0.5377  0.2633 -0.0148
16713TIP3    H171630   2.170   2.293  13.623 -0.1785  0.9888  0.6856
16713TIP3    H271631   2.050   2.217  13.675  0.5297  0.0115  0.9361
16714TIP3   OH271632   5.500   0.874  14.469  0.0464 -0.4430 -0.0762
16714TIP3    H171633   5.536   0.962  14.480  1.4867 -1.0187  0.0033
16714TIP3    H271634   5.479   0.868  14.376  0.7235 -0.2898 -0.2426
16715TIP3   OH271635   1.331   3.219  14.356  0.4561  0.2353  0.6481
16715TIP3    H171636   1.369   3.134  14.335 -0.6187  0.0281 -0.6251
16715TIP3    H271637   1.263   3.199  14.420 -1.2126 -0.2281 -1.1646
16716TIP3   OH271638   4.614   2.818  16.243 -0.0509 -0.2640  0.8722
16716TIP3    H171639   4.538   2.871  16.267  0.1854 -0.3487  1.8448
16716TIP3    H271640   4.687   2.856  16.294  0.1369 -1.4542  1.5256
16717TIP3   OH271641   5.526   5.595   5.991 -0.4213  0.5209 -0.3514
16717TIP3    H171642   5.506   5.627   6.080 -0.2723  1.4111 -0.6341
16717TIP3    H271643   5.535   5.674   5.938  1.5871  0.0845 -0.7359
16718TIP3   OH271644   0.949   4.161  14.314 -0.1228 -0.1494 -0.0939
16718TIP3    H171645   0.927   4.102  14.241  0.7031 -1.3081  0.5585
16718TIP3    H271646   0.923   4.112  14.392 -3.6191  2.1401  0.4267
16719TIP3   OH271647   3.977   1.157   4.211 -0.2385 -0.1261  0.2024
16719TIP3    H171648   3.904   1.103   4.240 -1.6222  1.9963  0.8507
16719TIP3    H271649   3.988   1.134   4.119 -0.8231 -1.4370  0.4320
16720TIP3   OH271650   1.137   1.315   3.296  0.6888  0.9868 -0.1654
16720TIP3    H171651   1.079   1.285   3.226 -2.1961  3.2871  1.0459
16720TIP3    H271652   1.164   1.234   3.340 -1.6893 -0.2403 -0.7650
16721TIP3   OH271653   2.122   0.831  11.507 -0.9264  0.1320  0.5135
16721TIP3    H171654   2.149   0.870  11.591 -1.2387  0.6885  0.3593
16721TIP3    H271655   2.128   0.737  11.522  2.1559  0.1510  0.1925
16722TIP3   OH271656   5.482   6.095  13.139 -0.4738  0.0151 -0.5642
16722TIP3    H171657   5.437   6.073  13.058  0.4262 -0.5612 -0.9322
16722TIP3    H271658   5.438   6.042  13.206  0.6382 -1.7964 -1.1814
16723TIP3   OH271659   2.354   3.301   3.818  0.1553  0.5374 -0.5455
16723TIP3    H171660   2.368   3.213   3.784 -0.0493  0.9222 -1.6778
16723TIP3    H271661   2.439   3.344   3.811  0.1989  0.4984 -0.2295
16724TIP3   OH271662   2.963   2.225  13.686 -0.2022 -0.1548 -0.2797
16724TIP3    H171663   2.928   2.187  13.767  0.1647 -1.6936 -0.8013
16724TIP3    H271664   2.956   2.319  13.699 -1.8072 -0.3793  0.8231
16725TIP3   OH271665   4.318   0.791   3.584  0.3122  0.0416 -0.6377
16725TIP3    H171666   4.387   0.725   3.573 -0.3424 -1.0161  1.1666
16725TIP3    H271667   4.366   0.873   3.599  1.2345 -0.7593  1.0712
16726TIP3   OH271668   0.221   4.420   0.851 -0.0394 -0.6462 -0.2122
16726TIP3    H171669   0.271   4.385   0.924 -0.7201 -2.0320 -0.3696
16726TIP3    H271670   0.130   4.418   0.882 -0.0322  2.3890  0.3076
16727TIP3   OH271671   2.059   3.189  13.134  0.3710  0.2014  0.2389
16727TIP3    H171672   2.145   3.230  13.124  0.6545 -0.6012 -0.6376
16727TIP3    H271673   1.998   3.263  13.136  0.9053  0.7096 -1.0751
16728TIP3   OH271674   5.853   0.525   4.701  0.2469  0.2904 -0.6560
16728TIP3    H171675   5.824   0.437   4.680 -0.6047  0.6502 -1.0314
16728TIP3    H271676   5.873   0.565   4.617 -0.3623  0.7823 -0.5788
16729TIP3   OH271677   6.420   1.036   1.002  0.0790 -0.2172 -0.1254
16729TIP3    H171678   6.430   1.099   0.930 -0.6898  1.4152  1.1319
16729TIP3    H271679   6.504   1.039   1.049 -0.0451  0.0808  0.0820
16730TIP3   OH271680   0.049   4.689  17.164 -0.1656 -0.1634  0.0381
16730TIP3    H171681   0.135   4.650  17.148 -0.7241 -1.6474  0.4905
16730TIP3    H271682   0.052   4.717  17.256 -0.0523  0.0836 -0.0412
16731TIP3   OH271683   3.686   3.870   3.849  0.2238  0.0863  0.0947
16731TIP3    H171684   3.705   3.896   3.759  3.1730 -1.3027  0.1904
16731TIP3    H271685   3.690   3.951   3.899  2.6952  0.4246 -0.5045
16732TIP3   OH271686   1.194   0.607   0.047 -0.1018  0.1921 -0.0706
16732TIP3    H171687   1.260   0.541   0.028 -0.0815 -0.3638  1.6859
16732TIP3    H271688   1.136   0.607  -0.029  1.7701  0.5511 -1.5486
16733TIP3   OH271689   3.485   1.351  12.197 -0.0329 -0.4068 -0.5465
16733TIP3    H171690   3.563   1.364  12.142  0.4924 -1.3927 -0.0621
16733TIP3    H271691   3.412   1.382  12.143  0.8757  2.6449 -0.2136
16734TIP3   OH271692   6.558   1.929  15.045 -0.1892  0.4857 -0.4181
16734TIP3    H171693   6.544   2.013  15.089 -0.3764  1.0934 -1.5909
16734TIP3    H271694   6.605   1.952  14.965  2.2772 -0.8472  0.5488
16735TIP3   OH271695   6.041   0.797   6.203 -0.0959  0.0469 -0.1546
16735TIP3    H171696   6.105   0.868   6.203 -0.3381  0.2706 -1.0533
16735TIP3    H271697   6.093   0.718   6.221 -0.0255  0.5800  2.5356
16736TIP3   OH271698   3.158   4.442  16.710 -0.3571  0.0175 -0.3711
16736TIP3    H171699   3.253   4.455  16.713 -0.4845  0.7595  1.2318
16736TIP3    H271700   3.132   4.473  16.623  0.9852 -1.1945 -1.2574
16737TIP3   OH271701   5.674   4.803   0.327 -0.2064  0.2174  0.2105
16737TIP3    H171702   5.759   4.838   0.355 -0.7683  2.2219 -0.4064
16737TIP3    H271703   5.687   4.708   0.325  1.8511  0.4329  0.6686
16738TIP3   OH271704   0.246   1.084  14.396  0.1977 -0.1355  0.2188
16738TIP3    H171705   0.180   1.092  14.327 -1.5543  0.2421  1.8324
16738TIP3    H271706   0.279   1.174  14.407  0.4374 -0.1858 -0.0955
16739TIP3   OH271707   6.087   1.713   5.709  0.1470 -0.1022 -0.2436
16739TIP3    H171708   6.127   1.638   5.752 -1.4594 -0.2701  1.0770
16739TIP3    H271709   6.009   1.678   5.665 -0.8180  0.7891  0.6782
16740TIP3   OH271710   0.047   6.574   2.931 -0.0390 -0.5189 -0.6075
16740TIP3    H171711  -0.045   6.548   2.921 -0.6482  0.4120  1.9170
16740TIP3    H271712   0.083   6.512   2.994 -0.2262  1.6791  1.8240
16741TIP3   OH271713   4.240   3.662  14.281 -0.3615  0.2931 -0.1812
16741TIP3    H171714   4.174   3.731  14.292 -0.4933  0.1472 -0.0389
16741TIP3    H271715   4.281   3.682  14.197 -1.1133 -0.0516 -0.6467
16742TIP3   OH271716   3.867   5.114  14.793  0.3260 -0.3086 -0.0155
16742TIP3    H171717   3.955   5.127  14.827  1.1723 -1.6401 -1.5757
16742TIP3    H271718   3.872   5.142  14.701 -1.5479  1.9599  0.4600
16743TIP3   OH271719   2.384   2.370  16.810  0.0563  0.5660  0.5125
16743TIP3    H171720   2.329   2.292  16.815  0.1852  0.4245 -0.1266
16743TIP3    H271721   2.464   2.347  16.857  1.5413 -0.9516 -2.4685
16744TIP3   OH271722   0.945   2.221   5.246 -0.3421 -0.0278 -0.3635
16744TIP3    H171723   1.011   2.218   5.314  1.1798  1.9797 -1.6290
16744TIP3    H271724   0.896   2.302   5.264  0.5166  0.9011 -1.9404
16745TIP3   OH271725   3.320   5.195  11.691 -0.2869 -0.1846 -0.4953
16745TIP3    H171726   3.230   5.226  11.697 -0.8280 -1.9177  1.4080
16745TIP3    H271727   3.347   5.216  11.602 -2.3713  0.8635 -0.9305
16746TIP3   OH271728   5.244   4.047   6.524 -0.0418  0.2634 -0.1697
16746TIP3    H171729   5.295   4.127   6.538 -0.2068  0.3634 -0.1358
16746TIP3    H271730   5.293   3.999   6.458 -0.2200  0.6471 -0.5880
16747TIP3   OH271731   2.722   3.686   3.402 -0.2297 -0.2487  0.8627
16747TIP3    H171732   2.740   3.600   3.440 -0.4661 -0.7396 -0.1186
16747TIP3    H271733   2.807   3.715   3.368 -0.1001  0.0244  1.3959
16748TIP3   OH271734   1.534   6.228  17.277  0.2966  0.1471 -0.0734
16748TIP3    H171735   1.543   6.320  17.302  2.6321 -0.3809  1.4012
16748TIP3    H271736   1.463   6.194  17.332 -0.3301  0.9668 -0.3625
16749TIP3   OH271737   1.760   1.775  12.254  0.4565  0.0756  0.1531
16749TIP3    H171738   1.718   1.859  12.271 -0.5787 -0.7888  2.2626
16749TIP3    H271739   1.696   1.709  12.283  2.1432 -1.3560  0.8464
16750TIP3   OH271740   6.219   2.718   0.512  0.1439  0.2485  0.3158
16750TIP3    H171741   6.252   2.712   0.423 -0.4159  2.0704 -0.0691
16750TIP3    H271742   6.145   2.657   0.515  2.1762 -2.3810  0.6146
16751TIP3   OH271743   0.226   3.913   4.057 -0.2097 -0.5120  0.0385
16751TIP3    H171744   0.273   3.875   3.983 -0.7623  0.1941 -0.6969
16751TIP3    H271745   0.283   3.897   4.132  1.2220  0.3320 -0.8176
16752TIP3   OH271746   3.864   3.185   5.934  0.1973 -0.2531 -0.3711
16752TIP3    H171747   3.822   3.101   5.949  1.7720 -0.8879  0.7592
16752TIP3    H271748   3.926   3.169   5.863  0.2675  0.0545 -0.3803
16753TIP3   OH271749   3.997   0.828   4.389 -0.0430 -0.0470 -0.2877
16753TIP3    H171750   3.911   0.869   4.384  0.1922  0.4743 -0.0057
16753TIP3    H271751   4.038   0.864   4.468  0.1302 -0.8822  0.0182
16754TIP3   OH271752   6.003   3.994  12.183  0.3412 -0.0268 -0.5804
16754TIP3    H171753   6.050   3.980  12.265 -2.1069  1.6223  1.2452
16754TIP3    H271754   6.048   4.068  12.142  1.2993 -0.5573 -0.4954
16755TIP3   OH271755   5.946   1.283  11.176  0.1481  0.0281 -0.0583
16755TIP3    H171756   5.947   1.363  11.229  1.2329 -0.5941  0.9175
16755TIP3    H271757   5.994   1.219  11.229  0.3473 -0.9231 -1.3501
16756TIP3   OH271758   0.054   6.094  15.069 -0.0620 -0.2411  0.4200
16756TIP3    H171759   0.043   6.065  15.159  0.5386 -0.3810  0.4583
16756TIP3    H271760   0.033   6.187  15.070  1.8874  0.2371  1.1322
16757TIP3   OH271761   1.291   3.003  15.791 -0.3820  0.6953  0.0505
16757TIP3    H171762   1.366   3.049  15.753 -0.1589 -0.7803 -1.3814
16757TIP3    H271763   1.317   2.911  15.790 -2.2886  0.1227 -0.6650
16758TIP3   OH271764   1.740   6.252   1.708 -0.5952 -0.6903  0.2293
16758TIP3    H171765   1.696   6.283   1.787 -1.8558  1.9176 -1.3423
16758TIP3    H271766   1.668   6.225   1.650  0.0839 -0.0524 -0.9561
16759TIP3   OH271767   2.385   0.337  12.382  0.1773 -0.3571 -0.4903
16759TIP3    H171768   2.372   0.411  12.323 -0.3261 -1.4074 -1.7454
16759TIP3    H271769   2.296   0.313  12.410  0.3169 -0.6557 -0.3038
16760TIP3   OH271770   5.457   5.705  11.347  0.1485 -0.5188 -0.8831
16760TIP3    H171771   5.397   5.633  11.364  0.5269 -1.0075 -1.5627
16760TIP3    H271772   5.543   5.663  11.343  0.5217  0.1416 -0.1160
16761TIP3   OH271773   5.599   2.140  11.824 -0.1521 -0.2872  0.0195
16761TIP3    H171774   5.538   2.172  11.890 -1.1956 -0.9036 -0.6055
16761TIP3    H271775   5.583   2.196  11.748  0.5144 -0.0537  0.0505
16762TIP3   OH271776   0.045   2.296   3.360  0.0811  0.1308 -0.1710
16762TIP3    H171777   0.108   2.351   3.407 -0.8353  0.2410  0.9780
16762TIP3    H271778  -0.000   2.248   3.429 -0.2080 -0.9067 -1.0668
16763TIP3   OH271779   4.010   5.136  16.188 -0.9247 -0.3831  0.1528
16763TIP3    H171780   4.025   5.148  16.094  1.4544 -1.7356  0.2651
16763TIP3    H271781   3.960   5.055  16.194 -1.1632 -0.2438  0.0462
16764TIP3   OH271782   5.521   4.725   0.644  0.4536 -0.6920 -0.5353
16764TIP3    H171783   5.528   4.821   0.635  0.3520 -0.7494 -1.3572
16764TIP3    H271784   5.447   4.702   0.587  0.3913 -1.2428 -0.2303
16765TIP3   OH271785   0.147   2.996  17.246 -1.2889 -0.2057  0.6522
16765TIP3    H171786   0.101   3.080  17.248 -2.2817 -0.6731 -0.8491
16765TIP3    H271787   0.168   2.978  17.338 -0.7760  1.7991  0.9897
16766TIP3   OH271788   5.600   2.595  10.663  0.5446 -0.8122 -0.3876
16766TIP3    H171789   5.523   2.589  10.721  0.7929 -1.7820 -0.1363
16766TIP3    H271790   5.665   2.641  10.715  0.4589 -0.8652 -0.2307
16767TIP3   OH271791   2.440   1.909   1.398  0.3445 -0.1329  0.1821
16767TIP3    H171792   2.479   1.853   1.464  1.2992 -0.9705 -1.0484
16767TIP3    H271793   2.434   1.995   1.440 -0.0071 -0.8610  1.6762
16768TIP3   OH271794   3.907   1.583   3.032  0.3106  0.5370 -0.7159
16768TIP3    H171795   3.868   1.650   3.087 -1.2039  0.0910 -1.1998
16768TIP3    H271796   3.833   1.533   2.998  1.3966 -1.6845 -0.0301
16769TIP3   OH271797   2.283   0.842   3.675  0.0968  0.2794 -0.1468
16769TIP3    H171798   2.273   0.927   3.631  2.2243  1.6511  1.8417
16769TIP3    H271799   2.350   0.797   3.624  1.6407  1.3481  0.8776
16770TIP3   OH271800   6.057   5.177   2.044  0.4459 -0.1064 -0.4411
16770TIP3    H171801   6.067   5.248   2.108  0.0164 -0.3639 -0.0829
16770TIP3    H271802   6.063   5.097   2.096 -3.3033 -0.3491 -0.1173
16771TIP3   OH271803   1.382   4.655   0.888 -0.1896  0.1556  0.0239
16771TIP3    H171804   1.420   4.606   0.960 -1.6464  0.0972  0.7946
16771TIP3    H271805   1.375   4.745   0.920 -0.3931  0.2322 -0.2270
16772TIP3   OH271806   2.753   6.565   2.766  0.2340  0.2482  0.3324
16772TIP3    H171807   2.681   6.628   2.760  0.3019  0.2791 -0.1664
16772TIP3    H271808   2.795   6.569   2.681 -1.2766 -2.2750 -0.6434
16773TIP3   OH271809   4.394   0.265  13.741  0.1774 -0.7969 -0.3416
16773TIP3    H171810   4.340   0.247  13.664 -1.1989  3.9730 -0.8138
16773TIP3    H271811   4.481   0.282  13.705 -0.3348  0.8772 -0.8710
16774TIP3   OH271812   0.387   6.381   2.823 -0.0829 -0.3763 -0.4295
16774TIP3    H171813   0.380   6.288   2.800  2.0305 -0.8180  0.5017
16774TIP3    H271814   0.378   6.427   2.740 -0.3382 -1.4539 -1.0259
16775TIP3   OH271815   6.250   4.272   3.302 -0.3030  0.2725  0.0126
16775TIP3    H171816   6.229   4.182   3.277  1.6943  0.0784 -1.1723
16775TIP3    H271817   6.183   4.325   3.260 -1.6568 -0.6411  0.9292
16776TIP3   OH271818   0.027   2.408   2.727  0.0244 -0.1401 -0.2007
16776TIP3    H171819  -0.062   2.402   2.759  0.1230  1.4404  0.4787
16776TIP3    H271820   0.060   2.318   2.728 -1.5613 -0.7559 -0.5562
16777TIP3   OH271821   2.549   5.216   4.674 -0.5000  0.3152  0.2909
16777TIP3    H171822   2.635   5.228   4.715 -0.0215 -0.2818 -0.5238
16777TIP3    H271823   2.489   5.210   4.748 -0.0322  1.9380  0.8668
16778TIP3   OH271824   4.154   4.691   0.804 -0.0591  0.7190 -0.9236
16778TIP3    H171825   4.115   4.632   0.739 -1.1882 -1.5965  1.6685
16778TIP3    H271826   4.199   4.632   0.865  0.5751  2.7303  0.6438
16779TIP3   OH271827   6.170   2.398   4.863 -0.9491  0.0258  0.1163
16779TIP3    H171828   6.218   2.383   4.782  2.1597  2.3805  1.3052
16779TIP3    H271829   6.111   2.471   4.843 -1.9023 -0.8961 -0.5542
16780TIP3   OH271830   6.777   5.995   5.299  0.2067  0.0189  0.0561
16780TIP3    H171831   6.687   5.984   5.266  0.2872 -0.6522  0.0331
16780TIP3    H271832   6.768   5.995   5.394  0.0146  1.5833  0.0650
16781TIP3   OH271833   6.531   3.417   1.164  0.0379 -0.4898  0.0665
16781TIP3    H171834   6.479   3.491   1.194 -0.8836 -1.1599  0.1667
16781TIP3    H271835   6.467   3.349   1.145  0.8859 -1.3763  0.2970
16782TIP3   OH271836   1.303   1.537   6.593 -0.0934  1.1365 -0.4651
16782TIP3    H171837   1.232   1.505   6.538  0.5526  0.5584 -0.9730
16782TIP3    H271838   1.316   1.628   6.564 -0.6463  1.2620 -0.3365
16783TIP3   OH271839   0.065   2.014   5.009  0.2173 -0.2426  0.6166
16783TIP3    H171840   0.130   2.054   5.067 -1.4146  1.4478  1.3978
16783TIP3    H271841   0.006   1.968   5.068 -0.7799  0.4947  0.2274
16784TIP3   OH271842   4.104   2.719  12.525  0.2499  0.3088 -0.2565
16784TIP3    H171843   4.182   2.697  12.577 -0.3548 -0.0872  0.4941
16784TIP3    H271844   4.124   2.684  12.438  0.5578 -0.5978  0.1588
16785TIP3   OH271845   4.817   2.985   1.634 -0.2989 -0.5026  0.1498
16785TIP3    H171846   4.848   2.896   1.623 -2.0469 -0.9526 -1.9163
16785TIP3    H271847   4.879   3.039   1.584 -0.0795 -0.7571  0.1465
16786TIP3   OH271848   6.290   1.411  11.446  0.0014  0.1140 -0.1797
16786TIP3    H171849   6.346   1.437  11.519  0.9350  2.5022 -1.6456
16786TIP3    H271850   6.351   1.388  11.376 -0.8764 -2.0949 -0.2942
16787TIP3   OH271851   0.527   6.240   0.162  0.3595  0.4130 -0.0104
16787TIP3    H171852   0.513   6.240   0.256 -1.4530 -0.4448 -0.2467
16787TIP3    H271853   0.446   6.276   0.125  0.4905 -0.5491 -1.3001
16788TIP3   OH271854   5.298   1.675  14.068  0.1093  0.0302  0.1131
16788TIP3    H171855   5.341   1.694  13.985 -1.4101  0.3511 -0.6241
16788TIP3    H271856   5.308   1.756  14.119  0.2887  0.1331 -0.0836
16789TIP3   OH271857   0.401   1.540  16.185  0.4956  0.3484 -0.0811
16789TIP3    H171858   0.448   1.620  16.208  1.4154  0.7694 -3.0436
16789TIP3    H271859   0.310   1.558  16.209  0.6966  2.2849 -0.6173
16790TIP3   OH271860   0.089   6.159  14.664 -0.2550  0.4657 -0.5307
16790TIP3    H171861   0.125   6.187  14.580  0.1618 -1.3996 -1.0199
16790TIP3    H271862   0.081   6.239  14.715  0.5050  1.4884 -1.9620
16791TIP3   OH271863   4.801   0.284   4.227 -0.2550  0.2819 -0.1437
16791TIP3    H171864   4.857   0.341   4.173 -0.9571  0.9438 -0.1891
16791TIP3    H271865   4.833   0.297   4.316 -1.2498  1.7991  0.0305
16792TIP3   OH271866   3.310   5.977  12.236  0.0246  0.2481 -0.1283
16792TIP3    H171867   3.310   5.933  12.151 -4.1437 -0.9618  0.3098
16792TIP3    H271868   3.309   5.906  12.300 -0.7295  1.0715  0.8027
16793TIP3   OH271869   2.225   1.692  13.862 -0.2546 -0.3827 -0.5280
16793TIP3    H171870   2.238   1.660  13.951 -1.3260 -1.5165 -0.7472
16793TIP3    H271871   2.147   1.747  13.867  0.6005  0.8552 -0.4819
16794TIP3   OH271872   0.298   0.531   2.648 -0.1014  0.0386  0.5136
16794TIP3    H171873   0.323   0.602   2.589  0.0347  0.8354  1.5141
16794TIP3    H271874   0.275   0.459   2.590  2.5417 -0.0945 -0.5290
16795TIP3   OH271875   4.089   1.210  11.766  0.2699 -0.3554  0.5872
16795TIP3    H171876   4.016   1.194  11.706  1.2204  1.8499 -1.3564
16795TIP3    H271877   4.167   1.201  11.711  1.3140 -0.1169  1.9674
16796TIP3   OH271878   4.437   6.359  15.511  0.6230  0.3096  0.0682
16796TIP3    H171879   4.455   6.270  15.478  0.1688  0.3648 -0.3609
16796TIP3    H271880   4.397   6.345  15.597 -0.2537  0.0479 -0.3703
16797TIP3   OH271881   4.938   1.277  16.591  0.0254  0.1509  0.3056
16797TIP3    H171882   4.986   1.348  16.549  1.9653 -0.8734  0.6850
16797TIP3    H271883   4.879   1.321  16.652  0.0600  1.4709 -0.5777
16798TIP3   OH271884   5.429   2.005   6.006 -0.3806 -0.1333 -0.3902
16798TIP3    H171885   5.421   1.910   6.005  0.7234 -0.2809  0.6600
16798TIP3    H271886   5.490   2.022   6.079 -0.4809  1.3623 -0.6283
16799TIP3   OH271887   1.618   4.322   4.249 -0.2767  0.3605 -0.2401
16799TIP3    H171888   1.616   4.264   4.326 -0.2516 -2.3353 -2.1135
16799TIP3    H271889   1.537   4.301   4.203 -0.1916  1.7804 -1.0666
16800TIP3   OH271890   5.979   1.005   2.309  0.3645 -0.3604 -0.4886
16800TIP3    H171891   5.973   1.063   2.385  0.4131  0.8161 -1.3575
16800TIP3    H271892   5.988   1.064   2.234 -1.8353 -1.3937 -1.6656
16801TIP3   OH271893   2.068   0.337   2.657 -0.5438  0.4800  0.6796
16801TIP3    H171894   2.152   0.297   2.677 -1.2557 -0.9087  1.0420
16801TIP3    H271895   2.074   0.426   2.692  0.6793  0.3307  0.8783
16802TIP3   OH271896   6.287   5.959   0.253 -0.3191  0.2077  0.1648
16802TIP3    H171897   6.194   5.945   0.268 -0.6601  1.8844 -0.1570
16802TIP3    H271898   6.292   6.048   0.218  1.3710  0.0089 -0.1760
16803TIP3   OH271899   4.100   1.254   4.977 -0.3982 -0.5448 -0.2665
16803TIP3    H171900   4.111   1.257   4.882 -0.2652 -1.2913 -0.2801
16803TIP3    H271901   4.188   1.238   5.011  0.2034  2.9168  0.2124
16804TIP3   OH271902   0.511   1.183  15.779  0.6017  0.2943 -0.2161
16804TIP3    H171903   0.582   1.172  15.841  0.2244 -0.0959  0.1468
16804TIP3    H271904   0.465   1.262  15.808 -0.6841 -0.8907  1.1132
16805TIP3   OH271905   6.716   1.780   6.030 -0.4032 -0.0677  0.1349
16805TIP3    H171906   6.663   1.718   6.080 -1.5853 -0.2815 -1.3159
16805TIP3    H271907   6.674   1.865   6.046 -0.0666  0.0396  0.4445
16806TIP3   OH271908   2.684   0.347   5.021 -0.1307  0.0395  0.3717
16806TIP3    H171909   2.599   0.312   4.992 -1.4573  2.6264  0.7945
16806TIP3    H271910   2.711   0.404   4.949  0.2184  0.7972  1.0915
16807TIP3   OH271911   2.631   1.206   0.855  0.0144 -0.4192  0.0145
16807TIP3    H171912   2.687   1.257   0.914 -1.8839  0.2638  1.3152
16807TIP3    H271913   2.567   1.164   0.913  0.3370 -2.7847 -1.2300
16808TIP3   OH271914   5.153   3.022  11.658 -0.4115 -0.1836  0.9008
16808TIP3    H171915   5.173   3.061  11.572 -0.3875 -0.6749  0.6800
16808TIP3    H271916   5.214   3.064  11.718  0.2254 -0.5400  0.5040
16809TIP3   OH271917   2.049   6.065   2.177  0.1892  0.4967 -0.5049
16809TIP3    H171918   1.995   6.016   2.114  2.0527 -0.1542 -1.6946
16809TIP3    H271919   2.045   6.156   2.147 -2.3125  0.9706  0.9987
16810TIP3   OH271920   1.649   4.773  15.943 -0.3754  0.3513  0.1611
16810TIP3    H171921   1.730   4.806  15.904  0.0368 -0.4005  0.3568
16810TIP3    H271922   1.636   4.687  15.902 -0.2324 -0.2072  1.2477
16811TIP3   OH271923   4.487   4.060   1.692  0.4229 -0.0719  0.3578
16811TIP3    H171924   4.575   4.095   1.707  0.7266 -0.3065 -0.7475
16811TIP3    H271925   4.451   4.115   1.622  0.3251 -0.9998 -0.3446
16812TIP3   OH271926   3.444   2.485  13.194  0.2490  0.2438  0.2601
16812TIP3    H171927   3.426   2.469  13.102 -1.8044  1.9172  0.2961
16812TIP3    H271928   3.362   2.466  13.239  0.9231  0.4022  1.6282
16813TIP3   OH271929   6.284   1.700   5.953 -0.2719 -0.2812  0.0442
16813TIP3    H171930   6.315   1.712   6.043 -2.7798 -2.7675  1.3977
16813TIP3    H271931   6.208   1.759   5.946  1.2533  1.6492 -1.3452
16814TIP3   OH271932   5.191   6.705  12.555  0.0950 -0.4262 -0.4361
16814TIP3    H171933   5.252   6.779  12.558 -1.7384  1.1939 -1.0379
16814TIP3    H271934   5.108   6.743  12.528 -0.9362 -2.7405 -0.7960
16815TIP3   OH271935   4.309   0.392  11.217  0.1340  0.1581 -0.3844
16815TIP3    H171936   4.319   0.459  11.149 -0.0314 -0.4372 -1.0140
16815TIP3    H271937   4.256   0.324  11.175  0.2047 -0.3161  0.2786
16816TIP3   OH271938   1.937   2.621  11.432 -0.0631 -0.7299  0.3202
16816TIP3    H171939   1.883   2.642  11.356 -1.3133 -1.5027  0.9674
16816TIP3    H271940   1.950   2.527  11.428 -0.7856 -0.8955  1.4681
16817TIP3   OH271941   0.543   2.187   3.085 -0.0729 -0.6438  0.1219
16817TIP3    H171942   0.610   2.254   3.070 -1.2568  0.2246 -1.5126
16817TIP3    H271943   0.497   2.217   3.163  1.9492 -1.7449  1.8603
16818TIP3   OH271944   6.491   0.424   0.642 -0.2852 -0.0448 -0.3991
16818TIP3    H171945   6.486   0.359   0.571 -2.5207 -0.7963  0.3416
16818TIP3    H271946   6.424   0.395   0.704  0.9612  1.1414  1.5768
16819TIP3   OH271947   3.692   2.995   1.737  0.0262  0.1480 -0.1023
16819TIP3    H171948   3.740   3.063   1.688 -1.3132  0.4424 -1.0611
16819TIP3    H271949   3.736   2.992   1.822  1.2110  0.9903 -0.6416
16820TIP3   OH271950   4.373   5.943  13.844  0.0845 -0.7679  0.0043
16820TIP3    H171951   4.324   6.016  13.882 -0.6846 -1.2801  0.0152
16820TIP3    H271952   4.377   5.878  13.914 -1.6004 -1.8470 -0.8327
16821TIP3   OH271953   1.937   1.379  14.802 -0.0165 -0.1800 -0.5368
16821TIP3    H171954   1.954   1.285  14.794 -0.0725 -0.2539  0.1818
16821TIP3    H271955   1.993   1.407  14.875 -0.3653  0.2471 -0.4334
16822TIP3   OH271956   1.261   3.033   6.253  0.4041  0.7079  0.8295
16822TIP3    H171957   1.299   2.976   6.320  1.3473  1.6965  1.1645
16822TIP3    H271958   1.255   3.118   6.295 -0.0828  1.0725  0.0256
16823TIP3   OH271959   3.832   6.266  12.515 -0.7065  0.4319  0.2579
16823TIP3    H171960   3.792   6.309  12.439 -0.9047  0.2790  0.2737
16823TIP3    H271961   3.923   6.296  12.515 -1.0167  1.4401  0.6880
16824TIP3   OH271962   5.943   5.181  15.508 -0.2746 -0.0413 -0.2902
16824TIP3    H171963   5.930   5.111  15.444 -0.3917 -0.5581  0.2885
16824TIP3    H271964   5.943   5.262  15.456  0.0265 -0.4818 -0.9821
16825TIP3   OH271965   6.655   5.157  15.236  0.4442 -0.2551 -0.3534
16825TIP3    H171966   6.734   5.165  15.182 -0.8896 -1.6573 -2.6774
16825TIP3    H271967   6.584   5.146  15.173 -1.4565 -0.4192  1.6909
16826TIP3   OH271968   1.040   6.772   2.361 -0.2062 -0.3231  0.0532
16826TIP3    H171969   1.120   6.806   2.321  0.4887  0.5468  2.0398
16826TIP3    H271970   0.969   6.812   2.312  0.6068  1.0201 -0.0831
16827TIP3   OH271971   0.870   5.524  14.141 -0.9405  0.0908 -0.1923
16827TIP3    H171972   0.909   5.441  14.114 -0.0892  0.4774 -0.1869
16827TIP3    H271973   0.876   5.580  14.064  0.9501  0.9995  0.5368
16828TIP3   OH271974   2.046   5.663   0.273  0.3332 -0.0813 -0.2351
16828TIP3    H171975   2.097   5.586   0.299 -1.0729 -1.0897 -0.3724
16828TIP3    H271976   1.956   5.643   0.299 -0.0891  1.4854 -0.3664
16829TIP3   OH271977   6.395   5.569   5.849  0.1911 -0.1902 -0.0451
16829TIP3    H171978   6.378   5.481   5.815  1.3167 -0.0449 -1.0246
16829TIP3    H271979   6.318   5.589   5.903 -1.5520 -0.5596 -2.2605
16830TIP3   OH271980   2.559   2.421   3.156  0.3782  0.3300 -0.0717
16830TIP3    H171981   2.597   2.406   3.069  1.6536 -0.7491  0.6196
16830TIP3    H271982   2.580   2.513   3.176 -0.7465  0.8700 -1.2589
16831TIP3   OH271983   5.483   5.959   3.447  0.3167 -0.5096  0.4584
16831TIP3    H171984   5.480   5.864   3.449  0.7351 -0.5234  0.7107
16831TIP3    H271985   5.547   5.982   3.514 -1.3939  0.0461  1.9875
16832TIP3   OH271986   0.921   4.829  14.269  0.2498  0.8073  0.5831
16832TIP3    H171987   0.979   4.821  14.193  1.7401  0.6022  1.7009
16832TIP3    H271988   0.958   4.902  14.319 -0.9346  1.1781  0.9426
16833TIP3   OH271989   6.302   2.485   2.526 -0.1318  0.3682 -0.0907
16833TIP3    H171990   6.253   2.566   2.514  0.5692  0.9012  0.5090
16833TIP3    H271991   6.261   2.423   2.466 -0.4929  1.2491 -0.7830
16834TIP3   OH271992   6.509   2.022  14.412  0.2381  0.5215  0.0751
16834TIP3    H171993   6.562   2.080  14.358 -0.9760  1.3854 -0.2275
16834TIP3    H271994   6.438   2.078  14.445  0.0890 -0.3489  1.3160
16835TIP3   OH271995   2.391   3.825   2.679 -0.2624 -0.1063  0.1517
16835TIP3    H171996   2.465   3.766   2.670  1.5385  2.1652 -1.0001
16835TIP3    H271997   2.375   3.858   2.590 -1.7786  0.4827  0.5988
16836TIP3   OH271998   3.050   0.924   5.869 -0.2173 -0.2422 -0.2898
16836TIP3    H171999   3.058   1.019   5.867 -2.0912 -0.0091  0.7497
16836TIP3    H272000   2.962   0.907   5.834  1.2304 -1.8623 -3.5873
16837TIP3   OH272001   0.717   4.491   1.275 -0.3076 -0.0182  0.2044
16837TIP3    H172002   0.662   4.412   1.277  0.4516 -0.5430  2.4507
16837TIP3    H272003   0.697   4.531   1.190 -2.6167 -1.2669  0.0781
16838TIP3   OH272004   2.925   3.880   4.504  0.3174  0.1516 -0.3378
16838TIP3    H172005   2.864   3.852   4.572  1.6583  1.5439  1.5515
16838TIP3    H272006   3.007   3.834   4.526  0.1639 -1.2918 -2.5154
16839TIP3   OH272007   1.895   1.816  14.801  0.1979  0.0472 -0.1424
16839TIP3    H172008   1.916   1.777  14.886  0.4584  0.5872  0.0482
16839TIP3    H272009   1.939   1.901  14.802 -2.5785  1.6030  0.5977
16840TIP3   OH272010   4.882   6.531   4.545  0.0074 -0.1388  0.0255
16840TIP3    H172011   4.937   6.587   4.490 -1.4311 -0.0729 -1.4366
16840TIP3    H272012   4.844   6.590   4.610 -0.2913  0.3090 -0.5447
16841TIP3   OH272013   3.028   5.166  11.392  0.1684  0.5529  0.4003
16841TIP3    H172014   3.012   5.078  11.424  2.0045 -0.4294 -1.1965
16841TIP3    H272015   2.994   5.223  11.461  0.1665 -1.3899  2.1007
16842TIP3   OH272016   2.997   2.113  15.892  0.0489 -0.1222 -0.1304
16842TIP3    H172017   3.034   2.122  15.980  0.0019  0.5790 -0.1810
16842TIP3    H272018   3.029   2.028  15.862  0.2212 -0.2856  0.4890
16843TIP3   OH272019   0.919   0.786   4.797 -0.0492  0.2783  0.0707
16843TIP3    H172020   0.877   0.785   4.883 -1.2786  0.7243 -0.4997
16843TIP3    H272021   0.893   0.870   4.759 -2.2007 -1.2025 -1.9899
16844TIP3   OH272022   0.105   4.998  12.154 -0.5371  0.0227  0.0245
16844TIP3    H172023   0.073   4.910  12.138  0.1359 -0.3037  0.4243
16844TIP3    H272024   0.070   5.050  12.082 -0.5616 -0.6638 -0.4688
16845TIP3   OH272025   1.579   0.124   5.525 -0.3772 -0.7392  0.4963
16845TIP3    H172026   1.673   0.105   5.523 -0.4958 -1.4230  1.1387
16845TIP3    H272027   1.573   0.209   5.569 -0.0593 -0.6897  0.4463
16846TIP3   OH272028   0.762   6.580  11.263  0.2660 -0.3792 -0.2189
16846TIP3    H172029   0.814   6.658  11.284 -0.7003 -0.2717  2.0553
16846TIP3    H272030   0.755   6.581  11.167  1.3660  1.5901 -0.3375
16847TIP3   OH272031   2.110   4.707  15.060 -0.3892 -0.1873 -0.2051
16847TIP3    H172032   2.189   4.659  15.086  0.5912  2.0771  1.4035
16847TIP3    H272033   2.057   4.710  15.140 -2.5722 -2.2796 -1.4257
16848TIP3   OH272034   1.286   0.910   6.065 -0.1732 -0.3442  0.0912
16848TIP3    H172035   1.209   0.852   6.066  0.8697 -1.7764 -0.0175
16848TIP3    H272036   1.300   0.933   6.157 -0.5204 -0.3609  0.1494
16849TIP3   OH272037   2.144   2.719  14.459 -0.2160 -0.2049 -0.3241
16849TIP3    H172038   2.059   2.713  14.416  0.3919  1.2724 -1.8173
16849TIP3    H272039   2.188   2.636  14.438 -0.5301 -0.1471 -1.2451
16850TIP3   OH272040   4.253   2.408  12.493 -0.5433 -0.1311  0.3828
16850TIP3    H172041   4.328   2.467  12.493  0.1845 -0.9897  1.9202
16850TIP3    H272042   4.257   2.364  12.408 -0.2024  0.9288 -0.1603
16851TIP3   OH272043   5.106   5.482   1.424  0.1055 -0.0968  0.5178
16851TIP3    H172044   5.123   5.555   1.483 -0.9451  0.8209 -0.2828
16851TIP3    H272045   5.052   5.422   1.475 -0.9588  0.7774  0.4662
16852TIP3   OH272046   0.121   0.763  16.758  0.0436 -0.4913 -0.1821
16852TIP3    H172047   0.174   0.725  16.689  1.0768 -0.8546  0.7853
16852TIP3    H272048   0.060   0.821  16.712 -0.5746 -2.1519 -1.5531
16853TIP3   OH272049   5.259   2.051  15.128  0.6000 -0.6758 -0.4328
16853TIP3    H172050   5.264   2.020  15.037 -2.6269  1.8709 -1.6511
16853TIP3    H272051   5.282   2.143  15.123  0.7448 -0.5824  1.4600
16854TIP3   OH272052   5.334   0.229  12.181 -0.1886 -0.0367 -0.0906
16854TIP3    H172053   5.249   0.272  12.179 -0.3816 -0.3764  0.5635
16854TIP3    H272054   5.313   0.135  12.180  0.1713 -0.1211  0.1768
16855TIP3   OH272055   0.366   3.751  12.472 -0.8044  0.2519  0.2276
16855TIP3    H172056   0.428   3.727  12.540 -0.8532 -1.3316 -0.2541
16855TIP3    H272057   0.314   3.821  12.511 -0.4105 -0.1758  1.5792
16856TIP3   OH272058   0.332   5.741  13.458  0.3068 -0.6063  0.4819
16856TIP3    H172059   0.356   5.816  13.404  0.2344 -0.6418  0.4008
16856TIP3    H272060   0.241   5.757  13.483  0.7257  0.0545  1.6573
16857TIP3   OH272061   2.460   3.744   3.747  0.0008 -0.6209 -0.3376
16857TIP3    H172062   2.513   3.797   3.688 -1.6263 -0.2008 -1.5082
16857TIP3    H272063   2.515   3.669   3.768  0.9355 -0.3814 -1.7605
16858TIP3   OH272064   6.578   2.791  12.284 -0.4627  0.0532 -0.9177
16858TIP3    H172065   6.663   2.747  12.293 -0.4095  0.4260  0.5904
16858TIP3    H272066   6.599   2.882  12.265 -0.5591 -0.1077 -1.8665
16859TIP3   OH272067   3.666   1.682  12.990  0.0421  0.4468 -0.0625
16859TIP3    H172068   3.731   1.723  12.933 -1.4333 -0.0123 -2.1977
16859TIP3    H272069   3.607   1.753  13.014  0.5598  0.6031  0.7915
16860TIP3   OH272070   2.729   0.075  11.314  0.1211  0.3130  0.4172
16860TIP3    H172071   2.697   0.149  11.262 -2.3470 -0.2415  1.0262
16860TIP3    H272072   2.749   0.007  11.249 -1.1567  0.2622  0.0577
16861TIP3   OH272073   3.006   2.527  17.007 -0.0064 -0.1657 -0.6395
16861TIP3    H172074   2.925   2.493  17.045  0.7011 -2.9610 -1.3770
16861TIP3    H272075   3.048   2.575  17.078 -1.9873  0.8090 -0.0730
16862TIP3   OH272076   6.423   5.319  14.009 -0.1380  0.2776  0.2569
16862TIP3    H172077   6.438   5.394  14.067 -0.0290  1.4118 -1.1989
16862TIP3    H272078   6.329   5.306  14.010 -0.1056  0.0223  0.9820
16863TIP3   OH272079   4.270   1.066   1.544 -0.5366 -0.4477  0.6959
16863TIP3    H172080   4.189   1.029   1.508 -0.3112 -1.0172  0.7651
16863TIP3    H272081   4.292   1.009   1.617 -1.3749  1.0942  2.2433
16864TIP3   OH272082   1.834   6.492  14.345  0.1148 -0.1718  0.2790
16864TIP3    H172083   1.902   6.467  14.283  1.0856  0.3273  1.1059
16864TIP3    H272084   1.761   6.521  14.290  0.7625 -0.2196 -0.6308
16865TIP3   OH272085   6.048   4.801   4.505  0.2766  0.3414  0.4224
16865TIP3    H172086   6.030   4.721   4.456 -0.0533  0.1518  0.8532
16865TIP3    H272087   6.136   4.827   4.476 -0.3224  0.8351 -1.0897
16866TIP3   OH272088   2.978   6.777   1.375  0.5970  0.0550 -0.2620
16866TIP3    H172089   3.015   6.696   1.338  2.1804 -0.1486  1.6272
16866TIP3    H272090   3.034   6.846   1.340  2.0305 -0.1284  1.5054
16867TIP3   OH272091   4.715   0.324   2.329  0.0346  0.3352 -0.4210
16867TIP3    H172092   4.712   0.325   2.424 -0.2610 -0.4447 -0.4180
16867TIP3    H272093   4.665   0.247   2.304 -1.6932  1.6671 -1.2826
16868TIP3   OH272094   1.943   1.112   2.649  0.2789 -0.1279 -0.1246
16868TIP3    H172095   1.969   1.059   2.725 -1.2527 -0.6670  0.0564
16868TIP3    H272096   1.939   1.201   2.682  0.3357 -0.2564  0.2323
16869TIP3   OH272097   0.473   0.488  12.786  0.5122 -0.2199  0.2113
16869TIP3    H172098   0.453   0.569  12.740  3.2370  0.1417 -0.5302
16869TIP3    H272099   0.450   0.419  12.724  0.2553  0.0927 -0.0443
16870TIP3   OH272100   1.666   5.705  11.646  0.2991 -0.2882  0.2585
16870TIP3    H172101   1.691   5.643  11.714 -0.9430 -1.1109  0.0040
16870TIP3    H272102   1.650   5.787  11.693 -2.4788 -1.3272  1.3388
16871TIP3   OH272103   0.946   1.428  11.987  0.1610 -0.3764 -0.3016
16871TIP3    H172104   1.002   1.377  11.928 -0.6377 -1.0848 -0.4519
16871TIP3    H272105   0.858   1.417  11.952  0.0500  1.7790 -0.8209
16872TIP3   OH272106   6.081   2.959  12.238  0.0255  0.0276 -0.6442
16872TIP3    H172107   6.121   2.961  12.150 -0.5836 -0.1644 -0.9289
16872TIP3    H272108   6.151   2.989  12.296  0.2288  0.8333 -1.2772
16873TIP3   OH272109   1.901   3.689   5.914  0.7839 -0.1263 -0.0913
16873TIP3    H172110   1.994   3.709   5.927  0.5284  1.1965 -0.1840
16873TIP3    H272111   1.888   3.697   5.820  0.5010  0.0278 -0.0373
16874TIP3   OH272112   0.310   4.474  16.815  0.5561 -0.0708 -0.2469
16874TIP3    H172113   0.232   4.512  16.774  0.9942  0.1252 -0.9002
16874TIP3    H272114   0.359   4.549  16.848 -0.3972 -0.2745  1.7842
16875TIP3   OH272115   3.821   5.977  15.526 -0.5541 -0.5688  0.0100
16875TIP3    H172116   3.902   6.025  15.539 -1.6533  1.0640  1.1600
16875TIP3    H272117   3.845   5.885  15.536  0.9600 -0.0614  1.2890
16876TIP3   OH272118   0.350   1.325  12.042  0.1889  0.0174 -0.3269
16876TIP3    H172119   0.264   1.367  12.032 -0.3699 -0.8460  0.6272
16876TIP3    H272120   0.385   1.360  12.123  1.2182  1.1202 -1.2076
16877TIP3   OH272121   5.799   2.865   3.039 -0.2457 -0.3674 -0.4466
16877TIP3    H172122   5.819   2.958   3.045  2.6420 -0.9051 -0.3872
16877TIP3    H272123   5.710   2.858   3.073 -0.6722  2.3781 -0.7296
16878TIP3   OH272124   4.220   2.268  12.244  0.6361  0.3191  0.7201
16878TIP3    H172125   4.146   2.207  12.241  0.6519  0.3065  0.5367
16878TIP3    H272126   4.297   2.212  12.232  0.6424  0.3881  0.4223
16879TIP3   OH272127   5.443   4.524  12.575 -0.1667  0.3120 -0.1710
16879TIP3    H172128   5.404   4.598  12.622 -0.4864  0.6470 -0.9491
16879TIP3    H272129   5.386   4.450  12.596 -0.4082  0.4960 -0.1734
16880TIP3   OH272130   0.934   0.200   4.106  0.5705 -0.0678 -0.1759
16880TIP3    H172131   1.005   0.148   4.143 -0.0774 -1.1029 -0.3294
16880TIP3    H272132   0.911   0.154   4.025 -0.3628  0.1600 -0.0505
16881TIP3   OH272133   5.506   6.411   2.721 -0.2420 -0.3639 -0.2693
16881TIP3    H172134   5.478   6.445   2.806 -1.0099  1.8543 -1.3170
16881TIP3    H272135   5.585   6.360   2.740  1.1844  2.2502  1.4941
16882TIP3   OH272136   6.053   2.452   2.647  1.3071  0.0145  0.1383
16882TIP3    H172137   6.045   2.533   2.596 -1.0114 -0.7159 -0.7907
16882TIP3    H272138   6.061   2.383   2.581  0.9032 -0.7318  0.8543
16883TIP3   OH272139   5.392   4.928  17.117 -0.5203 -0.2902  0.7122
16883TIP3    H172140   5.423   4.866  17.051  1.2765  1.1885  0.0790
16883TIP3    H272141   5.307   4.957  17.084  0.0082 -0.1494 -0.5959
16884TIP3   OH272142   2.779   2.602  15.055 -0.7967  0.2566 -0.6089
16884TIP3    H172143   2.693   2.619  15.015 -1.8805 -3.6950 -0.3994
16884TIP3    H272144   2.771   2.514  15.091  3.1801  0.0193  0.0881
16885TIP3   OH272145   5.958   0.457  11.897 -0.7175 -0.7825 -0.1913
16885TIP3    H172146   6.019   0.384  11.887 -1.9578 -2.2838  2.0704
16885TIP3    H272147   5.977   0.516  11.824  2.1489 -2.0489 -0.5882
16886TIP3   OH272148   0.399   0.774  14.743  0.1422 -0.4208  0.8898
16886TIP3    H172149   0.364   0.789  14.655 -0.5921 -1.0345  1.0701
16886TIP3    H272150   0.337   0.819  14.801  0.4676 -0.2640  1.1175
16887TIP3   OH272151   0.991   3.587   2.009  0.3835  0.1265 -0.2633
16887TIP3    H172152   1.007   3.523   2.079 -1.2035 -0.8045 -0.6944
16887TIP3    H272153   1.021   3.670   2.046  0.1351 -0.4408  1.3062
16888TIP3   OH272154   1.617   3.003  13.915  0.2022 -0.1404  0.0929
16888TIP3    H172155   1.701   2.974  13.951  1.1101  0.3628 -1.4711
16888TIP3    H272156   1.585   2.928  13.865  0.8483  0.3464 -1.1136
16889TIP3   OH272157   0.355   1.779   2.563 -0.2630  0.1074  0.3266
16889TIP3    H172158   0.268   1.761   2.598 -1.3516  1.3191 -1.5689
16889TIP3    H272159   0.342   1.850   2.501  1.7510 -0.9828 -1.5015
16890TIP3   OH272160   3.989   6.017   0.216 -0.0473  0.1961  0.5362
16890TIP3    H172161   4.001   6.072   0.293  0.1011  1.2076 -0.1969
16890TIP3    H272162   4.078   5.998   0.186 -0.1038 -0.2182  0.6231
16891TIP3   OH272163   2.871   1.228   1.463  0.4686 -0.7638 -0.3863
16891TIP3    H172164   2.822   1.167   1.518 -0.8175  0.9074  0.4053
16891TIP3    H272165   2.835   1.314   1.484  3.0473  0.4528 -0.5546
16892TIP3   OH272166   1.824   4.169  11.574  0.2506 -0.4071  0.5693
16892TIP3    H172167   1.834   4.250  11.624 -0.3303 -0.5250  0.8754
16892TIP3    H272168   1.913   4.133  11.571  0.9212  1.1851 -1.2136
16893TIP3   OH272169   1.393   0.610   6.087 -0.6515 -0.3717 -0.4051
16893TIP3    H172170   1.324   0.615   6.154 -0.7043  0.8540 -0.5318
16893TIP3    H272171   1.467   0.657   6.125 -0.7186  0.4292 -1.2427
16894TIP3   OH272172   2.145   0.063  12.125 -0.1963 -0.0827  0.0793
16894TIP3    H172173   2.138   0.073  12.030 -0.2972  0.3448  0.1302
16894TIP3    H272174   2.075   0.003  12.148  0.0624 -0.4819 -0.1622
16895TIP3   OH272175   3.687   2.619  15.383  0.0358  0.5512 -0.1950
16895TIP3    H172176   3.671   2.553  15.450  1.1945  1.0013  0.5395
16895TIP3    H272177   3.706   2.699  15.432 -0.1442  1.1466 -1.0723
16896TIP3   OH272178   0.644   6.699  14.663 -0.1952 -0.0148 -0.3676
16896TIP3    H172179   0.666   6.607  14.678 -2.1017 -0.1143  2.6530
16896TIP3    H272180   0.654   6.711  14.568  3.6914 -2.2613 -0.4518
16897TIP3   OH272181   3.557   0.522  15.615 -0.0749  0.5119  0.1331
16897TIP3    H172182   3.524   0.506  15.527 -0.4040  0.4462  0.2702
16897TIP3    H272183   3.494   0.481  15.673  1.0846 -1.0394  0.3456
16898TIP3   OH272184   3.528   4.519   5.440 -0.3687  0.6917  0.0584
16898TIP3    H172185   3.452   4.518   5.498  0.9475  0.9319  1.8680
16898TIP3    H272186   3.528   4.607   5.403 -0.4960  0.9869  0.7379
16899TIP3   OH272187   3.318   4.779  14.608 -0.3734  0.5067 -0.4482
16899TIP3    H172188   3.240   4.742  14.566 -0.3087 -1.8250  1.2855
16899TIP3    H272189   3.387   4.715  14.591  0.2997  0.8432  0.8962
16900TIP3   OH272190   5.005   4.783   3.309  0.4699 -0.4842 -0.4487
16900TIP3    H172191   5.066   4.711   3.323  0.4805 -0.2673  0.7173
16900TIP3    H272192   4.929   4.761   3.363 -0.2520 -0.4529 -1.4130
16901TIP3   OH272193   1.841   3.879  11.783  0.1372 -0.3339  0.7333
16901TIP3    H172194   1.825   3.960  11.831  0.1732 -1.5972  3.0573
16901TIP3    H272195   1.763   3.867  11.729 -0.3896  0.6658  1.2328
16902TIP3   OH272196   1.211   5.084  15.765  0.5612 -0.0283 -0.3986
16902TIP3    H172197   1.275   5.109  15.831 -0.9830  1.1702  0.7338
16902TIP3    H272198   1.211   4.989  15.765  1.5365 -0.0348  0.3768
16903TIP3   OH272199   0.160   1.036  10.537  0.4814  0.1267 -0.2648
16903TIP3    H172200   0.210   1.116  10.522  0.6688 -0.1302 -1.0255
16903TIP3    H272201   0.218   0.965  10.509 -0.4251 -0.1561 -1.5330
16904TIP3   OH272202   0.268   2.062   2.506  0.2004 -0.2289 -0.1082
16904TIP3    H172203   0.334   2.105   2.451  0.4024  0.3117  0.5457
16904TIP3    H272204   0.185   2.092   2.469  0.3200 -0.4958 -0.6075
16905TIP3   OH272205   0.737   6.590  10.980 -0.0434 -0.0755 -0.3110
16905TIP3    H172206   0.782   6.554  10.904  0.0801  0.9826 -0.7631
16905TIP3    H272207   0.646   6.598  10.952 -0.3837 -1.4685  0.3285
16906TIP3   OH272208   1.739   2.238   4.571 -0.0651 -0.6348 -0.4651
16906TIP3    H172209   1.714   2.330   4.576  0.4803 -0.4751 -0.7048
16906TIP3    H272210   1.822   2.237   4.524 -0.4465 -1.3163 -1.1483
16907TIP3   OH272211   6.743   4.168  12.489 -0.2480  0.2071 -0.2376
16907TIP3    H172212   6.682   4.095  12.477  0.1254 -0.1694  0.1142
16907TIP3    H272213   6.691   4.246  12.471 -0.8490 -0.1063  0.1103
16908TIP3   OH272214   0.523   2.657  13.632  0.2306 -0.8162  0.0932
16908TIP3    H172215   0.581   2.630  13.561  0.4459  0.8846 -0.4142
16908TIP3    H272216   0.528   2.752  13.633  1.0922 -0.7949  3.1140
16909TIP3   OH272217   5.029   3.875  12.994 -0.2866  0.6075 -0.3764
16909TIP3    H172218   5.108   3.837  12.955 -0.4433 -1.2968  1.0140
16909TIP3    H272219   5.015   3.824  13.075 -2.1354  1.8314  0.1407
16910TIP3   OH272220   1.105   1.019   5.201 -0.3281  0.2524 -0.1424
16910TIP3    H172221   1.156   1.093   5.235  2.3775 -0.7255 -1.7206
16910TIP3    H272222   1.151   0.941   5.233 -2.7098 -0.8142  0.9031
16911TIP3   OH272223   1.997   5.251  17.194  0.3113 -0.0998 -0.4220
16911TIP3    H172224   2.007   5.247  17.099  1.6858  0.0232 -0.2977
16911TIP3    H272225   2.072   5.203  17.229  0.7172  1.2206  0.6192
16912TIP3   OH272226   0.915   2.355  11.640 -0.6641 -0.9155 -0.5430
16912TIP3    H172227   0.917   2.373  11.734 -0.1114 -0.7583 -0.5826
16912TIP3    H272228   0.997   2.392  11.607 -1.5845  0.5323 -1.3497
16913TIP3   OH272229   1.297   3.605   0.081  0.1729 -0.0340  0.3739
16913TIP3    H172230   1.216   3.639   0.043  1.3904  1.0550 -1.3717
16913TIP3    H272231   1.301   3.644   0.168 -0.0222  1.8767 -0.4225
16914TIP3   OH272232   5.093   2.087   0.562  0.0460  0.4577 -1.0800
16914TIP3    H172233   5.015   2.090   0.617 -0.0486  0.4610 -1.2133
16914TIP3    H272234   5.153   2.150   0.601 -0.0372  0.4896 -1.0043
16915TIP3   OH272235   3.396   0.957   5.842 -0.3481 -0.6812 -0.4918
16915TIP3    H172236   3.435   0.878   5.805  2.3790  0.1951  0.2382
16915TIP3    H272237   3.351   0.927   5.921  1.7779 -1.4274  0.5205
16916TIP3   OH272238   1.473   1.530  13.857 -0.0657 -0.4709 -0.0430
16916TIP3    H172239   1.515   1.446  13.874 -1.0498 -0.9897 -0.1141
16916TIP3    H272240   1.477   1.576  13.941 -1.5609 -1.5268  0.6645
16917TIP3   OH272241   2.744   4.874   1.593  0.0387 -0.1323 -0.3402
16917TIP3    H172242   2.808   4.884   1.663  0.4712  0.6508 -0.8416
16917TIP3    H272243   2.680   4.943   1.609  0.4106  0.3739 -1.0011
16918TIP3   OH272244   2.018   3.994  15.105 -0.0564  0.3176  0.3581
16918TIP3    H172245   1.986   3.912  15.142  0.0155  0.1906  0.1403
16918TIP3    H272246   2.053   4.042  15.180 -2.5953  1.3626  0.9717
16919TIP3   OH272247   3.702   4.486  15.388 -0.4169 -0.5946 -0.3960
16919TIP3    H172248   3.744   4.405  15.416 -0.7931 -0.6434  0.0391
16919TIP3    H272249   3.746   4.555  15.439 -0.2058 -0.5396 -0.6489
16920TIP3   OH272250   0.196   3.956   0.053 -0.3148  0.0776  0.5554
16920TIP3    H172251   0.223   4.047   0.065 -0.1267  0.3692 -1.6488
16920TIP3    H272252   0.270   3.905   0.086  0.9411  0.8155 -0.9575
16921TIP3   OH272253   0.887   2.497   2.940  0.4255  0.3161 -0.0505
16921TIP3    H172254   0.905   2.590   2.933  0.3638  0.4017  0.8662
16921TIP3    H272255   0.793   2.489   2.922  0.6322  0.2881 -1.2198
16922TIP3   OH272256   0.680   2.339  14.541  0.2119 -0.6054  0.0598
16922TIP3    H172257   0.606   2.380  14.585 -0.2770 -1.7922  0.3663
16922TIP3    H272258   0.687   2.252  14.580  1.1409 -0.8809 -0.6723
16923TIP3   OH272259   1.582   6.229   0.316  0.4438 -0.0138  0.3373
16923TIP3    H172260   1.672   6.233   0.350  1.5092  0.5214 -2.2591
16923TIP3    H272261   1.585   6.159   0.250 -0.9969  0.1451  0.0809
16924TIP3   OH272262   4.472   2.193  15.861 -0.4567 -0.4518 -0.6121
16924TIP3    H172263   4.396   2.251  15.868  1.5056  2.1910  0.7921
16924TIP3    H272264   4.480   2.154  15.948  0.7332  0.6605 -0.1933
16925TIP3   OH272265   0.271   1.253  17.152  0.0405  0.1147 -0.3945
16925TIP3    H172266   0.347   1.211  17.113  0.1713 -0.1324  0.1272
16925TIP3    H272267   0.305   1.301  17.227 -0.3298 -0.0472 -0.1189
16926TIP3   OH272268   6.755   5.831  15.698 -0.5429  0.2080 -0.5412
16926TIP3    H172269   6.790   5.905  15.746 -0.6925  0.0123 -0.1305
16926TIP3    H272270   6.666   5.857  15.674 -0.7338  0.0102 -0.0582
16927TIP3   OH272271   5.885   3.823  16.702  0.1821 -0.5815 -0.1820
16927TIP3    H172272   5.912   3.895  16.645  0.6048 -0.2838  0.3747
16927TIP3    H272273   5.966   3.796  16.746  0.0100 -1.3342 -0.3102
16928TIP3   OH272274   3.872   2.438   2.499  0.3587  0.2916  0.4625
16928TIP3    H172275   3.889   2.362   2.555 -0.5655 -0.5390 -0.3366
16928TIP3    H272276   3.936   2.432   2.429 -0.3861 -0.3889 -0.1869
16929TIP3   OH272277   6.055   0.223   0.116 -0.2558 -0.1873  0.0134
16929TIP3    H172278   5.992   0.231   0.045 -0.3861 -2.4348 -0.1916
16929TIP3    H272279   6.111   0.150   0.091  0.0478 -0.6901  1.9515
16930TIP3   OH272280   2.089   1.228  15.833  0.2205 -0.0207 -1.0085
16930TIP3    H172281   2.157   1.234  15.899 -1.7053 -0.9005  1.2234
16930TIP3    H272282   2.089   1.313  15.789  3.6895 -0.5097 -2.1987
16931TIP3   OH272283   2.166   4.981   3.977  0.4310  0.1371 -0.4459
16931TIP3    H172284   2.226   5.049   4.009 -1.4564  2.6549 -1.8592
16931TIP3    H272285   2.112   4.960   4.054  1.5114 -0.3613  0.2005
16932TIP3   OH272286   4.560   2.543   6.228 -0.7806 -0.2427 -0.1756
16932TIP3    H172287   4.574   2.504   6.142 -0.6242  2.0838 -1.2671
16932TIP3    H272288   4.466   2.535   6.244 -1.0262  0.4892 -1.1849
16933TIP3   OH272289   3.681   1.297  11.323 -0.3491 -0.5541 -0.0911
16933TIP3    H172290   3.678   1.293  11.419  1.4566  0.2649  0.0374
16933TIP3    H272291   3.589   1.308  11.297 -0.7871  0.1434  1.5974
16934TIP3   OH272292   6.626   0.085   6.245 -0.3594  0.1821  0.5016
16934TIP3    H172293   6.696   0.150   6.252  0.2211 -0.3958  0.1188
16934TIP3    H272294   6.615   0.071   6.151  1.1126 -1.9296  0.5588
16935TIP3   OH272295   5.076   4.426  11.836 -0.1877 -0.3737  0.0854
16935TIP3    H172296   5.039   4.513  11.824 -1.6651 -0.8232  1.1818
16935TIP3    H272297   5.023   4.370  11.779  0.2302 -0.6826 -0.0011
16936TIP3   OH272298   1.478   4.267   6.287  0.0905  0.0999 -0.0729
16936TIP3    H172299   1.525   4.260   6.371  0.6370 -2.5797 -0.5282
16936TIP3    H272300   1.404   4.206   6.296 -0.2947  0.3750 -1.2765
16937TIP3   OH272301   0.955   2.876  14.637  0.0151  0.2141  0.0834
16937TIP3    H172302   1.006   2.940  14.588 -0.7501  1.2687  0.6267
16937TIP3    H272303   0.967   2.794  14.589 -0.4776  1.1440 -1.7191
16938TIP3   OH272304   4.455   5.943  17.223 -0.0297 -0.3650 -0.2021
16938TIP3    H172305   4.455   5.944  17.127  0.9900 -0.3418 -0.2042
16938TIP3    H272306   4.448   6.035  17.248 -1.7371 -0.4450 -0.2266
16939TIP3   OH272307   5.056   3.775  11.735 -0.0601  0.1125 -0.0567
16939TIP3    H172308   5.124   3.793  11.670 -0.8926 -0.3409 -1.0828
16939TIP3    H272309   5.038   3.860  11.775 -1.9240  1.2009 -2.8313
16940TIP3   OH272310   2.540   4.702   3.787  0.3764  0.1369 -0.2637
16940TIP3    H172311   2.528   4.661   3.702 -1.0737 -0.1555  0.0534
16940TIP3    H272312   2.484   4.780   3.784  1.4663  0.9485 -0.0980
16941TIP3   OH272313   2.539   0.969   0.720  0.4727  0.2519 -0.1441
16941TIP3    H172314   2.559   1.050   0.767  0.9326  0.2463 -0.3299
16941TIP3    H272315   2.620   0.919   0.723  0.2961 -0.0463 -0.3498
16942TIP3   OH272316   3.988   6.301  13.307  0.5178  0.1818  0.2032
16942TIP3    H172317   3.946   6.322  13.390  1.4130  0.5785  0.5704
16942TIP3    H272318   4.011   6.209  13.314  0.3652  0.1501  0.2875
16943TIP3   OH272319   3.910   6.587   1.925  0.3104  0.2375  0.1384
16943TIP3    H172320   3.925   6.606   1.832  0.1267 -0.1607  0.0253
16943TIP3    H272321   3.985   6.626   1.970 -0.0536  1.2352 -0.0817
16944TIP3   OH272322   2.365   5.133  16.403 -0.0378 -0.5408  0.1812
16944TIP3    H172323   2.273   5.150  16.381 -0.2045 -0.5956  0.8204
16944TIP3    H272324   2.385   5.195  16.473 -0.0490 -1.5432  1.1092
16945TIP3   OH272325   5.008   2.938  15.350  0.4232 -0.3542  0.1927
16945TIP3    H172326   5.021   2.883  15.273 -1.8125 -0.0193 -0.5228
16945TIP3    H272327   4.965   3.016  15.315 -0.0269  0.0998  1.7053
16946TIP3   OH272328   5.116   4.033   5.130 -0.1415  0.0217  0.4344
16946TIP3    H172329   5.021   4.022   5.132 -0.1378 -1.1726 -2.1016
16946TIP3    H272330   5.130   4.124   5.156 -1.7999 -0.2351  2.4794
16947TIP3   OH272331   2.855   4.219   2.762  0.0712  0.4883 -0.6625
16947TIP3    H172332   2.814   4.205   2.847 -0.7480 -0.2226 -1.1550
16947TIP3    H272333   2.931   4.274   2.780 -1.2364  2.0817  0.2615
16948TIP3   OH272334   1.193   3.943  11.696  0.1589 -0.6460 -0.3237
16948TIP3    H172335   1.272   3.977  11.739  0.6759 -1.5408 -0.5348
16948TIP3    H272336   1.121   3.989  11.738  0.6400 -1.4679  1.5157
16949TIP3   OH272337   1.718   2.194  15.846  0.0349 -0.0986  0.2706
16949TIP3    H172338   1.645   2.243  15.884  0.3493  0.6956 -0.1253
16949TIP3    H272339   1.796   2.242  15.873  0.3631 -0.4574 -0.0251
16950TIP3   OH272340   1.370   1.788  14.875 -0.0187  0.3601  0.6437
16950TIP3    H172341   1.323   1.795  14.958 -1.9079 -1.3122 -0.2107
16950TIP3    H272342   1.431   1.715  14.888  0.1720  0.5379  0.7617
16951TIP3   OH272343   1.424   1.590   0.975 -0.2711 -0.3268 -0.0862
16951TIP3    H172344   1.361   1.642   0.925  0.0051  0.8593  0.7307
16951TIP3    H272345   1.380   1.506   0.988 -0.4144 -0.6172 -2.1228
16952TIP3   OH272346   1.788   1.379   2.251  0.1164  0.2232  0.3316
16952TIP3    H172347   1.733   1.404   2.176  0.8293  0.6723 -0.0544
16952TIP3    H272348   1.876   1.372   2.214  0.3096 -0.5540  0.9305
16953TIP3   OH272349   3.569   6.611  14.960  0.4036 -0.2146 -0.3675
16953TIP3    H172350   3.577   6.600  15.055 -0.2029 -0.4783 -0.3431
16953TIP3    H272351   3.525   6.531  14.931 -0.2791  0.2990 -0.7503
16954TIP3   OH272352   3.744   4.749   1.322 -0.0988 -0.2356 -0.6260
16954TIP3    H172353   3.713   4.795   1.244 -0.0147 -0.1846 -0.6289
16954TIP3    H272354   3.668   4.748   1.381  0.1228  0.5639 -0.3218
16955TIP3   OH272355   3.574   5.130  15.548 -0.4599 -0.2464 -0.7911
16955TIP3    H172356   3.597   5.044  15.582  0.1003 -0.4126 -1.5635
16955TIP3    H272357   3.535   5.176  15.622  0.2802 -0.7695 -0.0644
16956TIP3   OH272358   1.375   2.422  13.606  0.8411  0.6494  0.1780
16956TIP3    H172359   1.286   2.449  13.584  0.7178 -0.4318 -0.7565
16956TIP3    H272360   1.428   2.454  13.533  1.0074  0.1794  0.0911
16957TIP3   OH272361   2.475   3.072  12.394  0.2357  0.0246  0.2947
16957TIP3    H172362   2.461   3.068  12.299  1.5039 -0.2815  0.1054
16957TIP3    H272363   2.515   3.158  12.408 -0.7381  0.4274  0.6769
16958TIP3   OH272364   5.286   4.311   5.737 -0.6170 -0.0588  0.4433
16958TIP3    H172365   5.246   4.398   5.733  0.7100  0.5405 -0.2932
16958TIP3    H272366   5.226   4.255   5.688 -2.1928  0.1142  2.0716
16959TIP3   OH272367   3.569   4.499  13.819 -0.3008  0.4861  0.1277
16959TIP3    H172368   3.625   4.497  13.896  0.1997  0.2725 -0.2396
16959TIP3    H272369   3.586   4.584  13.779  0.1794  0.1953 -0.2892
16960TIP3   OH272370   0.495   2.137  15.878 -0.2177  0.2136  0.1008
16960TIP3    H172371   0.529   2.071  15.817  1.0672 -1.6865  2.6365
16960TIP3    H272372   0.401   2.123  15.879  0.0144 -1.5970  0.4861
16961TIP3   OH272373   6.481   6.301  14.300  0.2731  0.0056 -0.5995
16961TIP3    H172374   6.477   6.225  14.241  1.4202 -0.0685 -0.5948
16961TIP3    H272375   6.507   6.264  14.384  2.2984  0.5572 -0.9358
16962TIP3   OH272376   3.035   4.428  14.882 -0.4542  0.0036 -0.3542
16962TIP3    H172377   2.975   4.403  14.951 -1.0986  1.2693 -0.4176
16962TIP3    H272378   2.984   4.485  14.824 -0.2937 -1.9709 -2.5851
16963TIP3   OH272379   3.540   1.183  13.174 -0.4129  0.1198  0.0111
16963TIP3    H172380   3.583   1.264  13.146 -2.1553  0.6012 -1.4494
16963TIP3    H272381   3.605   1.139  13.229  0.3262  2.8312  1.4766
16964TIP3   OH272382   5.926   2.051   1.662  0.0848 -0.0950  0.3080
16964TIP3    H172383   6.002   2.098   1.625 -0.7065 -0.3339 -1.7628
16964TIP3    H272384   5.908   1.981   1.599 -0.7238 -1.2198  1.7284
16965TIP3   OH272385   3.476   6.022  14.760  0.2340  0.7731 -0.2432
16965TIP3    H172386   3.400   5.968  14.736  0.5919  0.8365 -1.6042
16965TIP3    H272387   3.472   6.096  14.699  0.6082  1.5137  0.6075
16966TIP3   OH272388   4.142   2.542  16.854 -0.2088  0.5889  0.1486
16966TIP3    H172389   4.094   2.478  16.907  2.0116 -1.2596  0.0695
16966TIP3    H272390   4.142   2.622  16.908 -0.4026 -0.4042  1.6788
16967TIP3   OH272391   2.655   4.840  14.512 -0.4987 -0.0114 -0.0088
16967TIP3    H172392   2.646   4.771  14.578  0.6239 -1.0621 -0.9225
16967TIP3    H272393   2.749   4.857  14.507 -0.5236 -0.2509 -1.6372
16968TIP3   OH272394   2.088   1.266   0.787 -0.7411 -0.2832 -0.5601
16968TIP3    H172395   2.008   1.221   0.814 -1.5727  0.6109 -1.4366
16968TIP3    H272396   2.058   1.349   0.750  0.7702  1.1887  1.3267
16969TIP3   OH272397   1.414   5.856   0.125  0.2565  0.3934 -0.1654
16969TIP3    H172398   1.498   5.852   0.081  1.1916  0.5140  1.5236
16969TIP3    H272399   1.381   5.943   0.106  1.7064  1.2820  1.1707
16970TIP3   OH272400   4.296   3.977   3.833  0.3411  0.4853  0.4781
16970TIP3    H172401   4.367   3.937   3.882  1.3560  0.3664 -1.0349
16970TIP3    H272402   4.334   4.055   3.793 -0.5579  0.7928  0.1895
16971TIP3   OH272403   6.750   3.566  13.110  0.4958  0.1809 -0.1025
16971TIP3    H172404   6.840   3.565  13.143  0.0823  1.5486  1.1560
16971TIP3    H272405   6.711   3.645  13.149 -0.9824  0.1004 -1.3472
16972TIP3   OH272406   5.970   3.600  16.500  0.1640 -0.0575 -0.3268
16972TIP3    H172407   5.889   3.576  16.456  0.5076 -1.2386 -0.3586
16972TIP3    H272408   5.957   3.690  16.529 -1.0474 -0.1458 -0.5729
16973TIP3   OH272409   2.908   4.689   3.649  0.2090  0.1887 -0.0473
16973TIP3    H172410   2.984   4.635   3.631 -0.4238 -0.2549 -1.5955
16973TIP3    H272411   2.899   4.689   3.744  0.6866 -1.7936  0.0386
16974TIP3   OH272412   3.164   1.692  14.503  0.4733 -0.1012  0.0548
16974TIP3    H172413   3.171   1.785  14.483 -0.4906 -0.2032 -0.8242
16974TIP3    H272414   3.093   1.686  14.566  0.0617 -0.3013 -0.4195
16975TIP3   OH272415   4.198   4.587   6.402 -0.4018 -0.0902  0.0041
16975TIP3    H172416   4.156   4.662   6.360 -1.2857 -0.1125  0.8193
16975TIP3    H272417   4.128   4.543   6.450  0.5460 -0.1026  1.4370
16976TIP3   OH272418   5.574   2.226  10.850 -0.2692 -0.1791  0.1464
16976TIP3    H172419   5.569   2.143  10.896 -0.4287  0.3379  1.0807
16976TIP3    H272420   5.483   2.254  10.839 -0.1754  1.1755  2.2955
16977TIP3   OH272421   1.685   4.810  12.734 -0.2424 -0.1257 -0.3431
16977TIP3    H172422   1.702   4.867  12.659  0.5120 -0.4108 -0.3995
16977TIP3    H272423   1.603   4.842  12.771  0.1415  0.9414 -0.4075
16978TIP3   OH272424   4.070   3.016   4.916  0.1475  0.1611  0.3488
16978TIP3    H172425   4.114   2.934   4.937  0.0925  0.0586  0.0647
16978TIP3    H272426   3.993   3.016   4.973  0.2782  0.1342  0.5286
16979TIP3   OH272427   1.007   3.291   4.850 -0.1034  0.0929  0.1908
16979TIP3    H172428   0.919   3.252   4.850 -0.7483  1.4730  0.7095
16979TIP3    H272429   1.057   3.237   4.789 -0.6308 -2.1680  1.6463
16980TIP3   OH272430   4.889   6.309  12.809  0.0643 -1.0996  0.1481
16980TIP3    H172431   4.808   6.337  12.851 -0.6545 -1.6358 -0.8337
16980TIP3    H272432   4.958   6.331  12.872 -0.7442  0.1957  0.6116
16981TIP3   OH272433   1.789   5.129   1.994 -0.5730  0.3946  0.3135
16981TIP3    H172434   1.786   5.034   1.982 -0.4293  0.0991  2.3921
16981TIP3    H272435   1.698   5.155   2.006 -0.5934  0.5052 -0.0634
16982TIP3   OH272436   6.628   2.530  15.310 -0.2781 -0.1042  0.1868
16982TIP3    H172437   6.541   2.551  15.275  0.5706 -0.2178 -2.1485
16982TIP3    H272438   6.616   2.532  15.405 -2.4679  1.3735 -0.0418
16983TIP3   OH272439   0.044   1.160   4.746  0.1126  0.2466  0.1391
16983TIP3    H172440   0.061   1.151   4.840 -3.0320 -0.9016  0.7130
16983TIP3    H272441   0.082   1.081   4.708 -1.1036 -0.7410  0.9024
16984TIP3   OH272442   3.399   0.620  13.564 -0.7846 -0.2431  0.1246
16984TIP3    H172443   3.306   0.604  13.547 -1.1148  2.5846 -1.3974
16984TIP3    H272444   3.444   0.545  13.527 -2.3755 -0.6648 -1.0556
16985TIP3   OH272445   2.612   4.830   3.154 -0.2323 -0.0348  0.2646
16985TIP3    H172446   2.670   4.900   3.124 -0.9861  0.1134 -0.8970
16985TIP3    H272447   2.612   4.839   3.249 -0.5762  1.7781  0.1248
16986TIP3   OH272448   5.152   0.076  11.633 -0.8710  0.1932 -0.1300
16986TIP3    H172449   5.067   0.073  11.676 -1.3179 -0.2917 -1.0282
16986TIP3    H272450   5.135   0.116  11.547  0.0787  1.5663  0.2846
16987TIP3   OH272451   4.302   1.689  16.145  0.2317  0.5117  1.0811
16987TIP3    H172452   4.276   1.655  16.232 -0.1429  2.4432  1.7690
16987TIP3    H272453   4.219   1.709  16.102  0.4505  0.4736  0.6384
16988TIP3   OH272454   2.378   0.295  16.766  0.1111  0.2689  0.2676
16988TIP3    H172455   2.354   0.353  16.838 -2.4223 -0.1171 -0.1809
16988TIP3    H272456   2.396   0.211  16.807 -3.1498 -0.4732  0.4405
16989TIP3   OH272457   0.592   2.612  13.182 -0.5194  0.2310  0.5074
16989TIP3    H172458   0.622   2.566  13.104  0.4715  0.7877  0.5513
16989TIP3    H272459   0.514   2.659  13.152 -0.2207  0.3421 -0.1233
16990TIP3   OH272460   4.006   2.603  15.662 -0.6009  0.6492 -0.6799
16990TIP3    H172461   4.091   2.646  15.666 -0.8338  1.0705  0.0252
16990TIP3    H272462   4.001   2.566  15.574  1.4807 -1.8324  0.1333
16991TIP3   OH272463   0.952   4.553   1.390  0.7635  0.0354  0.0452
16991TIP3    H172464   0.925   4.639   1.420  0.1302 -1.3777  4.1890
16991TIP3    H272465   0.874   4.517   1.347  0.1543  0.5704  0.6802
16992TIP3   OH272466   3.942   1.794   4.794  0.1349  0.0707  0.2131
16992TIP3    H172467   3.867   1.852   4.806  0.9585  1.0904  0.6361
16992TIP3    H272468   3.971   1.811   4.704 -0.8154 -1.1949 -0.3742
16993TIP3   OH272469   0.723   6.249  12.343 -0.0149 -0.1506 -0.0134
16993TIP3    H172470   0.646   6.195  12.325 -0.4279  0.1175  0.8941
16993TIP3    H272471   0.699   6.335  12.311 -0.5331  0.1913  1.2044
16994TIP3   OH272472   5.089   0.414  16.485  0.5142  0.0957 -0.3708
16994TIP3    H172473   5.104   0.330  16.442  1.3283  0.0060  0.0792
16994TIP3    H272474   5.131   0.478  16.428  1.3383  0.0083  0.1231
16995TIP3   OH272475   4.031   2.828  14.947 -0.2489  0.0149 -0.6032
16995TIP3    H172476   4.000   2.828  15.038 -1.4216  1.2831 -0.9709
16995TIP3    H272477   4.075   2.744  14.937  0.2056 -0.0085  1.2358
16996TIP3   OH272478   2.035   0.312  12.810 -0.2069 -0.0608  0.1715
16996TIP3    H172479   2.051   0.336  12.901  2.6826 -0.6443 -0.0543
16996TIP3    H272480   2.110   0.349  12.762 -2.0173  0.8875 -2.1296
16997TIP3   OH272481   2.850   5.441   4.757 -0.4928 -0.1394 -0.4441
16997TIP3    H172482   2.878   5.350   4.754 -0.7322 -0.2088 -0.5081
16997TIP3    H272483   2.792   5.446   4.832  1.2326  0.4306  0.9413
16998TIP3   OH272484   4.820   3.859  16.175 -0.5715 -0.2099 -0.0075
16998TIP3    H172485   4.889   3.854  16.108  0.4276 -1.0590  1.0407
16998TIP3    H272486   4.867   3.848  16.258 -1.9139 -0.2026  0.7768
16999TIP3   OH272487   0.824   1.740  14.804  0.4456  0.3047  0.3374
16999TIP3    H172488   0.818   1.836  14.808 -1.2589  0.2768 -0.5632
16999TIP3    H272489   0.736   1.712  14.782  1.1275 -1.4316 -0.3241
17000TIP3   OH272490   5.784   5.891  15.504  0.3994  0.1849  0.5538
17000TIP3    H172491   5.855   5.891  15.569  1.1323  0.6519 -0.2233
17000TIP3    H272492   5.714   5.940  15.547 -0.7028 -2.8941  2.5714
17001TIP3   OH272493   6.594   6.218   4.095  0.0748 -0.0207 -0.2917
17001TIP3    H172494   6.560   6.298   4.054  0.1225  1.1464  1.8226
17001TIP3    H272495   6.684   6.239   4.117  0.2633 -0.8766 -0.2272
17002TIP3   OH272496   1.590   4.124  11.741  0.1493 -0.0371 -0.1870
17002TIP3    H172497   1.605   4.125  11.836 -0.8342 -1.9454  0.0492
17002TIP3    H272498   1.677   4.133  11.703  0.6152  0.2975  0.9094
17003TIP3   OH272499   0.371   0.793   2.560  0.1229 -0.1518  0.2157
17003TIP3    H172500   0.306   0.852   2.522  0.5624 -0.1124 -0.4850
17003TIP3    H272501   0.436   0.852   2.599  0.3356 -0.1769 -0.0997
17004TIP3   OH272502   3.301   0.063   4.560  0.0069 -0.4206 -0.0218
17004TIP3    H172503   3.355   0.124   4.511 -0.7376  0.1067 -0.2042
17004TIP3    H272504   3.326   0.078   4.652 -0.8161  0.8394  0.0253
17005TIP3   OH272505   1.180   5.839  14.068 -0.1097  0.0405 -0.1294
17005TIP3    H172506   1.187   5.843  14.163 -1.9320 -1.3004  0.1102
17005TIP3    H272507   1.129   5.916  14.044  1.9362  1.4427 -0.2980
17006TIP3   OH272508   2.412   3.665  15.254  0.2750 -0.8941  0.3090
17006TIP3    H172509   2.338   3.675  15.195 -0.9758 -0.1610  1.9298
17006TIP3    H272510   2.378   3.689  15.340  2.3252 -0.7996  1.1574
17007TIP3   OH272511   0.372   4.165  16.879  0.3891 -0.1399  0.1510
17007TIP3    H172512   0.321   4.243  16.860 -1.5956 -1.7994 -1.9541
17007TIP3    H272513   0.462   4.196  16.887 -0.4011  2.3962 -0.0854
17008TIP3   OH272514   4.429   0.717   0.844 -0.2314 -0.1105 -0.1072
17008TIP3    H172515   4.362   0.661   0.805  1.9901 -1.4851 -2.2673
17008TIP3    H272516   4.453   0.673   0.926  0.8580 -1.9905 -1.3405
17009TIP3   OH272517   1.819   2.661   2.855 -0.7266 -0.0246 -1.0840
17009TIP3    H172518   1.859   2.578   2.880 -1.5406 -0.1126 -0.0121
17009TIP3    H272519   1.798   2.650   2.762 -0.2955 -0.7972 -1.0998
17010TIP3   OH272520   3.006   3.709  15.253 -0.7758  0.7635  0.1542
17010TIP3    H172521   3.011   3.617  15.282  0.8501  0.7822  0.0156
17010TIP3    H272522   2.967   3.704  15.166 -0.4969  0.1783  0.0567
17011TIP3   OH272523   0.601   4.271   4.309  0.5139  0.9510  0.0381
17011TIP3    H172524   0.554   4.291   4.228 -0.4115  1.8339  0.7595
17011TIP3    H272525   0.534   4.272   4.377  1.2782  0.2861  0.8350
17012TIP3   OH272526   0.226   6.307  17.032  0.1530  0.4405 -0.3211
17012TIP3    H172527   0.303   6.326  17.086 -0.5311 -2.0509  1.7172
17012TIP3    H272528   0.194   6.393  17.006  2.1889  1.6375  0.8392
17013TIP3   OH272529   0.511   1.739  13.811 -0.0900  0.1038  0.2638
17013TIP3    H172530   0.523   1.751  13.905 -0.5910 -1.5886  0.5914
17013TIP3    H272531   0.481   1.823  13.779 -0.6037  0.5121  1.7554
17014TIP3   OH272532   6.714   3.080   2.678  0.0746  0.1118  0.0012
17014TIP3    H172533   6.725   3.104   2.770  0.9143 -2.3046  0.5804
17014TIP3    H272534   6.621   3.061   2.669  0.0520  0.0028  0.4426
17015TIP3   OH272535   3.854   4.884  16.124 -0.5061 -0.4225  0.2142
17015TIP3    H172536   3.864   4.824  16.051 -1.6353  1.4939 -1.6270
17015TIP3    H272537   3.770   4.860  16.164  0.5649 -2.1102  1.6049
17016TIP3   OH272538   2.337   0.885   5.517 -0.2268 -0.4508 -0.4357
17016TIP3    H172539   2.340   0.810   5.458 -1.8820  1.2144 -2.8574
17016TIP3    H272540   2.244   0.908   5.521  0.1043  0.8123  1.1354
17017TIP3   OH272541   5.360   2.600  13.706  0.6515  0.4220  0.2944
17017TIP3    H172542   5.362   2.688  13.743  1.6247 -0.0003  1.3275
17017TIP3    H272543   5.404   2.546  13.772 -0.6420 -0.9798  0.0553
17018TIP3   OH272544   4.556   6.277  11.255  0.1595 -0.2613 -0.0546
17018TIP3    H172545   4.476   6.273  11.204 -0.2660  2.2094  0.2979
17018TIP3    H272546   4.547   6.208  11.321 -1.9391  0.2963  0.3035
17019TIP3   OH272547   4.642   0.488   6.458 -0.2342 -0.7304 -0.2199
17019TIP3    H172548   4.689   0.570   6.449  1.8985 -2.1058 -3.1842
17019TIP3    H272549   4.644   0.469   6.552  2.8214  0.6498  0.1021
17020TIP3   OH272550   1.513   2.515   5.170 -0.0334 -0.5207  0.0897
17020TIP3    H172551   1.437   2.457   5.159 -1.2220  0.1095  3.6320
17020TIP3    H272552   1.482   2.600   5.140  0.1383 -0.7558 -0.7757
17021TIP3   OH272553   1.424   4.930   0.215 -0.2997 -0.3132 -0.4088
17021TIP3    H172554   1.495   4.994   0.224 -0.0549 -0.7046  0.6333
17021TIP3    H272555   1.344   4.982   0.224 -0.1585  0.1068 -1.4301
17022TIP3   OH272556   5.289   2.600   5.669  0.1388  0.0464 -0.1894
17022TIP3    H172557   5.253   2.512   5.662 -0.0822  0.2156 -1.4714
17022TIP3    H272558   5.383   2.588   5.680  0.1034 -0.3491 -0.3264
17023TIP3   OH272559   3.613   1.101   5.811 -0.4050 -0.0142  0.1754
17023TIP3    H172560   3.531   1.062   5.842 -0.0252 -0.2832  0.8699
17023TIP3    H272561   3.665   1.114   5.891  0.2011  0.2188 -0.2497
17024TIP3   OH272562   5.067   0.524   0.802 -0.0058  0.1074 -0.0039
17024TIP3    H172563   5.075   0.461   0.730  0.0826 -0.4567  0.4941
17024TIP3    H272564   4.992   0.493   0.853 -2.0502  2.2047 -1.5210
17025TIP3   OH272565   0.063   0.723   1.000 -0.4086 -0.4697  0.3295
17025TIP3    H172566   0.058   0.655   0.933 -1.1654  0.1212 -0.2374
17025TIP3    H272567   0.023   0.684   1.077  0.1843 -1.0509  0.3464
17026TIP3   OH272568   6.006   4.039   4.998  0.3978  0.1394  0.0623
17026TIP3    H172569   6.009   4.134   4.998 -2.0367  0.2770 -0.1944
17026TIP3    H272570   6.036   4.014   4.910 -0.7491  0.8035 -0.5406
17027TIP3   OH272571   5.458   0.009  13.736  0.3466 -0.0905 -0.5456
17027TIP3    H172572   5.550  -0.014  13.743  0.0975 -0.9542  0.0655
17027TIP3    H272573   5.440   0.007  13.642  0.2261 -3.0697 -0.5684
17028TIP3   OH272574   4.207   3.665   3.180 -0.2745  0.2326  0.0379
17028TIP3    H172575   4.221   3.670   3.085 -1.4862  0.1600 -0.1518
17028TIP3    H272576   4.130   3.609   3.190  0.1890 -0.2422  1.1024
17029TIP3   OH272577   6.355   5.855   5.912 -0.0886  0.0348 -0.0086
17029TIP3    H172578   6.316   5.827   5.994 -0.2487  1.0316  0.2761
17029TIP3    H272579   6.383   5.774   5.869 -1.5855 -0.6274  0.2087
17030TIP3   OH272580   5.347   2.246  15.435 -0.0452  0.0398 -0.0809
17030TIP3    H172581   5.290   2.323  15.431 -1.6076 -1.0756 -0.1455
17030TIP3    H272582   5.352   2.215  15.344  0.8361  0.2342 -0.1062
17031TIP3   OH272583   0.595   1.141   2.921  0.4514 -0.9347 -0.8070
17031TIP3    H172584   0.597   1.087   3.000  1.2327 -0.1356 -0.2526
17031TIP3    H272585   0.674   1.195   2.927 -0.5187  0.5786 -1.1174
17032TIP3   OH272586   3.347   6.428  17.080 -0.1347  0.6184  0.2329
17032TIP3    H172587   3.424   6.372  17.089 -0.8582 -0.5934 -0.8488
17032TIP3    H272588   3.381   6.517  17.093  1.1847  0.0219  1.1402
17033TIP3   OH272589   2.851   5.398  11.469 -0.6491  0.1935 -0.7844
17033TIP3    H172590   2.935   5.442  11.483 -0.7724  0.0215  0.7098
17033TIP3    H272591   2.821   5.377  11.557 -1.4582 -1.2530 -1.3719
17034TIP3   OH272592   6.350   1.613   4.213  0.6934  0.1626  0.3890
17034TIP3    H172593   6.410   1.592   4.142 -1.3821 -2.6241 -0.7818
17034TIP3    H272594   6.376   1.555   4.284  0.3355  0.0460  0.4269
17035TIP3   OH272595   0.854   2.494   6.075  0.3389 -0.1450 -0.4018
17035TIP3    H172596   0.946   2.499   6.100  0.1442 -0.3143  0.3848
17035TIP3    H272597   0.836   2.400   6.066  0.2134 -0.1188 -0.4313
17036TIP3   OH272598   4.297   2.328  17.134  0.5849  0.1915 -0.1570
17036TIP3    H172599   4.206   2.358  17.133  0.9626  1.4023 -0.9839
17036TIP3    H272600   4.291   2.233  17.145 -0.8925 -0.0723 -2.5459
17037TIP3   OH272601   4.143   4.324  16.457 -0.4846 -0.0105 -0.3142
17037TIP3    H172602   4.163   4.257  16.521 -0.4820  0.0506 -0.2506
17037TIP3    H272603   4.069   4.372  16.495 -0.0858  0.4188 -0.0649
17038TIP3   OH272604   4.051   0.036  11.652 -0.6602 -0.5832  0.3358
17038TIP3    H172605   4.080  -0.013  11.575  0.5613  0.6064 -0.0081
17038TIP3    H272606   4.128   0.039  11.709 -0.1785  2.0724 -0.2837
17039TIP3   OH272607   4.073   4.991   3.898  0.2208  0.0997  0.0775
17039TIP3    H172608   4.092   5.084   3.881  1.0138 -0.2249 -0.8897
17039TIP3    H272609   4.032   4.960   3.817 -2.0350  0.1087  1.1617
17040TIP3   OH272610   2.152   5.179  15.779 -0.0338  0.0762  0.6512
17040TIP3    H172611   2.138   5.169  15.685  1.3789  1.6475  0.2165
17040TIP3    H272612   2.097   5.254  15.803  1.5641  1.3335  0.5112
17041TIP3   OH272613   3.253   3.929   3.237 -0.0465 -0.2960 -0.7295
17041TIP3    H172614   3.244   3.925   3.332 -1.9879 -1.8198 -0.9026
17041TIP3    H272615   3.319   3.997   3.222  1.4439 -1.0532  1.7334
17042TIP3   OH272616   0.389   4.564   5.079 -0.0902 -0.4171 -0.0019
17042TIP3    H172617   0.476   4.599   5.099  0.1716 -1.3728  0.5685
17042TIP3    H272618   0.403   4.508   5.002 -0.2903 -0.1960 -0.2002
17043TIP3   OH272619   0.757   3.678  17.190  0.5184 -0.4152  0.1617
17043TIP3    H172620   0.756   3.720  17.276  1.3287 -1.2501  0.5987
17043TIP3    H272621   0.729   3.746  17.130 -0.1049  0.1767  1.0929
17044TIP3   OH272622   1.485   5.209   2.954  0.0243 -0.2750 -0.3537
17044TIP3    H172623   1.490   5.159   3.036 -0.8674  0.6367  0.2749
17044TIP3    H272624   1.435   5.153   2.894 -0.7855 -0.2392  0.2757
17045TIP3   OH272625   3.489   4.357  16.930  0.3124 -0.0633  0.2863
17045TIP3    H172626   3.403   4.350  16.970 -0.0284 -1.3877 -0.6299
17045TIP3    H272627   3.476   4.413  16.853  0.4840  0.5229  0.6742
17046TIP3   OH272628   1.232   4.618   1.349 -0.4345  0.1383  0.5892
17046TIP3    H172629   1.141   4.587   1.359 -0.5588  0.0006 -0.7749
17046TIP3    H272630   1.223   4.709   1.322 -0.1466  0.2478  0.8589
17047TIP3   OH272631   2.251   5.129  17.241 -0.7433 -0.2272 -0.0294
17047TIP3    H172632   2.291   5.201  17.192 -1.3644 -1.7640 -3.0302
17047TIP3    H272633   2.313   5.110  17.311  1.6050  0.3530 -1.8290
17048TIP3   OH272634   5.141   6.656  15.260  0.6097 -0.3120 -0.1324
17048TIP3    H172635   5.059   6.703  15.244 -0.0960 -1.7811 -0.9383
17048TIP3    H272636   5.142   6.642  15.355 -0.1693 -0.4546 -0.1357
17049TIP3   OH272637   2.822   0.677   4.064  0.5268 -0.0439 -0.3976
17049TIP3    H172638   2.792   0.609   4.003  1.5167 -0.1538 -0.7793
17049TIP3    H272639   2.787   0.649   4.149  0.0319 -0.4602 -0.7247
17050TIP3   OH272640   3.985   2.599  11.656  0.4044  0.0099 -0.4289
17050TIP3    H172641   3.931   2.678  11.661 -1.0992 -1.0756  1.6267
17050TIP3    H272642   3.930   2.535  11.612  0.1300 -0.9727  1.2640
17051TIP3   OH272643   2.150   4.036  12.605 -0.3013 -0.8970 -0.7458
17051TIP3    H172644   2.094   3.993  12.670 -1.4482  1.5039  0.0058
17051TIP3    H272645   2.089   4.083  12.549  0.8521  1.6124 -0.0671
17052TIP3   OH272646   4.270   4.000   6.364 -0.2891 -0.4332  0.2691
17052TIP3    H172647   4.230   4.077   6.404  0.5816  0.7964 -1.1129
17052TIP3    H272648   4.208   3.973   6.296 -0.6585 -1.0426  0.8468
17053TIP3   OH272649   1.495   4.227  17.241 -1.1143  0.0482 -0.2316
17053TIP3    H172650   1.505   4.168  17.166 -2.0688 -0.9596  0.4117
17053TIP3    H272651   1.544   4.185  17.312 -0.0153  1.1155 -0.3077
17054TIP3   OH272652   5.324   4.988  13.293 -0.5081 -0.1766 -0.4869
17054TIP3    H172653   5.299   4.896  13.304 -1.4433  0.1963  0.7942
17054TIP3    H272654   5.266   5.036  13.352 -1.7675  1.5235 -2.9505
17055TIP3   OH272655   5.570   3.203  15.803  0.1897 -0.0776  1.2906
17055TIP3    H172656   5.634   3.154  15.751 -0.0218  0.5796  0.3896
17055TIP3    H272657   5.486   3.161  15.784  0.1359  0.0564  1.2302
17056TIP3   OH272658   6.466   0.680  14.159  0.2110 -0.0451 -0.3646
17056TIP3    H172659   6.507   0.733  14.228 -1.2639 -0.8872  1.2222
17056TIP3    H272660   6.502   0.592  14.172  0.1635 -0.1428 -0.8862
17057TIP3   OH272661   0.158   1.892  12.968 -0.1854 -0.3720  0.2767
17057TIP3    H172662   0.247   1.859  12.977  0.0041 -0.1117 -0.5412
17057TIP3    H272663   0.133   1.869  12.878 -0.9384 -0.4459  0.5022
17058TIP3   OH272664   2.365   0.418  12.718 -0.4984 -0.0206  0.6345
17058TIP3    H172665   2.301   0.483  12.688 -1.6712 -1.0548  0.8054
17058TIP3    H272666   2.433   0.418  12.650 -0.7864  0.9254  0.3278
17059TIP3   OH272667   1.408   0.584   4.382  0.3933 -0.3076  0.1866
17059TIP3    H172668   1.379   0.620   4.466 -0.0742 -0.5612  0.1427
17059TIP3    H272669   1.425   0.661   4.328 -0.5665 -0.1370  0.1018
17060TIP3   OH272670   0.307   2.611  12.479  0.6289  0.5113  0.2111
17060TIP3    H172671   0.325   2.631  12.387 -1.7625  0.2055 -0.4081
17060TIP3    H272672   0.246   2.679  12.507  0.8323  0.2316  1.3850
17061TIP3   OH272673   6.646   1.239   1.717  0.2615 -0.2594 -0.1024
17061TIP3    H172674   6.644   1.208   1.808  0.2628  2.1837  0.7884
17061TIP3    H272675   6.602   1.323   1.719  1.6547  0.5878 -2.0708
17062TIP3   OH272676   5.146   2.767  11.788  0.3956 -0.6250  0.1902
17062TIP3    H172677   5.133   2.855  11.752  2.2829 -0.7279 -0.8824
17062TIP3    H272678   5.175   2.781  11.878  0.7785 -0.1379 -0.0066
17063TIP3   OH272679   2.115   0.969  15.277  0.0945  0.3180  0.6039
17063TIP3    H172680   2.201   0.969  15.237  0.7599 -0.2886  1.9750
17063TIP3    H272681   2.132   0.958  15.371 -1.5489 -1.7735  0.7226
17064TIP3   OH272682   4.165   6.570   2.051 -0.0945  0.0319 -0.1390
17064TIP3    H172683   4.130   6.486   2.022 -2.2071  0.1330  1.8641
17064TIP3    H272684   4.210   6.550   2.133 -2.5447  1.0566  1.5770
17065TIP3   OH272685   5.194   6.796   1.560 -0.8188 -0.0952  0.3692
17065TIP3    H172686   5.134   6.868   1.539  0.9531  1.4590  0.3632
17065TIP3    H272687   5.278   6.839   1.575  0.5357 -2.2743 -0.5482
17066TIP3   OH272688   1.647   6.227   4.345  0.3676  0.2769 -0.2308
17066TIP3    H172689   1.581   6.226   4.275  0.6235 -2.0661 -0.5347
17066TIP3    H272690   1.713   6.289   4.315 -1.1938  1.9560 -0.3725
17067TIP3   OH272691   5.339   6.698  13.968 -0.1873 -0.2531  0.0223
17067TIP3    H172692   5.377   6.754  13.901  0.0207  0.8937  1.0611
17067TIP3    H272693   5.296   6.628  13.919 -2.0209  1.7650 -1.4125
17068TIP3   OH272694   3.418   3.250   1.444  0.5586 -0.7812  0.3950
17068TIP3    H172695   3.426   3.160   1.415  2.5561 -0.1270 -1.2904
17068TIP3    H272696   3.443   3.249   1.536 -0.2546 -2.0279  0.6240
17069TIP3   OH272697   5.153   6.281  16.139 -0.5741  0.0068 -0.2324
17069TIP3    H172698   5.217   6.211  16.131 -2.2713 -1.4854 -1.5145
17069TIP3    H272699   5.205   6.360  16.151  1.6152 -0.8849 -2.9237
17070TIP3   OH272700   5.563   5.775   1.115  0.1525  0.2165  0.8804
17070TIP3    H172701   5.486   5.749   1.164 -1.9293  1.5578 -1.4357
17070TIP3    H272702   5.567   5.713   1.042  0.6540  0.7604  0.4297
17071TIP3   OH272703   2.365   0.071   6.549  0.6596 -0.1650 -0.4555
17071TIP3    H172704   2.336   0.005   6.612  2.0878 -0.5841 -0.1919
17071TIP3    H272705   2.411   0.021   6.481  0.5835  0.4383 -0.9631
17072TIP3   OH272706   2.128   2.071  16.042 -0.6579  0.0459 -0.0901
17072TIP3    H172707   2.210   2.115  16.066  0.2446 -1.4820 -0.2700
17072TIP3    H272708   2.060   2.136  16.061  0.3139  0.3350  2.8627
17073TIP3   OH272709   2.514   0.461   0.208  0.2866  0.1273 -0.3128
17073TIP3    H172710   2.593   0.433   0.254 -1.1696 -2.1501  1.0182
17073TIP3    H272711   2.546   0.517   0.137  3.1813 -1.5034 -0.4699
17074TIP3   OH272712   4.341   1.390  12.241  0.8507 -0.4335  0.1277
17074TIP3    H172713   4.313   1.306  12.275  0.5830 -0.4332 -0.0905
17074TIP3    H272714   4.341   1.448  12.318 -3.0647  0.4673 -0.3394
17075TIP3   OH272715   2.902   1.071  16.583 -0.1625 -0.5409 -0.4324
17075TIP3    H172716   2.887   0.999  16.645  1.7790 -0.3369  0.3445
17075TIP3    H272717   2.874   1.149  16.631  1.4538 -0.3687  0.2934
17076TIP3   OH272718   4.721   4.437  14.992 -0.2814  0.1147 -0.1375
17076TIP3    H172719   4.711   4.405  15.082  0.2717 -0.3621 -0.2421
17076TIP3    H272720   4.722   4.358  14.938  3.0157  0.0847 -0.2379
17077TIP3   OH272721   3.272   2.046  16.457  0.6403  0.4272  0.6509
17077TIP3    H172722   3.324   2.022  16.534  2.0709  2.2033  0.3193
17077TIP3    H272723   3.250   2.138  16.471 -1.2747  0.0927  0.0940
17078TIP3   OH272724   0.815   3.762  11.831  0.1082  0.7473 -0.2238
17078TIP3    H172725   0.826   3.800  11.744  3.2328  1.0045  0.1968
17078TIP3    H272726   0.796   3.670  11.815  0.7231  0.7773 -1.1851
17079TIP3   OH272727   3.334   5.764  15.872  0.0030  0.2364 -0.3376
17079TIP3    H172728   3.391   5.739  15.945  2.1582  1.7545 -1.3990
17079TIP3    H272729   3.367   5.714  15.797 -0.5135  0.6147 -0.8294
17080TIP3   OH272730   1.518   2.520  13.846 -0.4342 -0.0016 -0.2449
17080TIP3    H172731   1.472   2.436  13.845 -1.4355  0.4988  0.8153
17080TIP3    H272732   1.537   2.537  13.938  0.7877  0.4064 -0.5540
17081TIP3   OH272733   2.349   2.305  15.505 -0.5684 -0.2699  0.1918
17081TIP3    H172734   2.398   2.344  15.578 -1.5027  1.3626  0.0038
17081TIP3    H272735   2.387   2.218  15.495  1.4929  0.4877  0.8124
17082TIP3   OH272736   5.796   5.890   5.709  0.3795 -0.6642 -0.5381
17082TIP3    H172737   5.859   5.842   5.655  2.7252  1.2715  0.2661
17082TIP3    H272738   5.850   5.955   5.755 -1.9385 -0.3931  1.9719
17083TIP3   OH272739   3.933   3.300   0.914  0.3860  0.2722  0.3347
17083TIP3    H172740   3.887   3.224   0.951 -0.9744  0.9329  0.0356
17083TIP3    H272741   4.021   3.294   0.951 -0.2716 -0.3574  1.9039
17084TIP3   OH272742   3.027   1.183   5.525 -0.1354 -0.2279 -0.6807
17084TIP3    H172743   3.115   1.145   5.514  0.9650  2.1494 -0.6565
17084TIP3    H272744   2.976   1.143   5.454  0.7757 -2.0676 -0.3823
17085TIP3   OH272745   4.071   1.198   4.478  0.0412  0.2642 -0.0814
17085TIP3    H172746   4.126   1.276   4.472 -0.5684  0.8515  1.3414
17085TIP3    H272747   4.051   1.176   4.387  0.9051  1.2716 -0.5478
17086TIP3   OH272748   5.409   6.190  15.674  0.0552  0.2492  0.2862
17086TIP3    H172749   5.438   6.226  15.590 -0.5950  1.2163  0.4553
17086TIP3    H272750   5.434   6.097  15.670  0.7748  0.4623 -0.6264
17087TIP3   OH272751   4.957   6.720   1.089  0.5896  0.0061 -0.1860
17087TIP3    H172752   4.973   6.626   1.085 -0.9943 -0.3303  0.5290
17087TIP3    H272753   4.878   6.733   1.035  1.5080  1.1374 -1.3401
17088TIP3   OH272754   2.490   5.512   2.437 -0.0379  0.2780 -0.5668
17088TIP3    H172755   2.561   5.574   2.428 -0.5947  0.9432 -0.4614
17088TIP3    H272756   2.488   5.490   2.530  2.9177 -3.2539 -1.1212
17089TIP3   OH272757   3.890   2.428  15.248  0.2758  0.4526  0.1351
17089TIP3    H172758   3.901   2.493  15.317  1.3044  0.5933 -0.1531
17089TIP3    H272759   3.842   2.474  15.179 -0.2049  0.4911  0.4853
17090TIP3   OH272760   4.358   5.830  11.124  0.1301 -0.2621 -0.0561
17090TIP3    H172761   4.385   5.797  11.210  0.2159 -1.2989 -0.4699
17090TIP3    H272762   4.377   5.759  11.064 -1.0586 -0.0025 -0.7671
17091TIP3   OH272763   4.508   4.147   2.218  0.6699  1.1431 -0.0008
17091TIP3    H172764   4.525   4.215   2.284  0.7630  1.2360 -0.1204
17091TIP3    H272765   4.420   4.166   2.186  1.1352  1.9313 -0.8901
17092TIP3   OH272766   1.320   3.400  11.518 -0.7495  0.0833 -0.3455
17092TIP3    H172767   1.228   3.374  11.518 -0.6230 -0.4145 -1.2285
17092TIP3    H272768   1.318   3.496  11.520 -1.2842  0.0745 -0.2978
17093TIP3   OH272769   0.557   2.343  12.734 -0.4582  0.1828 -0.3580
17093TIP3    H172770   0.569   2.413  12.669 -0.4909  1.0930  0.5785
17093TIP3    H272771   0.466   2.352  12.762 -0.6172 -0.5891 -0.6078
17094TIP3   OH272772   0.676   4.527   3.691  0.6052 -0.1554 -0.7844
17094TIP3    H172773   0.716   4.605   3.653  0.8410 -0.2121 -0.6522
17094TIP3    H272774   0.582   4.541   3.680  0.6247  0.3349 -0.3980
17095TIP3   OH272775   5.575   6.056   1.164  0.0492 -0.0707  0.1973
17095TIP3    H172776   5.670   6.066   1.154 -0.1601  2.6456 -0.0551
17095TIP3    H272777   5.555   5.972   1.124  2.0616  0.4347 -2.1470
17096TIP3   OH272778   0.477   4.026  14.014 -0.7829 -0.5997 -0.0634
17096TIP3    H172779   0.495   3.986  13.929 -1.4767  0.1773 -0.5885
17096TIP3    H272780   0.483   3.953  14.076 -0.1637 -1.1566 -0.7525
17097TIP3   OH272781   4.089   5.856   3.337  0.0660  0.5486 -0.2899
17097TIP3    H172782   4.113   5.777   3.386 -1.1038 -0.1100 -0.7442
17097TIP3    H272783   4.172   5.890   3.304  0.3686 -2.0952 -2.5096
17098TIP3   OH272784   1.079   6.212   3.883  0.4388  0.0741 -0.4499
17098TIP3    H172785   1.164   6.168   3.881 -0.3715 -1.5907 -0.1391
17098TIP3    H272786   1.047   6.196   3.972 -0.8656 -0.6800 -1.0360
17099TIP3   OH272787   2.891   4.355   0.796  0.4833 -0.0380 -0.1204
17099TIP3    H172788   2.890   4.425   0.731 -1.8410 -0.0010 -0.1234
17099TIP3    H272789   2.940   4.392   0.870 -0.4243  1.4892 -0.2372
17100TIP3   OH272790   5.519   5.845   0.181  1.2465  0.5957 -0.0812
17100TIP3    H172791   5.590   5.897   0.143  0.1282  2.7982  0.6775
17100TIP3    H272792   5.504   5.885   0.267 -0.4202 -0.2912  0.0700
17101TIP3   OH272793   2.958   2.871  14.955 -0.1363 -0.1875  0.5041
17101TIP3    H172794   2.960   2.965  14.977  1.1119  0.3451 -1.6156
17101TIP3    H272795   2.879   2.861  14.902  0.3843 -0.0514 -0.3118
17102TIP3   OH272796   5.223   2.249   4.363  0.0458  0.3642  0.1050
17102TIP3    H172797   5.173   2.171   4.384  0.5412  0.1362  0.4586
17102TIP3    H272798   5.312   2.230   4.394 -0.1099  1.5810  1.4234
17103TIP3   OH272799   2.076   5.612   3.499 -0.3152 -0.4061 -0.6383
17103TIP3    H172800   2.043   5.645   3.416  0.8364  1.8204 -0.2850
17103TIP3    H272801   2.171   5.608   3.488 -0.0961  0.4205  0.7044
17104TIP3   OH272802   3.372   6.708   2.546  0.3876 -0.4335 -0.3002
17104TIP3    H172803   3.380   6.615   2.565 -1.7744 -0.2855  1.9007
17104TIP3    H272804   3.453   6.746   2.580  1.2023 -1.4539 -1.0476
17105TIP3   OH272805   5.629   1.220   4.042  0.0986 -0.1009 -0.1049
17105TIP3    H172806   5.680   1.300   4.025 -2.8944  1.5281 -2.6034
17105TIP3    H272807   5.636   1.170   3.961 -1.5893 -0.1235 -0.2871
17106TIP3   OH272808   0.674   5.133  17.034 -0.8447 -0.2168  0.2686
17106TIP3    H172809   0.604   5.162  16.976 -0.1761  0.2501 -0.3238
17106TIP3    H272810   0.673   5.197  17.106 -0.2703  0.4957 -0.3391
17107TIP3   OH272811   0.335   6.337  14.768  0.0418  0.0229 -0.4164
17107TIP3    H172812   0.363   6.284  14.694  0.3320  0.3901 -0.5776
17107TIP3    H272813   0.302   6.418  14.728  1.7926  0.9428 -0.0913
17108TIP3   OH272814   5.889   6.706  17.059  0.4195 -0.1375 -0.1201
17108TIP3    H172815   5.931   6.790  17.074  0.8964 -0.5096  0.7308
17108TIP3    H272816   5.864   6.707  16.967 -0.8706  1.5140  0.1887
17109TIP3   OH272817   2.245   5.860  14.156  0.2561  0.6872  0.0886
17109TIP3    H172818   2.331   5.823  14.175 -0.6380 -1.3723  0.3816
17109TIP3    H272819   2.217   5.900  14.239 -0.3186 -1.3499  0.9316
17110TIP3   OH272820   5.855   3.182  13.581  0.1968  0.4226 -0.5190
17110TIP3    H172821   5.835   3.247  13.649 -2.2678  0.7362 -1.4542
17110TIP3    H272822   5.914   3.228  13.521 -1.0745  1.6365 -0.8787
17111TIP3   OH272823   0.524   2.350   3.910 -0.1245 -0.3062  0.6976
17111TIP3    H172824   0.605   2.319   3.950  0.4852 -0.2148 -0.4249
17111TIP3    H272825   0.540   2.346   3.816 -1.9766 -1.7256  0.3920
17112TIP3   OH272826   1.713   1.276  12.400  0.3199  0.3011 -1.0284
17112TIP3    H172827   1.750   1.267  12.312  1.3049  0.0100 -0.5922
17112TIP3    H272828   1.788   1.292  12.457  0.0166 -1.8278  0.1025
17113TIP3   OH272829   2.964   3.092  16.611  0.4642  0.2886  0.6318
17113TIP3    H172830   2.941   3.140  16.530 -3.0754  0.6422  1.6662
17113TIP3    H272831   2.923   3.006  16.600  2.4356 -0.7338  0.9217
17114TIP3   OH272832   0.927   0.268  12.299 -0.5433  0.6584 -0.5005
17114TIP3    H172833   0.850   0.238  12.251  0.5687 -0.6963 -1.5152
17114TIP3    H272834   0.893   0.334  12.360 -2.5589 -0.2245 -0.5973
17115TIP3   OH272835   0.840   0.259  15.392  0.3317 -0.1695 -0.5644
17115TIP3    H172836   0.764   0.256  15.333 -0.1637 -0.4105  0.0748
17115TIP3    H272837   0.891   0.181  15.370 -0.7337 -1.1963  0.4754
17116TIP3   OH272838   3.797   4.820   6.531  0.0081 -0.2870  0.0949
17116TIP3    H172839   3.713   4.795   6.492  0.2804 -3.0567  1.1410
17116TIP3    H272840   3.837   4.738   6.558  3.4971  0.8198 -1.1239
17117TIP3   OH272841   4.803   1.982  17.171  0.0753 -0.1967 -0.3167
17117TIP3    H172842   4.809   2.056  17.231  0.6326  0.5996 -1.3428
17117TIP3    H272843   4.747   2.013  17.100 -3.2161 -2.1129  1.1615
17118TIP3   OH272844   4.031   6.402  10.457 -0.6877  0.2841  0.0511
17118TIP3    H172845   4.089   6.400  10.533 -1.2878  2.0199  0.6188
17118TIP3    H272846   4.089   6.418  10.383 -0.2528  0.1609  0.3631
17119TIP3   OH272847   3.378   1.402   4.001 -0.3722 -0.2127  0.0619
17119TIP3    H172848   3.446   1.380   4.064 -1.0145 -0.3099  0.7428
17119TIP3    H272849   3.422   1.457   3.936  0.0010  1.1684  1.3956
17120TIP3   OH272850   1.474   2.823   6.758  0.9744 -0.1465 -0.0039
17120TIP3    H172851   1.455   2.730   6.767  0.4313  0.0239  0.7455
17120TIP3    H272852   1.568   2.828   6.745  0.8110 -0.8954 -1.7370
17121TIP3   OH272853   2.447   2.284   5.914  0.0327  0.3853  0.1311
17121TIP3    H172854   2.526   2.287   5.968  0.6382 -1.4719 -0.5619
17121TIP3    H272855   2.453   2.201   5.868 -1.0872  1.3467 -1.8651
17122TIP3   OH272856   0.808   0.876   5.383  0.2193 -0.0150  0.1589
17122TIP3    H172857   0.801   0.808   5.450 -0.2196  3.1437  3.6954
17122TIP3    H272858   0.756   0.949   5.418 -3.4741  0.7787 -5.4994
17123TIP3   OH272859   6.172   0.904   1.542 -0.5732 -0.2142  0.1400
17123TIP3    H172860   6.230   0.947   1.479  0.2168 -0.2784  0.8083
17123TIP3    H272861   6.144   0.824   1.499  0.2659 -0.4433  0.0020
17124TIP3   OH272862   3.259   0.674   4.860 -0.0079  0.1588  0.4908
17124TIP3    H172863   3.309   0.611   4.809 -1.2696 -1.0192  0.6700
17124TIP3    H272864   3.171   0.637   4.866 -0.3585  1.1308  2.0094
17125TIP3   OH272865   1.031   0.070  15.113 -0.2829  0.1234  0.2322
17125TIP3    H172866   1.027   0.160  15.081  0.0659 -0.1291 -0.5491
17125TIP3    H272867   0.940   0.042  15.120 -0.5244  1.1720  2.4074
17126TIP3   OH272868   2.144   4.838   1.531  0.0580 -0.2374  0.4630
17126TIP3    H172869   2.101   4.792   1.460 -1.2615  1.1429  0.3089
17126TIP3    H272870   2.236   4.811   1.526 -0.0203 -0.2278 -1.7139
17127TIP3   OH272871   3.507   5.993  16.040  0.7552  0.5278  0.0421
17127TIP3    H172872   3.569   6.050  16.085  1.1802 -0.9704  1.4505
17127TIP3    H272873   3.425   6.004  16.088  1.0853 -0.7203  0.9311
17128TIP3   OH272874   3.937   1.580  11.530  0.1483  0.2428  0.1320
17128TIP3    H172875   3.977   1.656  11.573  0.0846 -0.0951  0.7964
17128TIP3    H272876   3.899   1.529  11.602  1.4602 -1.1788 -0.1406
17129TIP3   OH272877   5.201   3.399   1.052 -0.0341  0.3629 -0.4059
17129TIP3    H172878   5.126   3.415   1.111 -0.1606 -0.5466 -0.3029
17129TIP3    H272879   5.191   3.307   1.025  0.6873  0.4252 -0.9083
17130TIP3   OH272880   3.209   0.039  15.633 -0.1945  0.6429  1.0367
17130TIP3    H172881   3.225   0.134  15.631  2.0368  0.3413  2.0377
17130TIP3    H272882   3.115   0.031  15.649 -0.7782  2.6487 -0.8564
17131TIP3   OH272883   0.889   1.778  17.091  0.2893 -0.3726 -0.3638
17131TIP3    H172884   0.898   1.687  17.061 -1.2814 -0.9259  0.7073
17131TIP3    H272885   0.979   1.807  17.107  1.0892 -0.6617 -3.6423
17132TIP3   OH272886   0.952   1.198   3.100  0.1716  0.0222  0.7992
17132TIP3    H172887   0.943   1.112   3.059  0.9183  1.0484 -1.7024
17132TIP3    H272888   0.884   1.199   3.167  0.8262 -2.8796  1.6769
17133TIP3   OH272889   4.765   1.722  16.924 -0.0656 -0.4873  0.0858
17133TIP3    H172890   4.740   1.811  16.951  0.7515 -0.9544  2.7178
17133TIP3    H272891   4.695   1.666  16.957  0.4096 -1.0100  0.2256
17134TIP3   OH272892   3.557   3.183  17.103  0.2659  0.4863  0.4259
17134TIP3    H172893   3.572   3.277  17.107  1.1081  0.3149  2.0829
17134TIP3    H272894   3.483   3.168  17.162  2.1429 -0.2045  2.7499
17135TIP3   OH272895   1.433   0.225  11.680  0.5612  0.4251 -0.2554
17135TIP3    H172896   1.338   0.242  11.681  0.5093  0.1676  0.6986
17135TIP3    H272897   1.473   0.310  11.699  0.5583  0.6676 -1.2820
17136TIP3   OH272898   0.893   2.039   4.669 -0.4755 -0.2003 -0.2591
17136TIP3    H172899   0.908   2.021   4.762  2.5098 -0.1533 -0.6435
17136TIP3    H272900   0.873   1.953   4.632 -1.2416 -0.2871  0.3165
17137TIP3   OH272901   0.887   6.513  14.837  0.0072  0.1481  0.3891
17137TIP3    H172902   0.896   6.608  14.838 -0.1804  0.2379 -1.7230
17137TIP3    H272903   0.793   6.498  14.824 -0.0517 -0.3527  1.3159
17138TIP3   OH272904   0.635   5.361  17.231  0.1780 -0.5555  0.1223
17138TIP3    H172905   0.594   5.436  17.272 -2.0215 -0.4237 -2.0827
17138TIP3    H272906   0.724   5.390  17.212  0.8546 -0.1547  3.2633
17139TIP3   OH272907   5.760   3.439  13.141 -0.2947 -0.2547 -0.2316
17139TIP3    H172908   5.848   3.412  13.168 -1.3926 -1.7585  2.1156
17139TIP3    H272909   5.749   3.403  13.053  1.2073 -0.5140 -0.3343
17140TIP3   OH272910   1.724   4.847  10.787 -0.6301 -0.2990  0.2087
17140TIP3    H172911   1.680   4.812  10.710 -1.1308  1.1581 -0.2033
17140TIP3    H272912   1.808   4.800  10.791 -1.2711 -1.5083 -0.2910
17141TIP3   OH272913   6.669   2.705   0.275  0.2654  0.8819  0.0050
17141TIP3    H172914   6.729   2.633   0.291 -1.0101 -0.3902 -0.7235
17141TIP3    H272915   6.684   2.729   0.183  1.4080  2.2762  0.5177
17142TIP3   OH272916   4.592   3.515  12.818  0.4977 -0.5396 -0.4617
17142TIP3    H172917   4.562   3.604  12.802 -0.6026 -0.9592 -0.8411
17142TIP3    H272918   4.537   3.483  12.889  0.3125 -1.1793 -0.8810
17143TIP3   OH272919   1.474   4.879  12.015 -0.9239 -0.4346 -0.5003
17143TIP3    H172920   1.442   4.970  12.017 -0.7879 -0.3968 -0.1070
17143TIP3    H272921   1.478   4.858  11.921  1.2845  0.7584 -0.7378
17144TIP3   OH272922   6.789   6.738   3.438 -0.5210  0.1081  0.2051
17144TIP3    H172923   6.695   6.756   3.445 -0.5843  0.1079 -0.4969
17144TIP3    H272924   6.794   6.643   3.425 -0.4186  0.0982  0.3159
17145TIP3   OH272925   2.251   3.188   3.461  0.3715  0.5180 -0.4498
17145TIP3    H172926   2.308   3.175   3.385  1.1314  0.7457  0.0673
17145TIP3    H272927   2.307   3.171   3.536  0.1550  2.1767  0.1183
17146TIP3   OH272928   2.658   2.490  17.187  0.2612 -0.3203  0.0634
17146TIP3    H172929   2.722   2.441  17.239  1.2090  1.5483  0.7629
17146TIP3    H272930   2.573   2.469  17.226  0.5790 -1.7899 -0.0101
17147TIP3   OH272931   0.050   2.204  13.482 -0.1049 -0.0159  0.2924
17147TIP3    H172932  -0.008   2.146  13.433  0.6404  0.0910 -0.7506
17147TIP3    H272933   0.138   2.175  13.457  0.2936  1.9409 -0.7015
17148TIP3   OH272934   0.550   4.165   2.635 -0.0188 -0.1583 -0.0519
17148TIP3    H172935   0.546   4.081   2.680  0.0039 -0.1334 -0.0037
17148TIP3    H272936   0.546   4.143   2.542  0.3273 -0.2329 -0.0501
17149TIP3   OH272937   6.750   3.577  16.408 -0.2036 -0.2208  0.8310
17149TIP3    H172938   6.730   3.658  16.361  0.2881  0.4473  1.7505
17149TIP3    H272939   6.812   3.603  16.475 -1.1772 -1.0744  2.0992
17150TIP3   OH272940   3.261   4.010   1.568  0.2524  0.0371  0.0246
17150TIP3    H172941   3.201   4.027   1.641  1.1764  0.8815  0.6106
17150TIP3    H272942   3.316   3.938   1.598 -0.1837 -0.4703 -0.3586
17151TIP3   OH272943   2.709   6.743   1.476 -0.0984 -0.5385 -0.4798
17151TIP3    H172944   2.711   6.831   1.513 -1.1543 -0.0355 -1.5552
17151TIP3    H272945   2.787   6.739   1.420  0.1700 -0.4384 -0.1183
17152TIP3   OH272946   2.295   0.109   1.076  0.1125  0.1292 -0.8225
17152TIP3    H172947   2.248   0.038   1.033 -0.2990  0.7312 -1.3899
17152TIP3    H272948   2.251   0.189   1.046 -0.2487  0.5744  0.7973
17153TIP3   OH272949   0.491   3.666   2.306  0.0238  0.7096 -0.2746
17153TIP3    H172950   0.419   3.677   2.245 -0.6501  1.2023  0.5861
17153TIP3    H272951   0.478   3.579   2.344  1.0865 -0.0756 -1.6223
17154TIP3   OH272952   5.372   4.083   4.996 -0.2555  0.2577 -0.7897
17154TIP3    H172953   5.324   4.133   4.930 -0.6616  1.4480  0.3657
17154TIP3    H272954   5.306   4.060   5.061 -0.0220 -1.5941 -1.1345
17155TIP3   OH272955   4.360   5.981  15.259 -0.0222 -0.1346  0.3957
17155TIP3    H172956   4.429   6.010  15.319 -0.1623  1.8678 -0.3450
17155TIP3    H272957   4.284   5.969  15.315  0.3569 -0.2088  0.9082
17156TIP3   OH272958   6.766   6.372   1.009  0.0239 -0.0706 -0.0156
17156TIP3    H172959   6.840   6.430   0.989 -0.2448 -0.4090 -2.2685
17156TIP3    H272960   6.690   6.417   0.973 -0.8081 -0.0271  1.7103
17157TIP3   OH272961   0.426   1.635   4.223  0.0865 -0.0466  0.2614
17157TIP3    H172962   0.376   1.581   4.162  0.0206  1.6882 -1.3121
17157TIP3    H272963   0.518   1.622   4.196  0.0210  1.1084 -0.5883
17158TIP3   OH272964   2.248   3.376   4.230 -0.0060 -0.5107 -0.1984
17158TIP3    H172965   2.157   3.399   4.248  0.0154 -0.2436 -0.4315
17158TIP3    H272966   2.289   3.458   4.202  0.5895 -0.3579  1.0076
17159TIP3   OH272967   4.406   6.082   1.989 -0.0536  0.3747  0.0584
17159TIP3    H172968   4.491   6.061   1.950  0.6797 -0.8481  2.1456
17159TIP3    H272969   4.425   6.095   2.082 -2.1026  0.3654  0.5258
17160TIP3   OH272970   6.023   4.557  11.313 -0.9687  0.1415  0.2144
17160TIP3    H172971   6.073   4.570  11.233 -1.7446  0.5145 -0.2278
17160TIP3    H272972   5.978   4.474  11.301 -1.7370  0.5904 -0.1090
17161TIP3   OH272973   3.406   5.725  16.844 -0.0371  0.7238  0.2105
17161TIP3    H172974   3.432   5.791  16.780  0.3201  0.3205 -0.0628
17161TIP3    H272975   3.340   5.769  16.897 -2.3856  0.2328 -2.1102
17162TIP3   OH272976   0.249   0.417  13.852 -0.5235 -0.0054 -0.2548
17162TIP3    H172977   0.298   0.485  13.898 -0.1607  0.5339 -1.4224
17162TIP3    H272978   0.176   0.397  13.911 -0.6960  1.4540  0.0662
17163TIP3   OH272979   6.467   4.420  14.095  0.0874  0.1689  0.6434
17163TIP3    H172980   6.503   4.369  14.167  0.0824  0.3571  0.7794
17163TIP3    H272981   6.458   4.357  14.023  0.3519  0.0428  0.7195
17164TIP3   OH272982   5.049   3.870   5.405  0.3901 -0.0572  0.0286
17164TIP3    H172983   5.123   3.884   5.464  0.7491  0.6851 -0.5821
17164TIP3    H272984   5.081   3.809   5.339  0.9592  1.3853 -1.0781
17165TIP3   OH272985   3.363   3.958   5.023 -0.3909 -0.0357  0.0994
17165TIP3    H172986   3.342   4.038   4.975 -0.1891 -0.8255 -1.3707
17165TIP3    H272987   3.430   3.915   4.970 -2.0228 -2.2196 -0.3357
17166TIP3   OH272988   1.814   2.208  16.935  0.2792 -0.8815 -0.0198
17166TIP3    H172989   1.854   2.123  16.922  2.1242  0.0798 -1.0618
17166TIP3    H272990   1.884   2.263  16.971 -0.5971  0.4174 -0.2027
17167TIP3   OH272991   0.267   1.831  12.212  0.3816 -0.3331  0.4067
17167TIP3    H172992   0.172   1.845  12.205  0.4381  0.9095  1.6324
17167TIP3    H272993   0.287   1.850  12.304  1.4937 -2.8194  0.7427
17168TIP3   OH272994   0.839   4.805   4.468 -0.1353 -0.2366 -0.9571
17168TIP3    H172995   0.903   4.752   4.420 -0.8166 -1.8226 -0.1836
17168TIP3    H272996   0.875   4.810   4.557 -1.3360 -1.6903 -0.3427
17169TIP3   OH272997   1.671   2.420  15.424 -0.3086  0.1825  0.4103
17169TIP3    H172998   1.742   2.438  15.363  2.0862 -3.1599  1.8651
17169TIP3    H272999   1.707   2.442  15.510 -0.8449 -1.7215  1.1874
17170TIP3   OH273000   0.076   4.251   0.339 -0.2738 -0.5544  0.0002
17170TIP3    H173001   0.067   4.323   0.401 -0.4121 -0.9924  0.4947
17170TIP3    H273002   0.126   4.288   0.266 -0.1180 -0.0348  0.3670
17171TIP3   OH273003   4.950   4.328   1.970  0.1881  0.1562  0.2159
17171TIP3    H173004   4.903   4.333   2.053  0.8006 -1.6391  0.7068
17171TIP3    H273005   4.983   4.239   1.966  1.0869  0.5198 -1.4771
17172TIP3   OH273006   5.101   6.146   4.003  0.2551  0.8282 -0.0238
17172TIP3    H173007   5.062   6.155   4.090  0.0805  0.3905 -0.0524
17172TIP3    H273008   5.085   6.230   3.961  1.6960  1.6156  0.9017
17173TIP3   OH273009   3.478   0.992   0.847  0.4058 -0.4877 -0.0956
17173TIP3    H173010   3.451   0.911   0.890  0.2073  0.5732  1.8469
17173TIP3    H273011   3.404   1.016   0.792  0.1487 -1.1716 -0.0565
17174TIP3   OH273012   1.269   0.998  15.226 -0.0063 -0.3825  0.3879
17174TIP3    H173013   1.294   1.086  15.198  0.1347 -0.9672 -1.4623
17174TIP3    H273014   1.192   1.012  15.281 -0.3270  0.8784 -0.3314
17175TIP3   OH273015   4.397   2.987  12.946 -0.0700 -0.1515  0.0159
17175TIP3    H173016   4.321   3.001  13.003  0.2438 -0.5841  0.5447
17175TIP3    H273017   4.430   2.901  12.971  0.7618  0.1515 -0.0246
17176TIP3   OH273018   1.345   1.190  15.655 -0.6793 -1.0661 -0.1702
17176TIP3    H173019   1.395   1.163  15.732 -1.2748 -2.2408 -0.1715
17176TIP3    H273020   1.255   1.199  15.687 -0.5441  0.7709 -0.2238
17177TIP3   OH273021   0.953   0.392  17.030 -0.5555  0.3024  0.1165
17177TIP3    H173022   1.031   0.396  16.974  0.3349  1.7679  1.3823
17177TIP3    H273023   0.880   0.386  16.969  0.4972 -0.2758 -1.1278
17178TIP3   OH273024   4.581   6.394   4.319 -0.2747  0.1093 -0.3696
17178TIP3    H173025   4.636   6.422   4.246 -0.2824  0.3881 -0.2703
17178TIP3    H273026   4.500   6.445   4.308 -1.1163 -1.3555 -1.3684
17179TIP3   OH273027   5.781   2.217  15.242 -0.2360  0.5215 -0.4426
17179TIP3    H173028   5.719   2.177  15.181 -1.4602  1.2302  0.3047
17179TIP3    H273029   5.750   2.190  15.328  1.9625 -1.1805 -0.0848
17180TIP3   OH273030   0.422   2.638   5.899 -0.3261 -0.0756  0.1084
17180TIP3    H173031   0.514   2.612   5.897 -0.5195 -0.8363  0.7446
17180TIP3    H273032   0.377   2.574   5.843 -0.8693 -1.4641  2.0388
17181TIP3   OH273033   3.725   0.439   5.595 -0.2385  0.0318 -0.3514
17181TIP3    H173034   3.762   0.523   5.567  3.4402 -1.1162  0.5049
17181TIP3    H273035   3.712   0.449   5.689  0.3124 -0.3936 -0.2296
17182TIP3   OH273036   4.400   2.340   1.834 -0.5947 -0.0432  0.2254
17182TIP3    H173037   4.455   2.414   1.857 -1.0329  0.2997  0.2003
17182TIP3    H273038   4.402   2.283   1.910 -1.6514  0.8447  0.9591
17183TIP3   OH273039   1.038   6.390  17.142  0.0580 -0.1001  0.0806
17183TIP3    H173040   1.043   6.303  17.182 -0.7768 -0.1234  0.1535
17183TIP3    H273041   0.975   6.380  17.071  1.2358  0.0312 -1.0321
17184TIP3   OH273042   5.954   5.571  13.998  0.5795  0.1445 -0.2675
17184TIP3    H173043   6.038   5.559  13.954  1.5929  0.8913  1.3919
17184TIP3    H273044   5.957   5.659  14.034 -0.4493 -0.2262  0.8008
17185TIP3   OH273045   6.533   1.902   5.479  0.3183  0.3333 -0.1226
17185TIP3    H173046   6.474   1.849   5.532 -0.5878  1.9167  0.5531
17185TIP3    H273047   6.619   1.889   5.517  0.5505 -2.2573 -1.3094
17186TIP3   OH273048   1.153   5.647  16.345 -0.3711 -0.3293 -1.1989
17186TIP3    H173049   1.229   5.695  16.311 -0.8306  1.3479  0.0753
17186TIP3    H273050   1.186   5.604  16.424 -0.6763  0.1287 -0.8271
17187TIP3   OH273051   1.472   1.710  11.474 -0.4081  0.6571 -0.0365
17187TIP3    H173052   1.478   1.645  11.404  0.1517 -0.1376  0.7253
17187TIP3    H273053   1.383   1.744  11.468 -0.9816 -0.7676  0.0426
17188TIP3   OH273054   3.128   1.137  15.615 -0.0435  0.0366  0.6078
17188TIP3    H173055   3.179   1.061  15.643  0.5103  0.6563  1.3490
17188TIP3    H273056   3.129   1.133  15.520  2.6507  0.8039  0.5248
17189TIP3   OH273057   0.237   4.856   5.036  0.0823 -0.0743 -0.1715
17189TIP3    H173058   0.155   4.817   5.065  0.2231  0.4536  1.0038
17189TIP3    H273059   0.291   4.859   5.115  1.8086 -1.7769 -1.2017
17190TIP3   OH273060   6.718   5.987   3.134  0.1683  0.0806 -0.5914
17190TIP3    H173061   6.645   6.042   3.107 -0.3176 -0.4182 -0.3375
17190TIP3    H273062   6.796   6.030   3.100  0.0667  2.3009  1.7242
17191TIP3   OH273063   4.160   2.517  15.109 -0.6059  0.4672 -0.1680
17191TIP3    H173064   4.233   2.456  15.121  0.7750  1.9729 -0.4924
17191TIP3    H273065   4.124   2.495  15.023  0.4927  0.6798 -0.7074
17192TIP3   OH273066   3.906   3.577   3.244 -0.0695  0.1912  0.1308
17192TIP3    H173067   3.848   3.653   3.250  1.5553  1.4358  0.6322
17192TIP3    H273068   3.887   3.539   3.158 -1.7247  0.4395  0.3519
17193TIP3   OH273069   2.361   5.494   2.176 -0.0664  0.0938  0.1207
17193TIP3    H173070   2.360   5.485   2.271 -0.1631  0.3316  0.1419
17193TIP3    H273071   2.304   5.423   2.145  0.3117 -0.2574  0.2156
17194TIP3   OH273072   4.676   1.244  10.709 -0.1183 -0.1727  0.1229
17194TIP3    H173073   4.746   1.286  10.658  0.0195  2.1444  2.0209
17194TIP3    H273074   4.608   1.225  10.645  1.3841 -0.5744 -1.4425
17195TIP3   OH273075   1.994   2.368   3.063 -0.0449 -0.1857 -0.2001
17195TIP3    H173076   2.057   2.347   2.994  0.4190 -0.0140  0.1611
17195TIP3    H273077   2.024   2.318   3.139 -1.6904 -1.9470 -0.6430
17196TIP3   OH273078   2.732   5.251  12.078  0.3555  0.6260 -0.2600
17196TIP3    H173079   2.700   5.161  12.070  0.9308  0.4307 -0.4137
17196TIP3    H273080   2.710   5.276  12.168 -0.3196  0.5386 -0.3955
17197TIP3   OH273081   4.301   5.708  13.419  0.5701  0.2314 -0.3221
17197TIP3    H173082   4.300   5.796  13.458  1.2669  0.3301 -0.5126
17197TIP3    H273083   4.209   5.684  13.410  0.3155  1.5242 -1.5548
17198TIP3   OH273084   2.366   1.785  13.664  0.0598  0.4208  0.5079
17198TIP3    H173085   2.428   1.855  13.684  0.3084  0.5060 -0.5180
17198TIP3    H273086   2.334   1.757  13.750 -0.0925  1.8248  0.9478
17199TIP3   OH273087   5.547   0.579   5.215  0.0718  0.7621  0.0443
17199TIP3    H173088   5.621   0.531   5.177  1.0722  2.1620  0.1696
17199TIP3    H273089   5.555   0.563   5.309 -0.3373  0.1614 -0.0197
17200TIP3   OH273090   6.638   3.644  13.512 -0.0535  0.5861  0.4683
17200TIP3    H173091   6.596   3.666  13.429 -0.0440  1.6185  0.7156
17200TIP3    H273092   6.670   3.555  13.500  2.1494  1.5339 -1.5389
17201TIP3   OH273093   2.563   6.220  14.826  0.1723  0.2310 -1.4141
17201TIP3    H173094   2.624   6.252  14.760  0.0650  2.1459 -0.6557
17201TIP3    H273095   2.479   6.216  14.782  0.1472  1.2653 -1.4887
17202TIP3   OH273096   3.399   6.249  12.776 -0.7458  0.7688  0.1207
17202TIP3    H173097   3.413   6.316  12.842 -2.7710  1.8719 -0.4795
17202TIP3    H273098   3.430   6.290  12.694 -2.4966  1.2418 -0.3383
17203TIP3   OH273099   0.172   0.379  11.810  0.2747 -0.8010 -0.5732
17203TIP3    H173100   0.152   0.316  11.741  0.4167 -0.1904 -1.1865
17203TIP3    H273101   0.257   0.415  11.785 -0.6645  1.0399 -1.3076
17204TIP3   OH273102   1.114   2.345  13.337 -0.2561 -0.0880 -0.0467
17204TIP3    H173103   1.128   2.421  13.393 -0.4329 -0.5777  0.6741
17204TIP3    H273104   1.022   2.320  13.352 -0.2172 -0.4079 -0.3163
17205TIP3   OH273105   4.938   0.450   5.634  0.0751  0.0872 -0.0290
17205TIP3    H173106   4.883   0.455   5.712  0.1349  0.2614  0.0030
17205TIP3    H273107   4.888   0.497   5.567 -0.5042 -1.0389 -0.4114
17206TIP3   OH273108   3.492   4.709  16.282  0.5044  0.0212  0.0275
17206TIP3    H173109   3.500   4.753  16.198  0.1471  0.8718  0.4263
17206TIP3    H273110   3.560   4.750  16.336 -0.5655  0.9038  0.7405
17207TIP3   OH273111   0.399   0.607   2.337  0.2675 -0.2644  0.1050
17207TIP3    H173112   0.428   0.679   2.392 -0.3059  0.9801 -1.1576
17207TIP3    H273113   0.314   0.635   2.303 -0.2174 -1.7700 -0.0127
17208TIP3   OH273114   4.367   3.212  13.177  0.3371 -0.2072  0.0170
17208TIP3    H173115   4.389   3.171  13.260  1.0791 -1.6140 -0.8310
17208TIP3    H273116   4.276   3.189  13.161  0.2011  0.0490  0.4171
17209TIP3   OH273117   0.843   6.518   2.648 -0.0639 -0.0202  0.0463
17209TIP3    H173118   0.907   6.519   2.578 -1.4732 -0.3778 -1.2972
17209TIP3    H273119   0.759   6.527   2.604 -1.0783 -1.4456  1.5910
17210TIP3   OH273120   2.654   2.442  11.785 -0.0258 -0.0915  0.1100
17210TIP3    H173121   2.673   2.399  11.869 -2.9158  0.0785  0.9432
17210TIP3    H273122   2.641   2.534  11.807  1.9473  0.5388 -1.0418
17211TIP3   OH273123   4.578   4.031   2.627 -0.1781 -0.1466  0.2196
17211TIP3    H173124   4.656   4.038   2.571  0.0630  0.5616  0.6171
17211TIP3    H273125   4.607   4.067   2.711 -0.6953 -0.6708  0.6257
17212TIP3   OH273126   0.566   1.051  12.036 -0.2801 -0.4981 -0.5519
17212TIP3    H173127   0.500   1.064  11.968  0.5394 -2.2619 -1.7350
17212TIP3    H273128   0.546   1.119  12.101 -1.6584  0.6407 -2.0784
17213TIP3   OH273129   6.229   3.081   1.815 -0.1492 -0.3532 -0.1522
17213TIP3    H173130   6.277   2.998   1.822  0.2864 -0.1244 -0.3973
17213TIP3    H273131   6.219   3.094   1.721 -1.7810 -1.0211 -0.0953
17214TIP3   OH273132   4.346   6.729  11.049 -0.3555  0.2219  0.6451
17214TIP3    H173133   4.296   6.672  11.107  0.8145  0.0183  1.5007
17214TIP3    H273134   4.343   6.686  10.964 -0.3016 -0.6215  1.0614
17215TIP3   OH273135   2.653   0.773  12.145  0.0920  0.0610 -0.3628
17215TIP3    H173136   2.579   0.812  12.098 -1.0725 -2.6848 -1.0324
17215TIP3    H273137   2.662   0.826  12.224 -2.9986  0.2043  0.0143
17216TIP3   OH273138   0.685   5.601  15.136  0.0060 -0.6251  0.1050
17216TIP3    H173139   0.686   5.694  15.161  1.3304 -1.1539  2.2735
17216TIP3    H273140   0.608   5.565  15.180 -0.5126 -0.5926 -0.7422
17217TIP3   OH273141   2.847   6.521   0.236 -0.5992  0.3734  0.1182
17217TIP3    H173142   2.794   6.549   0.161 -1.6771 -1.2535  0.2172
17217TIP3    H273143   2.784   6.510   0.307  0.3961  1.7522  1.2700
17218TIP3   OH273144   3.712   2.305   0.576 -0.0058  0.4321  0.3676
17218TIP3    H173145   3.630   2.326   0.621 -0.5418  0.3296 -0.5519
17218TIP3    H273146   3.696   2.219   0.536  1.1269 -0.3811  1.5724
17219TIP3   OH273147   6.405   3.171  17.062 -0.0050 -0.1581  0.2427
17219TIP3    H173148   6.332   3.112  17.044 -0.8198  1.0945 -0.7265
17219TIP3    H273149   6.483   3.118  17.044 -0.6007 -1.7146  1.9159
17220TIP3   OH273150   0.945   6.530   0.876  0.0439 -0.0787  0.0007
17220TIP3    H173151   0.880   6.589   0.839 -0.0088  0.4243  0.8688
17220TIP3    H273152   0.956   6.559   0.967  1.2585 -0.3377 -0.0373
17221TIP3   OH273153   6.216   3.399   2.868 -0.7179  0.3410  0.0190
17221TIP3    H173154   6.287   3.395   2.805 -1.2413 -0.4125 -0.5322
17221TIP3    H273155   6.183   3.309   2.874  0.0657  0.1341  2.2296
17222TIP3   OH273156   6.760   0.844   2.535  0.4183 -0.2921  0.0671
17222TIP3    H173157   6.740   0.907   2.466 -0.6332 -1.1251 -0.4132
17222TIP3    H273158   6.751   0.758   2.493  0.1232 -0.8031  1.1417
17223TIP3   OH273159   3.100   0.780   1.703 -0.4319 -0.2095 -0.3332
17223TIP3    H173160   3.083   0.823   1.787 -1.7424  1.0477 -1.1998
17223TIP3    H273161   3.044   0.703   1.703  1.0109 -1.3119  0.7131
17224TIP3   OH273162   1.214   1.749  15.129  0.0677  0.0485  0.4852
17224TIP3    H173163   1.189   1.838  15.155  2.4094  0.4797  1.6096
17224TIP3    H273164   1.132   1.704  15.111 -1.4988  1.2218  3.9288
17225TIP3   OH273165   0.954   1.489   3.124  0.0017 -0.1956 -0.0526
17225TIP3    H173166   0.983   1.409   3.079  0.9296 -0.1438  0.4207
17225TIP3    H273167   0.873   1.514   3.080  0.0628 -1.0215 -0.6506
17226TIP3   OH273168   5.915   0.789  13.118  0.2422  0.0960 -0.4595
17226TIP3    H173169   5.975   0.716  13.134 -0.1176 -0.3297 -1.0400
17226TIP3    H273170   5.928   0.847  13.193  2.0583  0.4860 -1.0248
17227TIP3   OH273171   3.871   0.484   2.061 -0.0709 -0.1585 -0.2541
17227TIP3    H173172   3.860   0.391   2.045 -1.6018  0.0681 -0.7447
17227TIP3    H273173   3.809   0.504   2.132 -1.0410  0.7637 -1.3125
17228TIP3   OH273174   3.719   4.409  14.058 -0.2069 -0.0106  0.5121
17228TIP3    H173175   3.796   4.357  14.036 -0.2217  0.0689  0.2660
17228TIP3    H273176   3.673   4.357  14.124 -1.8096 -1.8055 -1.8397
17229TIP3   OH273177   4.142   4.147  11.891  0.0360 -0.6090  0.4220
17229TIP3    H173178   4.217   4.088  11.899 -0.1291 -0.8037  0.5624
17229TIP3    H273179   4.066   4.090  11.906 -0.1632 -0.5049 -0.1491
17230TIP3   OH273180   4.855   0.106  15.509  0.4025 -0.2507  0.1686
17230TIP3    H173181   4.819   0.156  15.582 -0.2019  1.6807 -1.3506
17230TIP3    H273182   4.932   0.062  15.545 -0.4320 -0.1598  2.1800
17231TIP3   OH273183   3.557   6.568   3.824 -0.0589  0.5236 -0.0788
17231TIP3    H173184   3.467   6.540   3.838  0.5642 -1.6152 -0.0803
17231TIP3    H273185   3.610   6.490   3.837  1.5956  1.0509 -2.6719
17232TIP3   OH273186   0.865   1.103   0.424  0.3359  0.0357  0.0574
17232TIP3    H173187   0.776   1.088   0.392  0.0472 -1.8431  1.5356
17232TIP3    H273188   0.917   1.120   0.345 -1.0690 -0.3020 -0.9680
17233TIP3   OH273189   4.328   0.504   4.526  0.2573  0.1765  0.7110
17233TIP3    H173190   4.315   0.528   4.434  1.2002 -0.8421  0.2837
17233TIP3    H273191   4.348   0.587   4.569  1.0507  0.5103 -0.2483
17234TIP3   OH273192   1.508   2.021   4.984  0.0713  0.6207  0.4664
17234TIP3    H173193   1.545   1.934   5.001 -1.0379  0.0902  0.2976
17234TIP3    H273194   1.501   2.061   5.070 -0.8149 -0.0707  0.7394
17235TIP3   OH273195   1.325   4.547  14.004 -0.1697 -0.1091  0.8849
17235TIP3    H173196   1.318   4.498  14.086  1.2479  0.6729  1.5235
17235TIP3    H273197   1.369   4.629  14.029  0.1954  0.1965 -0.6444
17236TIP3   OH273198   1.385   0.210   4.493 -0.5447  0.0864 -0.1489
17236TIP3    H173199   1.339   0.261   4.426 -0.1692  0.6420  0.0046
17236TIP3    H273200   1.321   0.146   4.523 -0.1207 -1.5771 -2.4986
17237TIP3   OH273201   3.179   4.404   3.052 -0.0791 -0.1402 -0.0737
17237TIP3    H173202   3.170   4.312   3.030  1.5715 -0.4955  0.5758
17237TIP3    H273203   3.108   4.447   3.005 -0.7760 -1.7145 -0.5189
17238TIP3   OH273204   5.687   3.153  11.727 -0.2996  0.1382 -0.6998
17238TIP3    H173205   5.685   3.156  11.631  3.0345  1.9888 -0.8619
17238TIP3    H273206   5.681   3.245  11.754 -0.2389 -0.2720  0.8186
17239TIP3   OH273207   2.101   0.315   0.776  0.6151  0.3561  0.0782
17239TIP3    H173208   2.125   0.344   0.863  1.6121 -4.5669  1.7921
17239TIP3    H273209   2.179   0.331   0.722  1.2949  0.2967  1.0328
17240TIP3   OH273210   0.839   6.472   0.545  0.7280  0.3115 -0.2840
17240TIP3    H173211   0.872   6.400   0.491 -0.7934 -1.6156  1.2327
17240TIP3    H273212   0.746   6.477   0.524  0.1919 -0.2164  1.8136
17241TIP3   OH273213   4.189   0.027   5.192  0.5464  0.0703 -0.9754
17241TIP3    H173214   4.260   0.083   5.161  2.3577 -0.3550  2.0521
17241TIP3    H273215   4.118   0.089   5.214  0.9294  0.7461 -1.5805
17242TIP3   OH273216   3.619   1.407   4.827  0.4494  0.2984 -0.8891
17242TIP3    H173217   3.697   1.462   4.835  1.6855 -1.3218 -1.0888
17242TIP3    H273218   3.654   1.320   4.809 -1.4783 -0.2157 -2.4408
17243TIP3   OH273219   0.674   1.790   2.940  0.3278 -0.1872 -0.9472
17243TIP3    H173220   0.699   1.881   2.951  0.7438 -0.2044 -1.7477
17243TIP3    H273221   0.741   1.752   2.884 -0.7957 -0.5338 -2.1057
17244TIP3   OH273222   6.389   6.014  14.794 -0.0216 -0.1518  0.1316
17244TIP3    H173223   6.406   6.108  14.786 -1.9924  0.3267  0.9386
17244TIP3    H273224   6.451   5.984  14.860 -0.1315  0.8367  0.7016
17245TIP3   OH273225   1.464   0.826   2.319 -0.8078  0.5866  0.0079
17245TIP3    H173226   1.455   0.733   2.341 -0.7493  0.6597  0.3491
17245TIP3    H273227   1.538   0.829   2.259 -1.5528  0.2691 -0.9501
17246TIP3   OH273228   5.621   0.616  14.435  0.3447 -0.2445 -0.3584
17246TIP3    H173229   5.582   0.669  14.504 -0.3922  0.1611 -1.0764
17246TIP3    H273230   5.625   0.674  14.359  2.3850 -0.2683 -0.3090
17247TIP3   OH273231   0.459   3.159  16.403  0.0734  0.5037 -0.5442
17247TIP3    H173232   0.439   3.101  16.330 -1.0067 -0.0393  0.1486
17247TIP3    H273233   0.554   3.156  16.411  0.0236 -1.9641  0.0557
17248TIP3   OH273234   1.839   6.750   2.743  0.3181 -0.8282  0.5205
17248TIP3    H173235   1.882   6.763   2.658  1.3819  0.4748  1.2264
17248TIP3    H273236   1.769   6.816   2.744 -0.6877 -1.8436  0.0675
17249TIP3   OH273237   2.695   0.253  11.962 -0.2894  0.2318  0.0397
17249TIP3    H173238   2.776   0.280  12.007 -0.5322  1.7764 -0.3949
17249TIP3    H273239   2.690   0.159  11.976  2.2406 -0.1156 -0.9727
17250TIP3   OH273240   6.275   1.199  17.029  0.5192 -0.4892 -0.9180
17250TIP3    H173241   6.256   1.291  17.045 -0.2274 -0.7561 -0.2118
17250TIP3    H273242   6.346   1.178  17.090 -0.8471 -0.9424  0.5848
17251TIP3   OH273243   5.137   4.618   5.616 -0.1748  0.3086  0.1417
17251TIP3    H173244   5.182   4.596   5.698  0.1075  1.8810  0.4554
17251TIP3    H273245   5.045   4.625   5.640  0.0049  1.5709  0.5394
17252TIP3   OH273246   3.965   3.852  12.759  0.3709 -0.0761 -0.0647
17252TIP3    H173247   3.956   3.947  12.751 -0.0400 -0.0925  0.1913
17252TIP3    H273248   4.005   3.838  12.844  0.6850 -0.1207 -0.2182
17253TIP3   OH273249   0.982   5.278  11.655 -0.1657  0.6196  0.0944
17253TIP3    H173250   0.993   5.368  11.627 -2.6757  0.9420 -0.1257
17253TIP3    H273251   0.944   5.284  11.743 -0.8248 -0.1750 -0.1147
17254TIP3   OH273252   0.681   3.902   3.702 -0.1197 -0.3079  0.3454
17254TIP3    H173253   0.608   3.947   3.660  0.0146 -0.1886  0.2406
17254TIP3    H273254   0.668   3.916   3.796  0.3470  0.5994  0.2785
17255TIP3   OH273255   1.243   5.922  13.607  1.3748  0.7466  0.1240
17255TIP3    H173256   1.203   5.963  13.530  0.2183 -1.0141 -0.2759
17255TIP3    H273257   1.170   5.906  13.666  1.8896 -0.0895  0.5482
17256TIP3   OH273258   6.483   4.919  13.451  0.0327  0.0175 -1.1868
17256TIP3    H173259   6.571   4.954  13.461  0.7548 -1.9283 -0.0691
17256TIP3    H273260   6.432   4.961  13.520  0.3582  0.3590 -1.1532
17257TIP3   OH273261   1.181   1.145   1.283  0.5863  0.1523  0.0878
17257TIP3    H173262   1.100   1.142   1.233  0.0695  1.0041  0.8351
17257TIP3    H273263   1.180   1.064   1.335  1.7626 -1.3925 -2.1549
17258TIP3   OH273264   1.011   5.755   2.323  0.2592  0.2439  0.2626
17258TIP3    H173265   1.052   5.823   2.377  0.4836 -0.5163  1.0641
17258TIP3    H273266   1.083   5.722   2.268  0.3886 -0.0643  0.6148
17259TIP3   OH273267   3.306   3.573  13.257  0.3041 -0.1546  0.5362
17259TIP3    H173268   3.215   3.586  13.228 -0.0658 -0.4506  1.5341
17259TIP3    H273269   3.335   3.661  13.282  1.1009  0.3662 -1.9803
17260TIP3   OH273270   5.900   5.243   2.935 -0.3254  0.0557 -0.2526
17260TIP3    H173271   5.825   5.234   2.994  0.0095 -0.6260  0.0873
17260TIP3    H273272   5.974   5.206   2.985 -0.0563 -0.6121 -1.1243
17261TIP3   OH273273   5.393   4.655  11.008 -0.5085  0.4673  0.1410
17261TIP3    H173274   5.359   4.735  11.050  0.7647  1.1690 -0.1084
17261TIP3    H273275   5.359   4.584  11.062 -0.4092  1.2531  1.2938
17262TIP3   OH273276   2.038   4.920  15.614  0.0272 -0.3622 -0.3931
17262TIP3    H173277   2.077   4.845  15.569 -0.8020 -0.4728 -0.9416
17262TIP3    H273278   2.098   4.992  15.595  2.2967 -1.3581  2.3017
17263TIP3   OH273279   6.402   6.300  14.758 -0.0969 -0.0947  0.3365
17263TIP3    H173280   6.437   6.356  14.827  0.4206 -1.7600  1.5063
17263TIP3    H273281   6.309   6.321  14.754 -0.1300  0.0561  1.5489
17264TIP3   OH273282   3.182   3.720  13.806 -1.2826  0.4194  0.2138
17264TIP3    H173283   3.196   3.687  13.718  0.4540 -2.2703  1.3800
17264TIP3    H273284   3.089   3.706  13.823 -1.1468 -1.2943 -0.3607
17265TIP3   OH273285   4.097   0.287  14.001 -0.3122 -0.1612  0.2504
17265TIP3    H173286   4.115   0.210  13.946 -0.9617 -0.5746  0.6154
17265TIP3    H273287   4.147   0.358  13.959 -0.2447 -0.6276 -0.4748
17266TIP3   OH273288   1.352   6.218   2.611  0.0676 -0.1982  0.1601
17266TIP3    H173289   1.379   6.135   2.649  1.1124  0.6418  1.3247
17266TIP3    H273290   1.418   6.281   2.640 -0.2640  0.9082 -1.3172
17267TIP3   OH273291   5.164   3.948   4.714  0.1934 -0.1561 -0.1458
17267TIP3    H173292   5.103   4.020   4.696 -2.3033 -2.4170 -1.3124
17267TIP3    H273293   5.224   3.949   4.640  0.5931  1.0829  0.1657
17268TIP3   OH273294   2.901   5.588   1.398 -0.5847 -0.6688 -0.3126
17268TIP3    H173295   2.855   5.531   1.459  0.0294 -0.2778  0.5382
17268TIP3    H273296   2.875   5.677   1.423 -1.1369 -0.5391 -1.2966
17269TIP3   OH273297   0.000   3.791  14.181  0.2499  0.3917 -0.2137
17269TIP3    H173298  -0.058   3.791  14.105 -0.7990 -1.0265  0.5451
17269TIP3    H273299  -0.023   3.712  14.229  0.7142  1.3799  1.7297
17270TIP3   OH273300   3.455   0.190  13.996 -0.2654  0.8767  0.0589
17270TIP3    H173301   3.530   0.135  13.971  1.2045  1.6611  2.4960
17270TIP3    H273302   3.482   0.279  13.972 -0.5006  1.1356  0.7562
17271TIP3   OH273303   0.983   0.438  13.515  0.3868 -0.0677  0.3289
17271TIP3    H173304   1.054   0.407  13.571  0.0410  0.4837  1.0929
17271TIP3    H273305   0.980   0.376  13.442  0.6168 -1.0043  1.1021
17272TIP3   OH273306   4.204   4.943   4.723 -0.4991  0.1545 -0.2617
17272TIP3    H173307   4.245   4.940   4.636 -0.3932 -0.4527 -0.1956
17272TIP3    H273308   4.221   5.032   4.754 -4.0133  1.8449 -2.5039
17273TIP3   OH273309   6.015   3.872   0.897 -0.3474 -0.1238  0.3901
17273TIP3    H173310   5.964   3.952   0.888 -0.6879 -0.4860 -1.1423
17273TIP3    H273311   5.986   3.817   0.825  1.3927 -0.7930  0.1565
17274TIP3   OH273312   2.711   2.208   4.059 -0.5554 -0.4710  0.5684
17274TIP3    H173313   2.660   2.269   4.112  0.1716  0.8001 -0.1541
17274TIP3    H273314   2.773   2.169   4.120 -1.6269 -1.2041  1.2273
17275TIP3   OH273315   0.687   4.323  15.533  0.3160 -0.2766 -0.1199
17275TIP3    H173316   0.711   4.283  15.617  0.6554  0.4866  0.1503
17275TIP3    H273317   0.692   4.417  15.549  0.8409 -0.1296 -1.1312
17276TIP3   OH273318   5.506   4.461   2.461 -0.0668 -1.0175  0.4135
17276TIP3    H173319   5.482   4.388   2.405 -2.2724 -0.0011 -0.0558
17276TIP3    H273320   5.577   4.505   2.413  0.9883 -2.5285  0.5056
17277TIP3   OH273321   2.193   0.024   2.175 -0.0710 -0.2528  0.1620
17277TIP3    H173322   2.200  -0.013   2.263 -1.7254 -0.4199  0.2654
17277TIP3    H273323   2.176  -0.052   2.119 -0.1379 -0.0274 -0.1234
17278TIP3   OH273324   3.702   2.914   3.489  0.5101 -0.3589  0.2902
17278TIP3    H173325   3.616   2.928   3.450  0.5186 -1.2544 -0.0739
17278TIP3    H273326   3.692   2.945   3.580  0.4347  1.5403 -0.3173
17279TIP3   OH273327   3.706   4.419  15.996  0.4135 -0.2807  0.1316
17279TIP3    H173328   3.612   4.405  15.986  0.1795  1.3550 -0.1644
17279TIP3    H273329   3.715   4.467  16.078  1.1299 -1.4806  0.7985
17280TIP3   OH273330   4.671   1.131  16.453  0.4581  0.7784 -0.0016
17280TIP3    H173331   4.655   1.071  16.380  0.3559  1.9193 -0.9520
17280TIP3    H273332   4.737   1.087  16.506  1.2968  0.3583 -1.3274
17281TIP3   OH273333   0.577   6.528   1.742  0.2301 -0.0600 -0.2198
17281TIP3    H173334   0.481   6.529   1.750  0.2167 -1.0724 -0.1648
17281TIP3    H273335   0.604   6.448   1.786  1.2374  0.9189  1.0129
17282TIP3   OH273336   1.583   2.325   3.843  0.1004  0.9997 -0.3814
17282TIP3    H173337   1.553   2.386   3.776 -2.5125 -1.7767 -1.9933
17282TIP3    H273338   1.506   2.308   3.897  1.0639  0.0222  0.7580
17283TIP3   OH273339   3.793   0.965  15.936 -0.3526  0.1050  0.2609
17283TIP3    H173340   3.860   0.992  15.874 -2.4961  0.0537 -2.2679
17283TIP3    H273341   3.840   0.918  16.004  2.2947  1.3875 -0.5687
17284TIP3   OH273342   2.522   5.209  17.155 -0.0639 -0.2351 -0.1336
17284TIP3    H173343   2.583   5.224  17.227  2.1911 -0.1185 -1.9669
17284TIP3    H273344   2.556   5.131  17.111 -2.1314 -1.0655 -0.3863
17285TIP3   OH273345   0.770   5.151  13.116 -0.0622 -0.2158 -0.6213
17285TIP3    H173346   0.789   5.137  13.023  2.9015  0.4855 -0.2228
17285TIP3    H273347   0.777   5.065  13.156  0.7190 -0.2125 -0.7504
17286TIP3   OH273348   6.142   3.051   2.197  0.2964  0.0034 -0.1544
17286TIP3    H173349   6.127   2.978   2.137  1.4184  1.4271 -2.2914
17286TIP3    H273350   6.119   3.016   2.284 -1.3285 -2.1594 -1.3554
17287TIP3   OH273351   3.223   4.441   0.459 -0.7999 -0.8345 -0.2297
17287TIP3    H173352   3.219   4.347   0.443 -2.1076 -0.4420 -2.5700
17287TIP3    H273353   3.207   4.481   0.374  2.9764  1.5601 -0.0880
17288TIP3   OH273354   0.319   4.574  17.211  0.5244 -0.1589  0.5392
17288TIP3    H173355   0.330   4.669  17.207 -0.5164 -0.0402  0.1287
17288TIP3    H273356   0.348   4.550  17.299  0.6458  0.5621  0.7025
17289TIP3   OH273357   2.374   4.254  12.997 -0.5293  0.0054  0.1469
17289TIP3    H173358   2.367   4.344  12.964 -1.2071  1.0361  2.8122
17289TIP3    H273359   2.290   4.239  13.041  0.3607 -1.1613  1.5050
17290TIP3   OH273360   4.222   0.726  15.301  0.0596 -0.6138  0.2912
17290TIP3    H173361   4.263   0.721  15.214 -0.4790 -0.1837  0.0064
17290TIP3    H273362   4.128   0.733  15.282 -0.1690 -1.6676  0.9304
17291TIP3   OH273363   4.721   6.480  15.415 -0.0429  0.3314 -0.2602
17291TIP3    H173364   4.722   6.540  15.489 -1.0574 -0.6560  0.5960
17291TIP3    H273365   4.630   6.451  15.408  0.1603 -0.0773 -1.4941
17292TIP3   OH273366   0.469   3.239   2.803  0.4164 -0.1546 -0.2863
17292TIP3    H173367   0.439   3.321   2.764 -0.1489 -1.3455 -2.5411
17292TIP3    H273368   0.556   3.225   2.766  0.7416 -0.3274  0.5222
17293TIP3   OH273369   3.968   0.170   0.728 -0.8402  0.3674 -0.0285
17293TIP3    H173370   3.914   0.091   0.726  0.3753 -0.5564  1.6301
17293TIP3    H273371   3.968   0.201   0.638 -3.0151 -0.3466 -0.3336
17294TIP3   OH273372   1.889   6.005  13.908 -0.2926 -0.0070 -0.3925
17294TIP3    H173373   1.826   6.054  13.853 -1.2263 -0.2789  0.4029
17294TIP3    H273374   1.961   6.066  13.921 -0.4118  0.3449 -1.2779
17295TIP3   OH273375   0.290   2.842  16.140 -0.0710 -0.2811  0.1503
17295TIP3    H173376   0.337   2.882  16.067 -0.3162  0.9872  0.6580
17295TIP3    H273377   0.206   2.887  16.143  0.5775  0.9470  2.2460
17296TIP3   OH273378   2.308   5.608   5.281 -0.2648  0.4149  0.1745
17296TIP3    H173379   2.291   5.696   5.248  2.2527  1.8277  2.1987
17296TIP3    H273380   2.374   5.572   5.222 -1.0654  0.0025 -0.4739
17297TIP3   OH273381   2.636   2.155  15.803 -0.6528  0.5986 -0.4812
17297TIP3    H173382   2.574   2.082  15.809  0.0756  0.0585  1.0328
17297TIP3    H273383   2.703   2.136  15.869  0.2144  2.0301 -0.8856
17298TIP3   OH273384   6.422   4.132   5.313  0.1701  0.5015  0.0200
17298TIP3    H173385   6.398   4.043   5.339  1.4355  0.0583 -0.2985
17298TIP3    H273386   6.489   4.158   5.376 -0.5238  1.4253  0.4011
17299TIP3   OH273387   6.113   3.364   4.613  0.0318  0.0757  0.1247
17299TIP3    H173388   6.114   3.268   4.623 -0.6217  0.0626  0.0742
17299TIP3    H273389   6.107   3.378   4.519  3.1330  0.1937 -0.1538
17300TIP3   OH273390   4.376   0.571   3.957  0.5092 -0.6217 -0.1342
17300TIP3    H173391   4.306   0.507   3.944  0.8152 -0.5709 -2.6778
17300TIP3    H273392   4.332   0.656   3.953  0.3509 -0.6124  1.3597
17301TIP3   OH273393   6.532   3.005  15.464  0.5209 -0.7466  0.6828
17301TIP3    H173394   6.573   2.939  15.408  0.1157 -1.0437  0.7289
17301TIP3    H273395   6.512   2.958  15.545  0.7431 -0.4207  0.9298
17302TIP3   OH273396   3.364   5.150   0.058  0.0300 -0.1761 -0.4033
17302TIP3    H173397   3.286   5.197   0.085  0.9972  1.6857 -0.7137
17302TIP3    H273398   3.391   5.101   0.136  0.2704  1.5922  0.6697
17303TIP3   OH273399   4.835   1.475   3.675 -0.3471 -0.1324 -0.1045
17303TIP3    H173400   4.821   1.403   3.613 -1.3517 -0.8183  0.8807
17303TIP3    H273401   4.770   1.540   3.651  0.8855  0.7170 -1.3151
17304TIP3   OH273402   1.327   1.447   5.715 -0.0955 -0.1212  0.0106
17304TIP3    H173403   1.353   1.482   5.801 -0.4592 -0.9292  0.4631
17304TIP3    H273404   1.329   1.523   5.657  0.1853  0.4375  0.7265
17305TIP3   OH273405   2.432   0.922   1.926  0.1501  0.0566  0.2858
17305TIP3    H173406   2.429   0.987   1.996 -0.0088 -2.4968  2.8598
17305TIP3    H273407   2.340   0.902   1.908  0.2049  0.2352 -0.2164
17306TIP3   OH273408   6.148   1.620   3.936  0.9015 -0.1824  0.0798
17306TIP3    H173409   6.140   1.707   3.895 -0.7009 -0.2522  0.1730
17306TIP3    H273410   6.215   1.631   4.004  3.4586  0.0135 -2.2713
17307TIP3   OH273411   1.238   1.987   0.810  0.5008  0.4102 -0.1209
17307TIP3    H173412   1.260   2.015   0.899 -0.4731  1.0797 -0.0693
17307TIP3    H273413   1.180   2.056   0.777  1.6202  0.6634 -1.6375
17308TIP3   OH273414   2.180   6.780   2.795 -0.4872 -0.2914  0.0387
17308TIP3    H173415   2.095   6.777   2.838 -0.5262  0.8983  0.0885
17308TIP3    H273416   2.244   6.765   2.866 -0.6580 -2.6419 -0.2278
17309TIP3   OH273417   3.414   0.501  14.820 -0.2702 -0.1363 -0.0752
17309TIP3    H173418   3.469   0.561  14.771  1.0630  0.1336  1.6459
17309TIP3    H273419   3.364   0.454  14.754 -0.2518  1.8034 -1.5439
17310TIP3   OH273420   5.446   3.555  16.680 -0.2668 -0.5211  0.4440
17310TIP3    H173421   5.508   3.501  16.729  1.0164 -1.4143 -2.0074
17310TIP3    H273422   5.501   3.611  16.624 -1.6078  2.1344  1.5766
17311TIP3   OH273423   0.530   3.462  12.820 -0.0327 -0.1256 -0.1458
17311TIP3    H173424   0.610   3.412  12.804  0.0132  0.0494 -0.4892
17311TIP3    H273425   0.523   3.467  12.915  0.1784 -0.4395 -0.1126
17312TIP3   OH273426   5.992   0.047   0.929  0.0787  0.6279 -0.5170
17312TIP3    H173427   5.998   0.106   1.004 -0.1811  1.1309 -0.8955
17312TIP3    H273428   6.058  -0.021   0.948 -1.0344 -0.1097  0.9117
17313TIP3   OH273429   1.661   1.979   4.469 -0.1502  0.5626 -0.2492
17313TIP3    H173430   1.610   1.948   4.544  0.2965 -0.3784 -0.3210
17313TIP3    H273431   1.682   2.070   4.490 -0.3543  0.4257  0.5889
17314TIP3   OH273432   4.741   5.522  17.107 -0.1435 -0.2602  0.2824
17314TIP3    H173433   4.795   5.453  17.070  0.3794 -0.2196  0.9552
17314TIP3    H273434   4.652   5.487  17.105 -0.1992 -0.0783 -1.4254
17315TIP3   OH273435   4.477   2.959   4.217  0.4432  0.0888 -0.1580
17315TIP3    H173436   4.538   2.886   4.217  1.5291  0.9593 -1.7114
17315TIP3    H273437   4.500   3.009   4.296 -0.2698 -1.1595  0.8826
17316TIP3   OH273438   4.601   2.150  14.502  0.2487  0.6186 -0.1683
17316TIP3    H173439   4.613   2.104  14.419  0.4233  0.6271 -0.1476
17316TIP3    H273440   4.582   2.081  14.565 -1.5279  0.7317 -0.5128
17317TIP3   OH273441   2.377   5.579  17.324  0.3008 -0.7142 -0.5835
17317TIP3    H173442   2.423   5.563  17.406 -1.7182  0.5332  0.8873
17317TIP3    H273443   2.436   5.634  17.272  0.1667  1.6382  1.6109
17318TIP3   OH273444   4.334   0.799   5.051 -0.2107 -0.2724  0.0718
17318TIP3    H173445   4.347   0.716   5.004  1.4719  0.0146 -0.0245
17318TIP3    H273446   4.311   0.862   4.983 -1.2748 -0.6016  0.1160
17319TIP3   OH273447   4.118   1.678  15.732 -0.3389  0.2535  0.0463
17319TIP3    H173448   4.205   1.639  15.743 -0.0207  0.3766 -1.7477
17319TIP3    H273449   4.059   1.603  15.724  0.0158  0.1182 -1.5429
17320TIP3   OH273450   2.045   0.732  14.468 -0.1752  0.0336 -0.1356
17320TIP3    H173451   2.079   0.645  14.447  2.4949  0.4589  1.8414
17320TIP3    H273452   1.971   0.716  14.526  0.2432 -0.9401  0.1568
17321TIP3   OH273453   2.463   5.178  11.375  0.3097  0.3695  0.4883
17321TIP3    H173454   2.553   5.203  11.355  0.0939  1.2385  0.5564
17321TIP3    H273455   2.430   5.138  11.295  0.6457  0.3704  0.3495
17322TIP3   OH273456   0.689   2.829   3.173 -0.3387 -0.5650 -0.6033
17322TIP3    H173457   0.683   2.754   3.114 -0.1185  0.4594 -1.9716
17322TIP3    H273458   0.604   2.871   3.167 -0.5004 -0.7445  0.2508
17323TIP3   OH273459   1.714   0.876   0.752  0.2639  0.0133 -0.3135
17323TIP3    H173460   1.672   0.959   0.729  1.4404  1.3099  1.8296
17323TIP3    H273461   1.787   0.868   0.691 -0.2430  0.2066 -0.9546
17324TIP3   OH273462   4.495   5.552  12.572 -0.1615 -0.3953 -0.3890
17324TIP3    H173463   4.534   5.558  12.659 -1.1207 -1.6002  0.1583
17324TIP3    H273464   4.498   5.458  12.552  1.7963  0.0346 -2.5120
17325TIP3   OH273465   2.618   0.502   3.141 -0.0310  0.0853 -0.2756
17325TIP3    H173466   2.534   0.547   3.127 -0.0128 -0.0700 -0.9154
17325TIP3    H273467   2.683   0.573   3.140 -0.0876  0.1354 -0.4384
17326TIP3   OH273468   3.974   5.674   2.832 -0.1123  0.0090  0.2518
17326TIP3    H173469   4.023   5.613   2.776 -0.3718 -1.3788  1.4660
17326TIP3    H273470   3.898   5.624   2.862 -0.2845  0.8903  1.3703
17327TIP3   OH273471   1.733   6.217  17.074 -0.0895 -0.5940 -0.0674
17327TIP3    H173472   1.803   6.276  17.104  1.2035 -2.1488  0.1491
17327TIP3    H273473   1.679   6.203  17.152 -0.5285  0.4188 -0.1699
17328TIP3   OH273474   4.430   5.531  17.231  0.0285  0.2051 -0.1007
17328TIP3    H173475   4.361   5.561  17.290  0.8398  0.9688  0.4765
17328TIP3    H273476   4.392   5.540  17.143 -1.0575 -0.6186  0.2606
17329TIP3   OH273477   5.562   4.057  15.430  0.0367  0.4273  0.5084
17329TIP3    H173478   5.595   4.037  15.343  0.7731 -0.5325  0.9885
17329TIP3    H273479   5.636   4.042  15.489 -0.7265  0.0590  1.4064
17330TIP3   OH273480   2.156   1.804   0.117  0.0406 -0.3159  0.2473
17330TIP3    H173481   2.066   1.810   0.149 -0.1207 -0.0118 -0.2582
17330TIP3    H273482   2.155   1.732   0.054 -0.2274  0.7439 -0.9868
17331TIP3   OH273483   5.200   0.359   5.672 -0.1548  0.9421  0.3425
17331TIP3    H173484   5.215   0.354   5.766 -1.0949 -2.0888  0.4401
17331TIP3    H273485   5.122   0.413   5.662 -0.7542  0.3028  1.4337
17332TIP3   OH273486   5.393   2.680  13.416 -0.2513 -0.5076  0.2040
17332TIP3    H173487   5.333   2.611  13.388  1.3451 -1.5434 -0.8656
17332TIP3    H273488   5.449   2.638  13.481  0.1841  0.0423  0.1911
17333TIP3   OH273489   5.725   1.673  13.550  0.3719  0.5124 -0.6552
17333TIP3    H173490   5.723   1.590  13.597  2.9380  0.2475 -0.9074
17333TIP3    H273491   5.647   1.671  13.495 -0.0698 -1.3322 -0.0248
17334TIP3   OH273492   3.225   3.904  10.905 -0.0374  0.5575  0.1446
17334TIP3    H173493   3.153   3.909  10.968  0.1949  0.7857  0.3916
17334TIP3    H273494   3.182   3.879  10.822 -0.4282  0.9036  0.2400
17335TIP3   OH273495   1.420   2.973  16.704 -0.0337 -0.3432 -0.2074
17335TIP3    H173496   1.368   2.957  16.626  0.0130 -0.3824 -0.2297
17335TIP3    H273497   1.487   2.905  16.703 -0.4902 -0.8187  0.2645
17336TIP3   OH273498   4.687   6.682   1.807  0.2946 -0.2331 -0.4786
17336TIP3    H173499   4.745   6.644   1.741  1.2309 -0.8356  0.6473
17336TIP3    H273500   4.668   6.610   1.867  1.4055  0.7909  1.2151
17337TIP3   OH273501   2.305   3.313   0.404 -0.6246  0.0840  0.2882
17337TIP3    H173502   2.379   3.258   0.378 -0.5745  0.9722 -1.6006
17337TIP3    H273503   2.250   3.256   0.458  0.2159 -1.3344 -0.3069
17338TIP3   OH273504   4.001   1.131  14.102  0.3308  0.2573 -0.2754
17338TIP3    H173505   4.033   1.149  14.013 -1.3835  1.2155 -0.7523
17338TIP3    H273506   4.057   1.185  14.159 -0.0201  1.4453 -1.0168
17339TIP3   OH273507   2.298   5.060   4.255 -0.2985  0.1471 -0.6898
17339TIP3    H173508   2.347   4.982   4.233  0.7521  0.1482  1.4531
17339TIP3    H273509   2.207   5.030   4.261  0.1920 -1.1116  0.9098
17340TIP3   OH273510   5.584   2.754  11.487  0.1473  0.3334 -0.0858
17340TIP3    H173511   5.634   2.715  11.415 -2.2393  0.7020 -2.0661
17340TIP3    H273512   5.629   2.836  11.507  0.3580  0.6608 -1.8025
17341TIP3   OH273513   4.987   6.534   1.995 -0.0699  0.0558 -0.3527
17341TIP3    H173514   4.937   6.611   2.020 -0.8607 -0.1362 -1.2614
17341TIP3    H273515   4.989   6.536   1.899 -1.2151 -1.6934 -0.4772
17342TIP3   OH273516   6.389   6.355   2.300  1.1062 -0.3461  0.5624
17342TIP3    H173517   6.347   6.426   2.252 -1.4727 -2.2215 -0.1673
17342TIP3    H273518   6.359   6.365   2.390 -0.7956 -1.4826  0.1082
17343TIP3   OH273519   1.721   1.311   3.034 -0.0461  0.1100 -0.0509
17343TIP3    H173520   1.780   1.375   2.994  1.6994 -0.1603  1.9011
17343TIP3    H273521   1.678   1.359   3.105 -0.3604 -0.3300  0.0595
17344TIP3   OH273522   0.125   5.867   0.951 -0.0063 -0.3005 -0.2342
17344TIP3    H173523   0.120   5.961   0.969  2.5791  0.2025 -1.7080
17344TIP3    H273524   0.201   5.837   1.000  0.2386 -1.2563 -1.1727
17345TIP3   OH273525   6.353   0.952   6.246 -0.1097 -0.0211  0.2175
17345TIP3    H173526   6.328   1.039   6.278 -0.1821 -0.1176  0.4284
17345TIP3    H273527   6.446   0.959   6.225  0.1834 -0.2195  1.3822
17346TIP3   OH273528   0.481   2.954   1.037  0.1314 -0.5011 -0.2772
17346TIP3    H173529   0.515   2.933   1.124  1.8200  1.9471 -0.2249
17346TIP3    H273530   0.559   2.976   0.986 -0.7691 -2.4591 -2.6426
17347TIP3   OH273531   3.356   0.883  11.824  0.2674 -0.3977 -0.2561
17347TIP3    H173532   3.291   0.923  11.882 -1.1276 -1.8513 -0.7629
17347TIP3    H273533   3.358   0.939  11.747 -0.8763 -0.6901 -0.5098
17348TIP3   OH273534   2.106   4.343   0.167 -0.3297  0.7015 -0.1813
17348TIP3    H173535   2.034   4.309   0.220  1.2924  0.0681  1.7344
17348TIP3    H273536   2.087   4.437   0.159  0.0562  1.1650  2.8802
17349TIP3   OH273537   2.209   4.203   3.044 -0.1703 -0.2589  0.4319
17349TIP3    H173538   2.211   4.188   3.138  1.2244 -0.0135  0.4551
17349TIP3    H273539   2.292   4.169   3.012  0.9211  2.7029 -0.2152
17350TIP3   OH273540   1.906   3.559   3.718  0.3312  0.0072  0.3608
17350TIP3    H173541   1.955   3.550   3.637 -0.8022 -3.3826 -0.0875
17350TIP3    H273542   1.878   3.651   3.719  3.4275  1.0924 -1.1677
17351TIP3   OH273543   1.847   3.928   3.328 -0.6483  0.2907  0.3058
17351TIP3    H173544   1.787   3.860   3.297  0.3679 -0.2177 -0.5938
17351TIP3    H273545   1.933   3.899   3.299 -0.0942  1.5446  0.6466
17352TIP3   OH273546   6.184   5.662   3.346  0.0276 -0.7439  0.0664
17352TIP3    H173547   6.223   5.727   3.404 -1.3493  0.4819 -0.2875
17352TIP3    H273548   6.095   5.650   3.380 -1.4731  1.3382 -2.6403
17353TIP3   OH273549   5.317   4.741   1.263  0.3198  0.6032 -0.1305
17353TIP3    H173550   5.272   4.726   1.347  1.8273 -2.2697  0.2947
17353TIP3    H273551   5.246   4.759   1.202 -0.9517  1.2571  1.4467
17354TIP3   OH273552   1.600   1.094  13.493  0.4470 -0.2047  0.1707
17354TIP3    H173553   1.616   1.013  13.541 -0.7424  0.3363  1.5776
17354TIP3    H273554   1.523   1.075  13.438 -0.9678  0.4221  1.8323
17355TIP3   OH273555   6.051   4.095   4.283 -0.1079  0.3721  0.1171
17355TIP3    H173556   6.100   4.023   4.243 -0.6114 -0.3411  0.7465
17355TIP3    H273557   6.118   4.147   4.328  0.2005 -0.0256  0.1242
17356TIP3   OH273558   5.744   4.290   6.239  0.4007  0.2851  0.1009
17356TIP3    H173559   5.766   4.268   6.148 -0.9639 -1.3726  0.1275
17356TIP3    H273560   5.741   4.205   6.284 -1.0525  0.8860  1.1941
17357TIP3   OH273561   4.863   5.150   4.396 -0.7702  0.4325  0.2622
17357TIP3    H173562   4.924   5.154   4.470 -0.7514  0.7523  0.2318
17357TIP3    H273563   4.879   5.065   4.356  2.0421  1.7424 -1.7439
17358TIP3   OH273564   0.794   3.140   5.776 -0.0256  0.0946 -0.5282
17358TIP3    H173565   0.866   3.181   5.823 -0.3630  0.5617 -0.4109
17358TIP3    H273566   0.763   3.208   5.716 -0.1510 -0.2158 -0.8191
17359TIP3   OH273567   0.271   2.531   2.716  0.0160 -0.1674  0.5143
17359TIP3    H173568   0.184   2.505   2.686 -0.3481  0.2605  1.1849
17359TIP3    H273569   0.330   2.497   2.649 -0.4720 -2.2493  1.0547
17360TIP3   OH273570   0.572   2.409  15.886 -0.0914  0.2657 -0.7771
17360TIP3    H173571   0.660   2.424  15.851  0.5630 -0.5900  0.4334
17360TIP3    H273572   0.556   2.316  15.870  0.3857 -0.2482  1.4484
17361TIP3   OH273573   2.173   6.477   0.610  0.4863 -0.7362  0.0325
17361TIP3    H173574   2.143   6.388   0.590 -0.1227 -0.2200 -1.4675
17361TIP3    H273575   2.097   6.533   0.594  1.7919  0.4685 -2.7787
17362TIP3   OH273576   1.615   0.923  11.288  0.4819 -0.0856  0.3363
17362TIP3    H173577   1.707   0.906  11.309  0.5894  1.1498  0.9960
17362TIP3    H273578   1.567   0.882  11.360  0.5226 -0.6075  0.0685
17363TIP3   OH273579   4.153   4.574   1.074  0.1857  0.0826 -0.2838
17363TIP3    H173580   4.213   4.610   1.139 -1.2179  1.4734  0.3035
17363TIP3    H273581   4.180   4.482   1.065  0.6005 -0.0962  2.0979
17364TIP3   OH273582   5.472   2.530  12.634  0.0560 -0.3050 -0.2712
17364TIP3    H173583   5.466   2.474  12.712  0.9263 -1.1465 -0.7875
17364TIP3    H273584   5.469   2.469  12.560 -1.2584  0.5167 -0.9377
17365TIP3   OH273585   3.118   4.121  12.629 -0.4112  0.3715  0.2752
17365TIP3    H173586   3.212   4.139  12.629 -0.1297 -0.9371  0.9190
17365TIP3    H273587   3.109   4.042  12.575 -1.1015  0.3415  0.4222
17366TIP3   OH273588   2.951   5.087  15.214  0.3351  0.3436 -0.0625
17366TIP3    H173589   2.974   5.087  15.306  0.0037  1.9962  0.0630
17366TIP3    H273590   2.956   5.179  15.188 -0.9467  0.1092 -1.3255
17367TIP3   OH273591   5.344   5.826   4.105 -0.4870  0.1030  0.3299
17367TIP3    H173592   5.310   5.916   4.109  1.0408  0.6821  1.4691
17367TIP3    H273593   5.415   5.830   4.042 -1.3159 -0.6856 -0.7009
17368TIP3   OH273594   0.477   1.282   4.594  0.1350  0.0556 -0.0246
17368TIP3    H173595   0.424   1.215   4.637  0.5078 -1.3439 -1.6475
17368TIP3    H273596   0.413   1.337   4.549 -0.3266  1.9684  2.6913
17369TIP3   OH273597   2.106   2.244   4.669  0.0364  0.1348 -0.0944
17369TIP3    H173598   2.041   2.202   4.726 -0.0598 -1.2414 -1.1732
17369TIP3    H273599   2.125   2.327   4.713 -1.2942 -0.1152  1.0523
17370TIP3   OH273600   5.251   5.712   1.050 -0.0024 -0.3126  0.0639
17370TIP3    H173601   5.220   5.623   1.032 -1.7314 -0.1062  1.7644
17370TIP3    H273602   5.262   5.714   1.145  0.6926  1.1075 -0.0312
17371TIP3   OH273603   6.458   0.062  12.899 -0.3981 -0.0443 -0.2253
17371TIP3    H173604   6.515   0.015  12.960  0.5870  1.9585  0.4937
17371TIP3    H273605   6.398   0.111  12.956  1.2208  2.7020 -0.7232
17372TIP3   OH273606   0.423   0.634  12.364 -0.2208  0.3456 -0.2014
17372TIP3    H173607   0.497   0.574  12.352 -0.1830  0.0314  1.4683
17372TIP3    H273608   0.451   0.715  12.322  1.2162  0.3325  0.6687
17373TIP3   OH273609   3.102   6.691   5.890 -0.6534 -0.1660 -0.2964
17373TIP3    H173610   3.096   6.651   5.977 -0.7928 -0.6181 -0.5104
17373TIP3    H273611   3.017   6.673   5.850 -0.0416 -1.3766 -1.1216
17374TIP3   OH273612   0.918   4.193   0.577 -0.2506  0.5413  0.1515
17374TIP3    H173613   0.960   4.259   0.521 -0.0344  1.7729  1.6973
17374TIP3    H273614   0.935   4.223   0.666  0.0542 -1.7607  0.9270
17375TIP3   OH273615   4.473   1.836  13.925 -0.1084 -0.0467  0.4111
17375TIP3    H173616   4.388   1.880  13.917  0.0894  0.3601  0.5537
17375TIP3    H273617   4.535   1.898  13.888 -0.1545 -1.2945 -1.9525
17376TIP3   OH273618   0.106   1.665  15.744  0.2250  0.3817 -0.7264
17376TIP3    H173619   0.069   1.593  15.693  1.7602 -1.0498  0.0673
17376TIP3    H273620   0.102   1.635  15.835  1.4847  0.9902 -0.4359
17377TIP3   OH273621   6.127   4.032   2.732 -1.2664  0.2656  0.2137
17377TIP3    H173622   6.169   3.990   2.807 -1.8277 -1.0055 -0.1570
17377TIP3    H273623   6.056   3.973   2.708 -1.3794  0.8747 -1.0458
17378TIP3   OH273624   4.774   1.469  14.799  0.3687 -0.3078  0.0153
17378TIP3    H173625   4.700   1.520  14.766  0.6925  0.6572  0.7153
17378TIP3    H273626   4.766   1.474  14.895 -0.5189 -2.9854  0.1700
17379TIP3   OH273627   6.419   6.695   0.206 -0.0012 -0.4679 -0.1650
17379TIP3    H173628   6.332   6.672   0.174 -0.7970  2.0936 -0.0828
17379TIP3    H273629   6.460   6.742   0.134  0.3401  0.4430  0.5875
17380TIP3   OH273630   1.527   5.503  14.707 -0.5056 -0.1475 -0.3152
17380TIP3    H173631   1.537   5.597  14.690  1.6060 -0.1350  0.6788
17380TIP3    H273632   1.454   5.498  14.769  0.8143  1.1158  1.4498
17381TIP3   OH273633   0.660   5.369  14.255  0.0645 -0.1508  0.0187
17381TIP3    H173634   0.707   5.296  14.295 -0.1100 -0.1521  0.2232
17381TIP3    H273635   0.728   5.435  14.238 -0.2683  1.3538  3.6066
17382TIP3   OH273636   3.725   2.868   5.165 -0.4789  0.9589 -0.2627
17382TIP3    H173637   3.659   2.884   5.097 -0.1407  1.2216 -0.5336
17382TIP3    H273638   3.757   2.955   5.189  1.1522  0.7718 -1.5314
17383TIP3   OH273639   5.737   6.742  15.118 -0.3798  0.2029  0.0278
17383TIP3    H173640   5.790   6.783  15.186 -0.3257 -1.7845  1.2543
17383TIP3    H273641   5.728   6.651  15.145 -1.3768 -0.3870 -2.0310
17384TIP3   OH273642   5.358   4.788  17.370  0.2241  0.3307 -0.4366
17384TIP3    H173643   5.443   4.751  17.391 -0.4758 -1.2853 -0.3531
17384TIP3    H273644   5.376   4.849  17.298  1.4872  0.2884 -0.1813
17385TIP3   OH273645   5.858   1.804  14.446  0.0902 -0.2576 -0.2451
17385TIP3    H173646   5.839   1.748  14.522 -0.9834  0.4233  0.0137
17385TIP3    H273647   5.909   1.748  14.388  0.6826 -0.8926  0.8407
17386TIP3   OH273648   5.580   3.171  16.433 -0.1419 -0.2741  0.1608
17386TIP3    H173649   5.617   3.138  16.351  1.0721  1.1094  0.1106
17386TIP3    H273650   5.653   3.167  16.495 -1.2468 -2.0939  1.4731
17387TIP3   OH273651   3.644   3.864   0.830 -0.0754 -0.6670  0.3107
17387TIP3    H173652   3.650   3.924   0.905  1.4902  1.5576 -1.4491
17387TIP3    H273653   3.726   3.814   0.833  0.7851  0.6186 -0.7936
17388TIP3   OH273654   5.784   3.466  14.110  0.8660  0.1963 -1.0076
17388TIP3    H173655   5.754   3.422  14.030 -2.4889 -0.1762  0.3122
17388TIP3    H273656   5.795   3.395  14.173 -1.7825  0.8320  0.3101
17389TIP3   OH273657   6.290   0.897   3.243 -0.4951 -0.3822  0.3708
17389TIP3    H173658   6.290   0.944   3.160  0.2141 -1.3753 -0.2196
17389TIP3    H273659   6.376   0.914   3.280 -1.0484  0.6034  1.2405
17390TIP3   OH273660   3.230   0.606   1.961  0.1254 -0.3185 -0.4714
17390TIP3    H173661   3.273   0.692   1.960 -0.5304  0.0121 -1.3705
17390TIP3    H273662   3.175   0.606   1.883 -0.5156 -1.2382 -0.0349
17391TIP3   OH273663   2.144   2.801  11.467  0.1687  0.0521 -0.5522
17391TIP3    H173664   2.093   2.723  11.444  0.1377 -0.0933  0.0069
17391TIP3    H273665   2.082   2.859  11.510  0.0169  0.7004 -1.6160
17392TIP3   OH273666   2.180   0.625   1.812  0.8593 -0.0624  0.3863
17392TIP3    H173667   2.087   0.648   1.816  1.5705  3.0488  0.9471
17392TIP3    H273668   2.214   0.671   1.736  2.0502 -0.7999  0.4388
17393TIP3   OH273669   5.076   2.464   3.710  0.2331  0.1046  0.5651
17393TIP3    H173670   5.087   2.384   3.760  0.7093 -0.1808  0.0189
17393TIP3    H273671   5.108   2.442   3.622 -0.0076  0.7706  0.3026
17394TIP3   OH273672   1.663   4.198   6.110 -0.3345 -0.0817  0.2170
17394TIP3    H173673   1.700   4.277   6.070  1.4410 -1.2063 -0.4533
17394TIP3    H273674   1.596   4.231   6.171  0.2442  1.9115 -0.1696
17395TIP3   OH273675   5.031   4.743  14.997 -0.2679 -0.1638 -0.4626
17395TIP3    H173676   4.941   4.776  15.009 -0.5737 -1.0372 -0.2869
17395TIP3    H273677   5.022   4.648  15.000  0.8899 -0.2677  1.2680
17396TIP3   OH273678   1.291   0.179   0.799  0.2342 -0.6115  0.4292
17396TIP3    H173679   1.358   0.246   0.789  0.5248 -0.9791 -0.1799
17396TIP3    H273680   1.210   0.221   0.772  0.0445  0.1023  1.9982
17397TIP3   OH273681   2.604   5.715  17.213  0.2031  0.5991  0.0931
17397TIP3    H173682   2.644   5.628  17.222  1.0065  0.8622 -0.8193
17397TIP3    H273683   2.633   5.762  17.291  0.3285  0.2633  0.2533
17398TIP3   OH273684   0.623   3.205  14.067  0.4372  0.4419  0.2383
17398TIP3    H173685   0.588   3.293  14.078 -0.4732 -0.1135  2.1907
17398TIP3    H273686   0.636   3.172  14.156  0.0889 -1.6578 -0.4280
17399TIP3   OH273687   3.560   6.331   5.900 -0.4295 -0.2643 -0.9928
17399TIP3    H173688   3.581   6.422   5.881  0.3447 -0.2931 -0.3409
17399TIP3    H273689   3.473   6.334   5.940  0.7969  0.5801  1.9176
17400TIP3   OH273690   1.672   4.390  12.205  0.1705 -0.2150  0.4440
17400TIP3    H173691   1.733   4.353  12.141 -0.9538 -0.5634 -0.4411
17400TIP3    H273692   1.652   4.316  12.263 -0.2979 -0.3955  0.0506
17401TIP3   OH273693   4.466   2.754  15.987  0.2724  0.6619 -0.2329
17401TIP3    H173694   4.384   2.718  16.021  0.8219 -2.2454 -1.6536
17401TIP3    H273695   4.520   2.770  16.064 -0.4186 -0.6903  0.5663
17402TIP3   OH273696   4.971   3.013   4.610  0.0040  0.0827  0.0447
17402TIP3    H173697   4.997   3.066   4.685 -0.2149  2.1118 -1.2489
17402TIP3    H273698   4.934   3.075   4.548 -2.6620 -1.9114 -0.5486
17403TIP3   OH273699   2.401   5.563  15.201 -0.3928 -0.1299 -0.3872
17403TIP3    H173700   2.315   5.525  15.187 -0.1772 -1.7069  1.9604
17403TIP3    H273701   2.402   5.587  15.294  2.4328 -2.4535  0.3507
17404TIP3   OH273702   3.737   1.224  16.212  0.1863 -0.0091 -0.5152
17404TIP3    H173703   3.648   1.232  16.248  0.2733 -2.5657  0.4841
17404TIP3    H273704   3.729   1.156  16.145  1.1073  0.8352 -1.4998
17405TIP3   OH273705   5.380   2.680   4.202  0.2176 -0.3892  0.1690
17405TIP3    H173706   5.427   2.647   4.278  0.2268  0.6590  0.6337
17405TIP3    H273707   5.448   2.699   4.138  0.3353  0.0640  0.4258
17406TIP3   OH273708   5.367   5.421  15.342  0.0899 -0.2890 -0.4946
17406TIP3    H173709   5.386   5.341  15.293  1.1154 -0.1132 -0.4034
17406TIP3    H273710   5.282   5.450  15.310 -0.5740 -1.7329 -0.1201
17407TIP3   OH273711   1.472   3.639  14.066  0.5613  0.5175  0.0965
17407TIP3    H173712   1.504   3.557  14.102 -2.2999 -1.5653 -1.6819
17407TIP3    H273713   1.517   3.648  13.982  2.3672  1.9593  1.1293
17408TIP3   OH273714   6.441   5.852   3.887  0.7373  0.2087  0.3391
17408TIP3    H173715   6.533   5.865   3.863  1.0506 -1.9838  0.0833
17408TIP3    H273716   6.392   5.901   3.821  1.6888 -1.6067 -1.8655
17409TIP3   OH273717   3.622   2.569   3.644  0.1257  0.1525 -0.2795
17409TIP3    H173718   3.619   2.664   3.636  0.1295  0.0760 -1.2808
17409TIP3    H273719   3.560   2.537   3.578 -1.5004 -0.4976  1.4661
17410TIP3   OH273720   1.066   3.491   0.978  0.6589  0.3179 -0.1132
17410TIP3    H173721   1.137   3.545   0.944 -1.0491  1.6226 -1.8816
17410TIP3    H273722   0.993   3.553   0.989 -0.0127 -0.8046  2.3949
17411TIP3   OH273723   5.764   0.221  14.151 -0.1894 -0.4607  0.0268
17411TIP3    H173724   5.762   0.202  14.245 -2.5825 -0.2183  0.0925
17411TIP3    H273725   5.727   0.143  14.110 -1.7155  0.4727 -0.4447
17412TIP3   OH273726   3.249   2.958  15.827  0.1581 -0.0389  0.3992
17412TIP3    H173727   3.324   3.016  15.839  0.0897 -0.2543  2.1808
17412TIP3    H273728   3.281   2.890  15.767  1.6689 -0.5532  1.7202
17413TIP3   OH273729   2.109   5.952   5.291  0.2489  0.2041 -0.0115
17413TIP3    H173730   2.186   6.003   5.267 -0.9431  1.2809 -1.7844
17413TIP3    H273731   2.128   5.920   5.379  1.6502  2.6064  0.6652
17414TIP3   OH273732   5.039   5.450   5.832 -0.1665  0.5175  0.1733
17414TIP3    H173733   4.984   5.406   5.897 -1.3955  2.2285  0.3510
17414TIP3    H273734   5.112   5.484   5.882  0.8080 -1.2475  0.0341
17415TIP3   OH273735   2.317   6.676   0.265  0.4542 -0.0575 -0.5711
17415TIP3    H173736   2.372   6.716   0.198  0.8703 -0.1340 -0.2773
17415TIP3    H273737   2.227   6.696   0.237  0.6447  1.4662 -0.2192
17416TIP3   OH273738   0.130   1.560  12.030  0.1233  0.1971 -0.2438
17416TIP3    H173739   0.049   1.579  12.077 -0.2416  0.0057 -0.7782
17416TIP3    H273740   0.157   1.643  11.992  0.9658  0.5758  1.1059
17417TIP3   OH273741   0.305   1.677  15.495 -0.0814 -0.5466 -0.1917
17417TIP3    H173742   0.332   1.768  15.501  0.3681 -0.5620 -1.5188
17417TIP3    H273743   0.218   1.679  15.456  1.0110 -0.7206 -2.8685
17418TIP3   OH273744   6.608   4.554  11.535  0.0137  0.3489 -0.0501
17418TIP3    H173745   6.601   4.550  11.631 -2.9494 -0.8973 -0.2065
17418TIP3    H273746   6.570   4.639  11.512 -0.2021  0.2213 -0.1660
17419TIP3   OH273747   1.290   1.379   1.677  0.0342 -0.3245 -0.5020
17419TIP3    H173748   1.213   1.328   1.651 -0.5174 -0.0323  0.5271
17419TIP3    H273749   1.273   1.404   1.767  0.0655  2.1250 -1.1067
17420TIP3   OH273750   3.123   4.651  16.155 -0.0053 -0.3760 -0.0404
17420TIP3    H173751   3.181   4.712  16.110 -0.5439  0.2325  0.0698
17420TIP3    H273752   3.148   4.656  16.247 -1.5432  1.4379  0.3338
17421TIP3   OH273753   1.394   2.273  14.926  0.2258  0.2673 -0.1290
17421TIP3    H173754   1.342   2.275  15.006 -0.7482  0.7780 -0.7565
17421TIP3    H273755   1.343   2.323  14.863  1.2973  0.4409 -0.8834
17422TIP3   OH273756   0.379   4.183  16.122 -0.4556 -0.0333  0.6461
17422TIP3    H173757   0.304   4.185  16.063  0.1458  0.0771 -0.1383
17422TIP3    H273758   0.449   4.228  16.074 -0.0610  0.3956  1.6018
17423TIP3   OH273759   5.917   2.087   3.968  0.0096  0.2756  0.3694
17423TIP3    H173760   5.895   1.995   3.984 -0.9514  0.5110  0.5014
17423TIP3    H273761   5.937   2.091   3.875 -1.9765  0.2779 -0.1096
17424TIP3   OH273762   5.158   5.672  11.555  0.3549  0.1576 -0.0176
17424TIP3    H173763   5.104   5.719  11.618 -0.6839  0.7282 -1.2790
17424TIP3    H273764   5.229   5.734  11.535  0.3615  0.2072  0.1572
17425TIP3   OH273765   1.960   5.192  16.632 -0.5613 -0.2839 -0.7175
17425TIP3    H173766   1.994   5.130  16.697 -1.2351 -0.8800 -0.9245
17425TIP3    H273767   2.006   5.274  16.651 -0.4419 -0.5626  0.2447
17426TIP3   OH273768   2.380   4.826  14.995  0.0004  0.0196  0.8394
17426TIP3    H173769   2.286   4.814  15.012 -0.0537 -0.2318  0.3632
17426TIP3    H273770   2.386   4.840  14.901  0.5204 -0.7863  0.7407
17427TIP3   OH273771   4.963   3.349  16.333 -0.1463  0.4885 -0.2342
17427TIP3    H173772   5.024   3.423  16.343  0.4975 -0.0856  0.2069
17427TIP3    H273773   4.974   3.299  16.414 -1.1334  0.3105 -0.2059
17428TIP3   OH273774   5.614   4.505   0.758 -0.0706 -0.0184 -0.0053
17428TIP3    H173775   5.710   4.496   0.762 -0.2397 -1.7286  0.7229
17428TIP3    H273776   5.601   4.598   0.739  1.7693 -0.3331 -3.6322
17429TIP3   OH273777   0.608   0.337   6.145 -0.6368 -0.1073  0.1866
17429TIP3    H173778   0.566   0.279   6.209 -0.9210 -0.2982 -0.1685
17429TIP3    H273779   0.691   0.361   6.186 -1.3514  0.7841  1.1790
17430TIP3   OH273780   2.243   2.508   0.828 -0.4469 -0.4012 -1.1254
17430TIP3    H173781   2.210   2.539   0.912 -0.8401  0.7537 -1.6726
17430TIP3    H273782   2.321   2.560   0.812  0.1394 -1.2506 -1.0670
17431TIP3   OH273783   2.541   1.775  14.855  0.3661  0.1726 -0.2853
17431TIP3    H173784   2.481   1.764  14.781 -0.5215 -1.1433  0.5862
17431TIP3    H273785   2.492   1.830  14.917  1.0167  1.0838 -0.5669
17432TIP3   OH273786   4.471   3.773  17.166  1.1601  0.1715 -0.4325
17432TIP3    H173787   4.426   3.846  17.123  0.4019 -1.3671 -2.3816
17432TIP3    H273788   4.554   3.811  17.196  0.3414  2.0769 -0.4086
17433TIP3   OH273789   0.901   5.058   2.015  0.2925 -0.5920 -0.1786
17433TIP3    H173790   0.873   5.143   2.047 -0.1956 -1.0410  0.6201
17433TIP3    H273791   0.966   5.028   2.079  1.8561 -0.0473 -1.4109
17434TIP3   OH273792   0.197   1.706  11.118 -0.0932  0.0877  0.3585
17434TIP3    H173793   0.270   1.721  11.058  0.9080 -2.6424  0.7331
17434TIP3    H273794   0.152   1.629  11.083 -2.4356  1.2691  0.5393
17435TIP3   OH273795   2.386   1.143   2.093  0.0507 -0.4257 -0.3196
17435TIP3    H173796   2.398   1.183   2.007  1.7191 -2.0756 -0.9042
17435TIP3    H273797   2.328   1.203   2.139 -0.5081  0.7381 -2.4239
17436TIP3   OH273798   4.600   5.758   0.013  0.1243 -0.3059  0.5512
17436TIP3    H173799   4.640   5.691  -0.043 -1.3788 -1.8522  1.2549
17436TIP3    H273800   4.537   5.802  -0.043  0.8872  0.3569  0.1790
17437TIP3   OH273801   4.769   5.758  11.900 -0.6256 -0.3799 -0.0374
17437TIP3    H173802   4.759   5.667  11.929  1.9033 -0.9288 -0.6321
17437TIP3    H273803   4.774   5.809  11.981 -2.6056 -0.6246  0.2991
17438TIP3   OH273804   2.169   2.499  15.448 -0.4093  0.3464 -0.2984
17438TIP3    H173805   2.136   2.536  15.530 -0.9576  0.1368 -0.4218
17438TIP3    H273806   2.221   2.423  15.476  0.9810  1.3630 -0.0243
17439TIP3   OH273807   2.647   3.372   3.299  0.4193  0.1184 -0.0619
17439TIP3    H173808   2.679   3.320   3.373  1.4300 -0.3319 -0.7796
17439TIP3    H273809   2.582   3.431   3.336 -1.6247 -2.3724  0.6659
17440TIP3   OH273810   1.722   5.221   4.655  0.5323  0.3529  0.2514
17440TIP3    H173811   1.785   5.155   4.685  1.5586  0.9940 -0.4041
17440TIP3    H273812   1.662   5.233   4.728 -0.1128 -1.8139  0.1255
17441TIP3   OH273813   6.764   6.334   0.700 -0.5409 -0.0611  0.5170
17441TIP3    H173814   6.745   6.397   0.769 -2.7837 -0.7076  0.5832
17441TIP3    H273815   6.694   6.269   0.708  0.6703 -1.5819 -0.6879
17442TIP3   OH273816   4.399   3.297  12.915  0.1686  0.3228  0.1377
17442TIP3    H173817   4.420   3.255  12.999  0.3873  0.9826  0.4148
17442TIP3    H273818   4.393   3.224  12.853 -0.5376 -0.2200  0.8326
17443TIP3   OH273819   0.616   5.078  16.561 -0.0438 -0.0304  0.6524
17443TIP3    H173820   0.681   5.127  16.510 -1.9318  2.6112  0.6052
17443TIP3    H273821   0.550   5.051  16.498 -1.1353  1.0617  1.3036
17444TIP3   OH273822   3.281   5.806   2.640 -0.2355 -0.2591  0.6735
17444TIP3    H173823   3.197   5.769   2.611  0.1428 -0.6512  0.0398
17444TIP3    H273824   3.339   5.796   2.564  1.0103 -1.9859  1.7778
17445TIP3   OH273825   5.102   2.708  13.624  0.4167  0.2643  0.0284
17445TIP3    H173826   5.172   2.762  13.588 -0.2519 -0.6835 -2.9318
17445TIP3    H273827   5.146   2.630  13.657  0.8489 -0.1282 -1.4158
17446TIP3   OH273828   0.588   0.356  13.971  0.5217  0.0871 -0.7981
17446TIP3    H173829   0.539   0.437  13.988 -0.0787 -0.0925 -1.6190
17446TIP3    H273830   0.528   0.302  13.920  1.6608 -0.0259 -2.0827
17447TIP3   OH273831   3.845   5.156  12.143  0.1787  0.1368  0.3884
17447TIP3    H173832   3.916   5.217  12.127 -0.1210  0.4345  0.1758
17447TIP3    H273833   3.766   5.204  12.117 -0.0829 -0.2410  0.4781
17448TIP3   OH273834   1.121   6.129   1.685  0.0493 -0.4713  0.0469
17448TIP3    H173835   1.053   6.084   1.735  0.4371 -0.5116  0.5470
17448TIP3    H273836   1.177   6.170   1.751  0.6990 -0.7056 -0.3450
17449TIP3   OH273837   4.255   2.792   6.362 -0.3584  0.1878  0.1873
17449TIP3    H173838   4.194   2.742   6.308 -1.6102 -0.0721  1.7830
17449TIP3    H273839   4.305   2.725   6.410  1.7626  0.3611 -1.6128
17450TIP3   OH273840   4.628   1.511   4.612  0.0916  0.0955 -0.1180
17450TIP3    H173841   4.625   1.415   4.621  0.0583  0.2655  2.3564
17450TIP3    H273842   4.567   1.543   4.678  1.7013  1.8742  0.6054
17451TIP3   OH273843   0.227   4.608   5.332 -0.4916  0.2561  0.6472
17451TIP3    H173844   0.315   4.621   5.295 -1.9219  0.7793 -3.0361
17451TIP3    H273845   0.215   4.680   5.393  1.6744  0.0371  1.4167
17452TIP3   OH273846   6.570   6.056  16.702 -0.0720 -0.5142 -0.0468
17452TIP3    H173847   6.553   6.103  16.620  0.6951 -0.2380 -0.0524
17452TIP3    H273848   6.624   5.981  16.675  1.4679  0.3956  0.3833
17453TIP3   OH273849   4.596   4.869   3.936 -0.2356 -0.0515  0.3073
17453TIP3    H173850   4.576   4.963   3.937 -1.4399 -0.2837  0.0181
17453TIP3    H273851   4.681   4.863   3.893 -0.5188  0.8501 -0.4175
17454TIP3   OH273852   3.889   4.566  13.753  0.3735  0.5559 -0.3076
17454TIP3    H173853   3.841   4.486  13.733  1.0553 -0.0183  0.3004
17454TIP3    H273854   3.827   4.637  13.732 -0.5598 -0.1437  0.0119
17455TIP3   OH273855   1.708   1.171  13.784  0.0431 -0.3908  0.3508
17455TIP3    H173856   1.747   1.087  13.809  0.5801 -0.1772  0.2357
17455TIP3    H273857   1.718   1.225  13.862  0.1240 -0.2857  0.2670
17456TIP3   OH273858   5.643   4.182  11.531  0.1884  0.1628 -0.3264
17456TIP3    H173859   5.644   4.096  11.489 -0.6203 -0.2974  0.5554
17456TIP3    H273860   5.558   4.219  11.510  0.7066  0.9737 -1.0951
17457TIP3   OH273861   4.351   4.854   0.986 -0.6022  0.2136  0.5396
17457TIP3    H173862   4.347   4.891   0.898  2.0238  2.9356  1.4017
17457TIP3    H273863   4.276   4.891   1.032 -0.5854  0.7841  0.1085
17458TIP3   OH273864   4.305   6.151  12.632 -0.6969 -0.3306 -0.3214
17458TIP3    H173865   4.256   6.184  12.707  0.8314  0.1439  0.5138
17458TIP3    H273866   4.357   6.225  12.602  1.4946 -1.4395  0.5148
17459TIP3   OH273867   1.053   0.098   5.997  0.1865  0.3250  0.1518
17459TIP3    H173868   1.078   0.035   6.065 -0.3244  0.9184  0.8977
17459TIP3    H273869   1.098   0.179   6.020 -2.7674  1.6277  1.9069
17460TIP3   OH273870   0.611   1.271   4.050  0.2374  0.3190  0.0203
17460TIP3    H173871   0.695   1.225   4.056 -0.5131 -1.0621  0.5045
17460TIP3    H273872   0.621   1.347   4.107  0.6602 -0.6558  1.2958
17461TIP3   OH273873   2.454   0.712  12.626 -0.0953  0.2438 -0.0869
17461TIP3    H173874   2.523   0.727  12.562 -2.9116 -2.4389 -4.2973
17461TIP3    H273875   2.487   0.641  12.681  1.2883  0.4457 -0.6307
17462TIP3   OH273876   5.191   5.070  16.973 -0.2806  0.7737  0.1203
17462TIP3    H173877   5.248   5.139  17.006  0.3739 -0.2715  1.2502
17462TIP3    H273878   5.105   5.091  17.009  0.0613  0.6266  1.0410
17463TIP3   OH273879   1.903   6.727  16.338  0.1783  0.6870  0.0667
17463TIP3    H173880   1.913   6.659  16.271 -4.2259 -0.2323  0.0653
17463TIP3    H273881   1.932   6.685  16.419 -0.0568 -0.3403 -0.3597
17464TIP3   OH273882   5.455   0.380   4.295 -0.0660  0.1658  0.1227
17464TIP3    H173883   5.482   0.375   4.387  1.5886  0.5393 -0.3260
17464TIP3    H273884   5.533   0.359   4.245 -1.0923 -0.6119 -1.2245
17465TIP3   OH273885   1.436   6.340  17.051 -0.2750  0.2610  0.9151
17465TIP3    H173886   1.499   6.292  17.105 -0.3989 -2.1613 -0.9409
17465TIP3    H273887   1.490   6.395  16.995  0.0076  0.4099  1.3251
17466TIP3   OH273888   0.684   4.591  15.614  0.5063 -0.1720 -0.1532
17466TIP3    H173889   0.624   4.647  15.662  1.0389  1.6925 -1.5160
17466TIP3    H273890   0.767   4.597  15.661  0.7483  0.7942 -0.6833
17467TIP3   OH273891   5.327   1.987  13.314  0.0198  0.4002  0.6971
17467TIP3    H173892   5.269   2.034  13.255  0.7235  0.0864 -0.2598
17467TIP3    H273893   5.389   1.942  13.257 -0.2801 -1.2515  1.6065
17468TIP3   OH273894   1.963   5.128   1.718 -0.0044  0.1089 -0.6911
17468TIP3    H173895   1.913   5.151   1.640 -0.0056  1.9612 -0.1973
17468TIP3    H273896   1.935   5.191   1.784  1.7104  0.1093  0.1027
17469TIP3   OH273897   4.639   2.852   3.807  0.1219 -0.4412 -0.1183
17469TIP3    H173898   4.585   2.834   3.884  1.8136 -1.4316  0.8782
17469TIP3    H273899   4.584   2.827   3.733 -0.7448 -1.5456  0.8706
17470TIP3   OH273900   1.194   3.577   0.587 -0.1148 -0.0632 -0.0131
17470TIP3    H173901   1.237   3.635   0.650  0.6926 -0.1653 -0.4487
17470TIP3    H273902   1.222   3.489   0.615  0.6317 -0.0818 -0.7740
17471TIP3   OH273903   4.355   0.412  16.977  0.1778  0.0281  0.0578
17471TIP3    H173904   4.342   0.440  16.886  0.1436 -1.1507 -0.3085
17471TIP3    H273905   4.441   0.369  16.976  0.0603 -0.2173  0.5266
17472TIP3   OH273906   6.263   3.522  15.391 -0.0629 -0.5484 -0.5406
17472TIP3    H173907   6.280   3.553  15.480  1.3226 -1.4385 -0.4809
17472TIP3    H273908   6.204   3.447  15.403 -2.1899  1.0021 -0.5967
17473TIP3   OH273909   0.958   1.257  13.524 -0.0223 -0.4396 -0.2386
17473TIP3    H173910   0.903   1.253  13.602  1.6076 -0.6997  0.9417
17473TIP3    H273911   0.896   1.268  13.451 -1.6287 -1.0199  0.9941
17474TIP3   OH273912   4.972   0.726  17.277  0.3963  0.6308  0.0402
17474TIP3    H173913   4.924   0.802  17.244 -3.3721 -2.1111 -1.5637
17474TIP3    H273914   4.946   0.720  17.369  0.0217  0.8295 -0.0462
17475TIP3   OH273915   3.991   6.607   1.624  0.2994 -0.1105  0.4663
17475TIP3    H173916   4.032   6.528   1.588  3.0378  0.7514  1.4385
17475TIP3    H273917   3.984   6.666   1.549 -0.5072 -0.7474  0.0151
17476TIP3   OH273918   6.464   5.411   3.626  0.2984 -0.2286  0.0203
17476TIP3    H173919   6.451   5.359   3.705  0.9290  1.3887  1.2298
17476TIP3    H273920   6.522   5.358   3.572 -0.1679 -1.3702  0.6002
17477TIP3   OH273921   0.723   3.823  13.198  0.1868 -0.0812  0.3678
17477TIP3    H173922   0.656   3.806  13.264 -0.0873  0.6665  0.2978
17477TIP3    H273923   0.782   3.887  13.239 -0.3415  0.8712 -0.3205
17478TIP3   OH273924   4.602   2.421  15.713 -0.2379  0.1435  0.1525
17478TIP3    H173925   4.526   2.470  15.680 -0.9330 -2.0295 -1.8021
17478TIP3    H273926   4.567   2.333  15.730  1.6300 -0.6246  0.1900
17479TIP3   OH273927   3.806   0.554  15.288  0.3681  0.1029  0.2482
17479TIP3    H173928   3.845   0.529  15.372  0.0867  0.5062  0.4988
17479TIP3    H273929   3.721   0.591  15.311  0.1071 -0.1784 -0.2491
17480TIP3   OH273930   1.747   1.148   4.005 -0.0534  0.6747  0.2507
17480TIP3    H173931   1.797   1.084   4.055  2.3573  0.7387 -1.8173
17480TIP3    H273932   1.729   1.218   4.067 -0.3233 -0.7533  1.8620
17481TIP3   OH273933   4.458   5.244  15.446  0.3911 -0.2006 -0.0576
17481TIP3    H173934   4.404   5.171  15.477 -0.3089 -0.2625 -1.3604
17481TIP3    H273935   4.402   5.321  15.457 -0.1511 -0.3152 -1.7728
17482TIP3   OH273936   3.580   2.055   0.531 -0.7079 -0.0996  0.5878
17482TIP3    H173937   3.622   1.980   0.488  0.0095  1.0943 -0.9167
17482TIP3    H273938   3.545   2.107   0.459  1.2421  2.4134  1.3240
17483TIP3   OH273939   0.068   3.107  14.728  0.2366  0.6763 -0.1197
17483TIP3    H173940   0.018   3.095  14.809  0.2011  0.4991 -0.1666
17483TIP3    H273941   0.040   3.035  14.672 -0.6584  1.4996 -0.7612
17484TIP3   OH273942   5.188   6.700   4.169  0.1670 -0.1082  0.1231
17484TIP3    H173943   5.229   6.703   4.083  0.3115  0.1173  0.1981
17484TIP3    H273944   5.100   6.735   4.155  0.0584 -0.4361 -0.0074
17485TIP3   OH273945   4.063   5.179  11.849  0.1517 -0.0881 -0.5133
17485TIP3    H173946   4.128   5.109  11.850 -1.2171 -1.4412 -0.9734
17485TIP3    H273947   4.002   5.153  11.779 -0.7050  1.2876 -0.3076
17486TIP3   OH273948   4.227   5.614   0.040  0.9977  0.1421  0.9370
17486TIP3    H173949   4.238   5.663   0.121 -1.5977  0.8344  0.9670
17486TIP3    H273950   4.149   5.653  -0.001  1.4612 -1.0596 -1.2431
17487TIP3   OH273951   4.186   5.533  16.517  0.1678  0.4532 -0.1560
17487TIP3    H173952   4.164   5.600  16.582 -2.1251  0.1183 -0.5216
17487TIP3    H273953   4.134   5.556  16.441  0.9387 -0.5923 -1.0231
17488TIP3   OH273954   1.922   2.721  14.938 -1.1977  0.2376  0.4702
17488TIP3    H173955   1.829   2.728  14.917 -1.7009 -1.2625  1.9852
17488TIP3    H273956   1.945   2.630  14.919 -0.5377  0.0787  1.8336
17489TIP3   OH273957   0.257   6.622   5.102  0.6088 -0.6570  0.0929
17489TIP3    H173958   0.266   6.576   5.185 -0.2620 -3.0496 -1.0367
17489TIP3    H273959   0.281   6.557   5.036 -0.8863  0.4540 -1.6299
17490TIP3   OH273960   1.947   1.689  12.454  0.4834 -0.1431 -0.1564
17490TIP3    H173961   1.980   1.599  12.450  1.5346  0.2593 -1.2874
17490TIP3    H273962   1.870   1.690  12.398  0.1710 -0.4471  0.2630
17491TIP3   OH273963   3.760   1.632  15.512  0.1225  0.4631 -0.4282
17491TIP3    H173964   3.687   1.588  15.469  0.1259 -0.1521  0.1840
17491TIP3    H273965   3.751   1.724  15.486 -2.2475  0.8615  1.4606
17492TIP3   OH273966   2.105   4.064  16.867  0.2066 -0.1356 -0.6817
17492TIP3    H173967   2.191   4.023  16.864 -0.3036 -1.3589  0.4244
17492TIP3    H273968   2.117   4.149  16.824  2.1134  0.0098  0.0443
17493TIP3   OH273969   4.784   6.766  10.130  0.1046 -0.2425 -0.1332
17493TIP3    H173970   4.785   6.678  10.168  0.9064  0.1873  0.8877
17493TIP3    H273971   4.857   6.765  10.068  0.6018 -0.0778  0.4357
17494TIP3   OH273972   4.068   0.923   5.432  0.2784  0.5397  0.3873
17494TIP3    H173973   4.152   0.965   5.415  1.0042 -0.3493  1.5861
17494TIP3    H273974   4.051   0.941   5.525 -0.4136 -0.0244  0.3718
17495TIP3   OH273975   6.746   1.865   2.454  0.4084  0.2432 -0.3417
17495TIP3    H173976   6.677   1.888   2.516  1.8720 -0.3317  1.5811
17495TIP3    H273977   6.787   1.949   2.433 -0.1058  0.4445 -0.5673
17496TIP3   OH273978   3.783   5.355   5.663  0.4933  0.2770 -0.2688
17496TIP3    H173979   3.843   5.323   5.595 -1.1873 -1.4486 -1.0369
17496TIP3    H273980   3.767   5.278   5.718  0.7640  1.3102  1.3176
17497TIP3   OH273981   5.268   6.415   3.491  0.0714 -0.1408  0.4268
17497TIP3    H173982   5.264   6.508   3.515  0.5722  0.3758 -1.3326
17497TIP3    H273983   5.333   6.412   3.421  0.7422 -1.9806  1.0871
17498TIP3   OH273984   3.664   2.156   2.335  0.5778 -0.1658 -0.4144
17498TIP3    H173985   3.612   2.234   2.355  0.8885 -0.1537  0.4107
17498TIP3    H273986   3.609   2.103   2.278 -0.3953 -0.2073  0.5332
17499TIP3   OH273987   0.417   3.182  12.151 -0.4768  0.1278  1.0590
17499TIP3    H173988   0.467   3.124  12.094 -1.2104 -0.3445  0.8847
17499TIP3    H273989   0.409   3.264  12.102  0.6347  0.4232  1.3422
17500TIP3   OH273990   1.585   3.142   2.230 -0.9824  0.1905  0.1961
17500TIP3    H173991   1.622   3.114   2.146 -1.0484 -0.7155  0.4529
17500TIP3    H273992   1.524   3.212   2.207  0.1580  1.0527 -0.3312
17501TIP3   OH273993   5.395   2.551   2.674  0.2619  0.5542 -0.4408
17501TIP3    H173994   5.359   2.622   2.727  3.8796  0.3887  2.5892
17501TIP3    H273995   5.359   2.471   2.713 -0.8216  0.5156 -1.4403
17502TIP3   OH273996   6.299   4.607  15.924  0.1703  0.5122  0.3987
17502TIP3    H173997   6.206   4.608  15.947 -0.2951 -0.6268 -1.2936
17502TIP3    H273998   6.328   4.697  15.941 -2.2143  2.0642 -2.6863
17503TIP3   OH273999   1.970   1.078  14.996  0.0102 -0.1985  0.2965
17503TIP3    H174000   2.026   1.014  15.041 -0.7110 -0.0250  1.4823
17503TIP3    H274001   2.021   1.104  14.919  0.5015 -1.8652  0.0150
17504TIP3   OH274002   1.686   6.418  14.859 -0.3170 -0.5874 -0.1581
17504TIP3    H174003   1.652   6.462  14.781 -1.2497  2.9137  2.0164
17504TIP3    H274004   1.780   6.439  14.859 -0.4023 -0.2025 -0.1056
17505TIP3   OH274005   3.467   0.236  11.764  0.2114  0.5579 -0.1723
17505TIP3    H174006   3.454   0.264  11.673  0.3149  0.2560 -0.2828
17505TIP3    H274007   3.554   0.197  11.764 -0.7323 -1.7192 -0.5273
17506TIP3   OH274008   0.702   0.959  16.151 -0.0904  0.4549 -0.3175
17506TIP3    H174009   0.714   0.871  16.114  0.4718  0.0204  0.8456
17506TIP3    H274010   0.704   1.017  16.075 -0.0814 -0.5015 -1.0686
17507TIP3   OH274011   0.515   1.627  11.288  0.0094 -0.9312 -0.3697
17507TIP3    H174012   0.522   1.619  11.193 -2.2283 -1.1329 -0.5667
17507TIP3    H274013   0.602   1.603  11.320  1.8717  2.1847 -2.4527
17508TIP3   OH274014   4.352   0.140   3.381  0.0183 -0.1355 -0.3157
17508TIP3    H174015   4.422   0.190   3.338  0.8759  0.4221  1.6467
17508TIP3    H274016   4.338   0.066   3.323  2.6024 -0.5368 -0.5654
17509TIP3   OH274017   6.709   3.856   0.615  0.5044  0.3812 -0.9089
17509TIP3    H174018   6.772   3.903   0.560  0.5092 -1.7731 -2.9185
17509TIP3    H274019   6.760   3.785   0.655  0.1182  0.9070  0.5956
17510TIP3   OH274020   4.323   0.779  14.489  0.2551 -0.2200  0.7525
17510TIP3    H174021   4.397   0.827  14.452 -0.4391  1.3000  1.2730
17510TIP3    H274022   4.295   0.831  14.564 -2.3516  0.1485 -0.3702
17511TIP3   OH274023   5.927   3.988   5.886  0.6530 -0.4177  0.5343
17511TIP3    H174024   5.833   3.999   5.900  0.5745 -0.9715  0.4590
17511TIP3    H274025   5.947   4.049   5.814  0.0249 -1.4940 -0.5995
17512TIP3   OH274026   3.825   6.411   1.185 -0.0071 -0.1485  0.3935
17512TIP3    H174027   3.810   6.425   1.278 -1.7510 -0.0299  0.1427
17512TIP3    H274028   3.920   6.405   1.176  0.1682 -1.1962  2.3146
17513TIP3   OH274029   5.204   3.260  13.738 -0.4430 -0.0605  0.2248
17513TIP3    H174030   5.277   3.201  13.761 -0.4076  0.5349  1.8001
17513TIP3    H274031   5.186   3.307  13.820 -0.7293  1.8289 -0.8744
17514TIP3   OH274032   2.005   5.123  14.261 -0.0408  0.2599 -0.2234
17514TIP3    H174033   1.985   5.121  14.167  1.8691 -3.1742 -0.7357
17514TIP3    H274034   1.926   5.090  14.303 -1.3056  2.8353 -0.4152
17515TIP3   OH274035   1.223   4.451  13.489 -0.4245 -0.0308  0.0700
17515TIP3    H174036   1.243   4.544  13.478 -0.9257 -0.0806 -1.5751
17515TIP3    H274037   1.200   4.442  13.581 -1.2528  1.6594  0.0690
17516TIP3   OH274038   5.529   5.307  11.429 -0.5137  0.0147 -0.3932
17516TIP3    H174039   5.562   5.337  11.514 -0.1696 -1.2650 -0.0575
17516TIP3    H274040   5.522   5.388  11.377  4.7354  0.4345 -1.0584
17517TIP3   OH274041   4.028   0.069   4.243  0.4740  0.1444  0.0198
17517TIP3    H174042   3.990   0.007   4.305  1.1987 -0.1238  0.2101
17517TIP3    H274043   3.994   0.154   4.271 -0.5753 -0.1580 -0.2796
17518TIP3   OH274044   3.567   5.955  16.952  0.1027  0.1872  0.6333
17518TIP3    H174045   3.576   5.876  16.899  0.9316 -0.0493  1.1007
17518TIP3    H274046   3.639   6.011  16.923 -0.7328  0.9515  0.0129
17519TIP3   OH274047   0.175   5.008   3.618  0.4507  0.0798 -0.1651
17519TIP3    H174048   0.191   4.961   3.536 -0.9795  0.5031 -0.7199
17519TIP3    H274049   0.212   5.095   3.604 -3.2557  1.6092 -2.0507
17520TIP3   OH274050   1.594   1.786  16.947 -0.1031  0.4770  0.3499
17520TIP3    H174051   1.532   1.820  16.881  0.5184  2.0170  0.5110
17520TIP3    H274052   1.574   1.836  17.026 -0.4886 -0.9938  1.2180
17521TIP3   OH274053   1.387   0.546   3.977  0.2498 -0.3393  0.1396
17521TIP3    H174054   1.298   0.566   4.004  0.1056 -1.9511  0.9605
17521TIP3    H274055   1.393   0.582   3.888 -0.7817  0.9090  0.5398
17522TIP3   OH274056   1.599   3.997  15.767  0.4350 -0.1660 -0.3766
17522TIP3    H174057   1.589   3.996  15.862  0.6830 -1.3856 -0.3390
17522TIP3    H274058   1.692   4.017  15.752  0.3359  0.3034 -0.3767
17523TIP3   OH274059   0.402   5.699   4.485  0.0629 -0.2120 -0.0573
17523TIP3    H174060   0.385   5.706   4.579 -0.2788 -0.1845 -0.1182
17523TIP3    H274061   0.349   5.769   4.446  1.7402  1.1110 -0.1092
17524TIP3   OH274062   2.166   1.698  12.015  0.2868  0.1422  0.0281
17524TIP3    H174063   2.178   1.790  11.991  1.4551  0.8669  2.9694
17524TIP3    H274064   2.079   1.676  11.982  0.5541  1.8150 -2.0185
17525TIP3   OH274065   6.031   3.615  15.999  0.0503  0.3641  0.0739
17525TIP3    H174066   6.076   3.552  16.056  0.8284 -1.1333 -2.0661
17525TIP3    H274067   6.073   3.699  16.017  0.6180 -0.1551  1.3002
17526TIP3   OH274068   6.067   3.329   2.184 -0.5301 -0.8078 -0.6992
17526TIP3    H174069   6.045   3.318   2.091  1.7091 -1.1855 -1.2306
17526TIP3    H274070   6.098   3.243   2.211  3.1461  0.3161 -0.8907
17527TIP3   OH274071   0.895   1.314  14.236  0.3337 -0.6788 -0.1758
17527TIP3    H174072   0.829   1.249  14.261  0.9771 -0.9321  0.9061
17527TIP3    H274073   0.876   1.332  14.144 -0.8280 -1.2403 -0.0688
17528TIP3   OH274074   3.790   4.514   2.054 -0.2703 -0.4876 -0.7415
17528TIP3    H174075   3.802   4.597   2.008 -0.3703  0.0805  0.2473
17528TIP3    H274076   3.749   4.537   2.137 -1.1778 -1.6225 -0.8385
17529TIP3   OH274077   0.388   0.134  16.427  0.3087  0.2621 -0.0887
17529TIP3    H174078   0.298   0.117  16.455  0.2650 -0.2503 -0.5245
17529TIP3    H274079   0.379   0.171  16.339  0.4441  1.7936  0.5167
17530TIP3   OH274080   5.668   3.441   2.707 -0.1067 -0.6093 -0.2076
17530TIP3    H174081   5.587   3.392   2.712 -0.1241 -0.7663 -1.8016
17530TIP3    H274082   5.698   3.431   2.617  1.7559 -0.6617  0.3684
17531TIP3   OH274083   5.065   5.670  15.345  0.0171 -0.1324 -0.2392
17531TIP3    H174084   4.999   5.615  15.388 -1.6967  1.2487 -0.9603
17531TIP3    H274085   5.050   5.758  15.381  0.7522  0.4182 -1.2173
17532TIP3   OH274086   2.120   0.275   1.490 -0.2137 -0.1711  0.1909
17532TIP3    H174087   2.104   0.223   1.568 -2.1712  0.7754  0.4797
17532TIP3    H274088   2.060   0.349   1.497 -0.4433 -0.0377 -2.2073
17533TIP3   OH274089   0.920   0.101  13.061  0.6732 -0.2428  0.2587
17533TIP3    H174090   0.922   0.051  13.143  0.6366 -0.2471  0.2566
17533TIP3    H274091   0.985   0.059  13.005  1.2773  0.2495  0.5760
17534TIP3   OH274092   1.459   5.746   2.025 -0.4843 -0.2836 -0.3646
17534TIP3    H174093   1.378   5.719   2.069 -0.8894  1.1038 -0.2063
17534TIP3    H274094   1.516   5.670   2.031 -1.4852 -1.0136  0.2409
17535TIP3   OH274095   5.786   6.568  14.034 -0.3446  0.7111 -0.6847
17535TIP3    H174096   5.879   6.573  14.055 -0.3075 -1.2236 -0.2731
17535TIP3    H274097   5.744   6.627  14.097  0.4983  0.9088 -0.2910
17536TIP3   OH274098   4.955   2.015  15.367 -0.2871 -0.0450 -0.3695
17536TIP3    H174099   4.932   2.103  15.397 -1.1924 -0.2551 -0.4128
17536TIP3    H274100   5.028   1.989  15.424  0.0059  0.7363 -0.3748
17537TIP3   OH274101   0.224   0.240   2.219 -0.7749  0.4792 -0.1868
17537TIP3    H174102   0.285   0.210   2.287 -0.1325 -0.3502 -1.1074
17537TIP3    H274103   0.144   0.263   2.267 -1.1476 -2.2128  0.6475
17538TIP3   OH274104   0.138   4.371   1.241 -0.5865 -0.2646 -0.4492
17538TIP3    H174105   0.077   4.373   1.314 -0.6422 -1.6088 -0.4428
17538TIP3    H274106   0.111   4.296   1.188  0.3700 -0.2129 -1.0391
17539TIP3   OH274107   5.043   5.847   4.043 -0.0957 -0.1606 -0.0745
17539TIP3    H174108   5.086   5.932   4.037 -0.6081  0.1318  0.3035
17539TIP3    H274109   5.057   5.820   4.134 -0.5214 -0.1639 -0.0088
17540TIP3   OH274110   6.429   5.750  11.565  0.0525  0.3276  0.2025
17540TIP3    H174111   6.512   5.776  11.524 -0.8739 -0.1581 -2.1188
17540TIP3    H274112   6.381   5.831  11.576  0.3898  0.4851  0.5576
17541TIP3   OH274113   6.130   0.873   2.030 -0.2746  0.3046  0.3100
17541TIP3    H174114   6.126   0.955   1.981 -0.8220  0.3229  0.3828
17541TIP3    H274115   6.133   0.805   1.963 -1.2051  0.3194  0.2355
17542TIP3   OH274116   6.639   1.229   3.834  0.0991  0.4646 -0.5904
17542TIP3    H174117   6.645   1.168   3.908 -0.5436 -0.6276 -1.4261
17542TIP3    H274118   6.585   1.301   3.867 -0.5044 -0.1976 -0.1075
17543TIP3   OH274119   1.893   4.582  16.670  0.1217  0.2972 -0.0437
17543TIP3    H174120   1.820   4.572  16.610 -2.0141 -0.6195  2.5196
17543TIP3    H274121   1.901   4.497  16.714  0.6255  1.2931  1.9281
17544TIP3   OH274122   1.551   3.107   0.913  0.3927 -0.1562 -0.1094
17544TIP3    H174123   1.556   3.113   0.818  1.1145 -1.7929 -0.2016
17544TIP3    H274124   1.480   3.166   0.937 -1.0867 -1.1448 -1.8377
17545TIP3   OH274125   5.117   3.080  13.551 -0.3452  0.7229  0.6692
17545TIP3    H174126   5.155   3.158  13.591  0.2065  0.5889  0.4183
17545TIP3    H274127   5.173   3.008  13.581 -0.7229  0.4537  0.7312
17546TIP3   OH274128   1.777   4.477  14.525 -0.0382  0.3410  0.2470
17546TIP3    H174129   1.683   4.458  14.525 -0.5699  2.3606 -1.9905
17546TIP3    H274130   1.794   4.511  14.437  2.4114  1.7028  1.1420
17547TIP3   OH274131   5.834   1.471  17.100  0.3025  0.1073  0.1879
17547TIP3    H174132   5.754   1.418  17.093 -0.4633  1.2201  0.2991
17547TIP3    H274133   5.904   1.411  17.074 -0.6659 -0.6092 -0.8905
17548TIP3   OH274134   3.395   3.780   1.036  0.2107 -0.1581 -0.6886
17548TIP3    H174135   3.335   3.813   1.103  0.6125 -0.7603 -0.0069
17548TIP3    H274136   3.477   3.827   1.053  0.3680 -0.4520 -0.6272
17549TIP3   OH274137   5.907   6.319  12.350  0.0918 -0.0963 -0.4931
17549TIP3    H174138   5.902   6.226  12.329  1.1529 -0.5466  1.0482
17549TIP3    H274139   5.817   6.345  12.368 -0.3551 -0.5405 -1.9866
17550TIP3   OH274140   2.458   4.867  12.361 -0.1565 -0.2494  0.1866
17550TIP3    H174141   2.487   4.817  12.284 -0.1819  1.0939 -0.7288
17550TIP3    H274142   2.535   4.867  12.419 -0.3737 -1.8934  0.5199
17551TIP3   OH274143   5.872   6.644  12.488  0.6374 -0.3573  0.6107
17551TIP3    H174144   5.850   6.636  12.581 -1.2461  1.2166  0.3725
17551TIP3    H274145   5.800   6.599  12.443  0.5066  0.5561 -0.1107
17552TIP3   OH274146   0.190   1.043   2.167  0.1740 -0.2266  0.0932
17552TIP3    H174147   0.256   1.017   2.104  0.4733 -0.3811  0.4648
17552TIP3    H274148   0.186   1.138   2.160 -0.2354 -0.2903 -0.5894
17553TIP3   OH274149   4.616   6.407   5.743  0.4211 -0.1953 -0.2776
17553TIP3    H174150   4.552   6.394   5.674  1.6427 -2.6003 -1.0627
17553TIP3    H274151   4.615   6.501   5.759 -2.0244  0.0498 -1.4417
17554TIP3   OH274152   3.749   3.457   4.969  0.1633 -0.1467  0.0224
17554TIP3    H174153   3.788   3.426   4.887 -0.3268  1.9548 -1.1056
17554TIP3    H274154   3.656   3.471   4.948 -0.1865 -0.5276  1.2400
17555TIP3   OH274155   6.322   1.735   3.015  0.1152 -0.0058  0.3199
17555TIP3    H174156   6.229   1.758   3.015  0.5547  1.9683 -0.0144
17555TIP3    H274157   6.358   1.781   3.090  0.7868 -0.9806  0.6047
17556TIP3   OH274158   1.509   5.124  15.608  0.5451 -0.3918  0.0024
17556TIP3    H174159   1.489   5.058  15.675 -0.3862 -0.7829 -0.6389
17556TIP3    H274160   1.583   5.172  15.644  0.2164 -0.7447  1.2166
17557TIP3   OH274161   1.807   6.093  16.442 -0.2065  0.0935 -0.2345
17557TIP3    H174162   1.838   6.027  16.380  1.8817  0.1867  0.6400
17557TIP3    H274163   1.723   6.121  16.407  0.8979  0.1767 -3.0543
17558TIP3   OH274164   3.039   2.189   3.068 -0.7658  0.4700 -0.4399
17558TIP3    H174165   3.134   2.190   3.077 -0.5552 -0.4723 -2.1611
17558TIP3    H274166   3.006   2.205   3.157  0.9627  2.4222 -0.0727
17559TIP3   OH274167   6.592   2.834   2.784  0.6109 -0.2538 -0.7113
17559TIP3    H174168   6.580   2.762   2.847  2.4558 -0.5844 -0.7075
17559TIP3    H274169   6.665   2.807   2.729  0.7919  1.2579 -1.2605
17560TIP3   OH274170   1.220   1.229   4.681 -0.0336 -0.0221 -0.3478
17560TIP3    H174171   1.258   1.292   4.620  1.2181 -0.8793 -0.4934
17560TIP3    H274172   1.141   1.272   4.713  0.4381  1.3495 -0.9249
17561TIP3   OH274173   6.235   1.934  17.290 -0.1506 -0.2041 -0.4587
17561TIP3    H174174   6.308   1.944  17.351  1.9113  0.7749 -2.8704
17561TIP3    H274175   6.241   1.843  17.260 -0.3584 -0.3223 -0.1400
17562TIP3   OH274176   0.072   2.910  15.704  0.7672 -0.1889 -0.1497
17562TIP3    H174177   0.011   2.963  15.755  3.1477  0.2899  2.4552
17562TIP3    H274178   0.032   2.823  15.700  0.2007 -0.0921  2.1551
17563TIP3   OH274179   3.585   6.108   3.217 -0.3747 -0.2554 -0.4690
17563TIP3    H174180   3.604   6.034   3.275  0.7309  1.1007  0.9806
17563TIP3    H274181   3.608   6.186   3.268 -0.8360  1.0816 -2.1837
17564TIP3   OH274182   5.083   2.152   0.073 -0.1238 -0.2839  0.3357
17564TIP3    H174183   5.031   2.073   0.093  0.6924 -0.9242 -0.0085
17564TIP3    H274184   5.145   2.158   0.145 -1.3680  1.1295  1.3436
17565TIP3   OH274185   5.729   6.451   5.879 -0.3855  0.1296 -0.4484
17565TIP3    H174186   5.774   6.378   5.922 -1.4559 -1.5447 -2.0791
17565TIP3    H274187   5.727   6.520   5.947 -1.2871 -2.0769  1.9178
17566TIP3   OH274188   0.433   4.024  10.731 -0.3882 -0.1919 -0.1565
17566TIP3    H174189   0.449   3.980  10.647 -1.7211 -0.9834 -0.0192
17566TIP3    H274190   0.492   3.979  10.792  0.1084 -0.0524 -0.5202
17567TIP3   OH274191   6.376   0.837  16.576  0.3627  0.0237 -0.2777
17567TIP3    H174192   6.425   0.761  16.547  0.2487 -0.3363  0.4476
17567TIP3    H274193   6.289   0.803  16.598 -0.1320  0.5954 -1.2364
17568TIP3   OH274194   5.970   0.750   4.362  0.1335  0.3459  0.6535
17568TIP3    H174195   6.065   0.743   4.366  0.1901  0.7333  0.0562
17568TIP3    H274196   5.952   0.844   4.368 -0.2023  0.2924  0.5372
17569TIP3   OH274197   5.677   5.717  13.769 -0.5892  0.2190 -0.8139
17569TIP3    H174198   5.750   5.768  13.803 -1.3193  2.4813 -2.4216
17569TIP3    H274199   5.709   5.627  13.768  1.3118  0.8269  0.6836
17570TIP3   OH274200   4.304   5.670  12.780 -0.0702  0.2009  0.4974
17570TIP3    H174201   4.244   5.595  12.775  0.3923 -0.1588  0.2219
17570TIP3    H274202   4.383   5.640  12.734  1.3260 -0.2804  3.0242
17571TIP3   OH274203   2.977   6.362  14.437 -0.0367  0.4197  0.2717
17571TIP3    H174204   2.940   6.314  14.363  0.1813 -0.3943  0.6807
17571TIP3    H274205   3.029   6.431  14.396 -0.1009  0.1252 -0.3301
17572TIP3   OH274206   0.172   6.235  13.560 -0.2679  0.7137  0.5669
17572TIP3    H174207   0.188   6.187  13.479 -0.9069  1.4195  0.0171
17572TIP3    H274208   0.260   6.245  13.599  0.0656  0.5325 -0.1245
17573TIP3   OH274209   5.552   3.138   0.312  0.9014 -0.2101 -0.7626
17573TIP3    H174210   5.472   3.085   0.310  0.1374  0.9116 -1.9049
17573TIP3    H274211   5.610   3.095   0.249  0.6832 -0.2976 -0.9096
17574TIP3   OH274212   3.426   1.068   3.416  0.2277  0.3276  0.4246
17574TIP3    H174213   3.491   1.137   3.427  0.0646  0.7176 -0.8882
17574TIP3    H274214   3.365   1.103   3.351 -0.1353 -0.8484  0.1132
17575TIP3   OH274215   2.762   0.357  13.525 -0.0243  0.0286  0.4127
17575TIP3    H174216   2.787   0.265  13.539  0.9658 -0.1643 -1.9807
17575TIP3    H274217   2.822   0.387  13.457 -2.0785  1.6486 -0.8058
17576TIP3   OH274218   1.428   5.922   2.633  0.5641 -0.0583  0.4777
17576TIP3    H174219   1.462   5.878   2.711  2.8188 -0.8812 -0.8658
17576TIP3    H274220   1.340   5.885   2.620  0.1595  0.0847  2.5467
17577TIP3   OH274221   4.755   0.353   2.602  0.2140 -0.6067 -0.1189
17577TIP3    H174222   4.791   0.439   2.583 -1.5072 -0.0911 -1.2922
17577TIP3    H274223   4.666   0.370   2.634 -0.3154 -1.9367 -0.8003
17578TIP3   OH274224   2.090   1.535  15.735  0.2989 -0.2052  0.5337
17578TIP3    H174225   2.101   1.630  15.737 -0.5659 -0.1130  1.2679
17578TIP3    H274226   2.103   1.511  15.643  1.2039  0.5327  0.4603
17579TIP3   OH274227   4.267   6.526   2.301 -0.5041 -0.0743 -0.5648
17579TIP3    H174228   4.283   6.451   2.358 -1.9168  0.3490  0.4591
17579TIP3    H274229   4.346   6.580   2.309 -0.6980  0.0187  1.1133
17580TIP3   OH274230   5.308   2.187   2.914  0.2919  0.1269 -0.0966
17580TIP3    H174231   5.393   2.154   2.942  1.0696  1.1423 -1.1635
17580TIP3    H274232   5.300   2.158   2.823 -0.6831 -0.2823  0.1108
17581TIP3   OH274233   0.547   1.028  14.813 -0.5912  0.1276  0.6820
17581TIP3    H174234   0.550   0.937  14.786 -0.6417 -0.4211  2.3966
17581TIP3    H274235   0.465   1.036  14.863  0.9515  0.1974  3.4257
17582TIP3   OH274236   2.642   1.701  12.606  0.2303  0.3231 -0.1093
17582TIP3    H174237   2.722   1.753  12.610  0.3432  0.0929  1.4984
17582TIP3    H274238   2.666   1.623  12.557  0.4593  1.1114 -1.2825
17583TIP3   OH274239   3.859   6.202   6.296 -0.2423 -0.2888 -0.0128
17583TIP3    H174240   3.945   6.204   6.254 -0.1669  1.4372  0.1204
17583TIP3    H274241   3.875   6.165   6.383 -0.5797 -4.9993 -1.6824
17584TIP3   OH274242   0.447   4.434   4.856 -1.0392 -0.6416  0.5863
17584TIP3    H174243   0.516   4.369   4.867 -1.0314 -0.6919  0.2517
17584TIP3    H274244   0.384   4.393   4.795 -0.8055 -0.1619  0.0063
17585TIP3   OH274245   5.866   5.314   0.715 -0.4952 -0.3523  0.3722
17585TIP3    H174246   5.798   5.299   0.781 -0.3513  0.6862  0.7857
17585TIP3    H274247   5.874   5.410   0.710  2.4883 -0.3879  1.9948
17586TIP3   OH274248   3.967   1.517   0.205 -0.0911 -0.6442  0.1267
17586TIP3    H174249   3.879   1.528   0.240 -0.1143 -1.7479  0.4589
17586TIP3    H274250   4.009   1.455   0.265  0.8056 -0.3859 -0.2136
17587TIP3   OH274251   1.199   0.071   2.912  0.4225  0.2223 -0.3205
17587TIP3    H174252   1.219   0.150   2.862 -0.0253  1.7907  1.8183
17587TIP3    H274253   1.104   0.063   2.906  0.3837  0.3239  0.1015
17588TIP3   OH274254   5.803   3.185  14.692  0.5572  0.0888 -0.1864
17588TIP3    H174255   5.767   3.256  14.639  1.0670  0.5408  0.0665
17588TIP3    H274256   5.726   3.136  14.721  0.3198 -0.7859 -2.1654
17589TIP3   OH274257   3.946   5.987   0.593 -0.0402  0.2759  0.4655
17589TIP3    H174258   3.919   5.901   0.560 -0.6342  0.2412  1.0388
17589TIP3    H274259   3.911   5.991   0.681 -1.4717  1.7728 -0.1225
17590TIP3   OH274260   5.490   5.438  13.393  0.2914 -0.0753  0.2957
17590TIP3    H174261   5.547   5.427  13.317 -1.7235 -0.1989 -1.2913
17590TIP3    H274262   5.489   5.533  13.408  0.5792 -0.0325  0.0591
17591TIP3   OH274263   2.472   4.342   0.218  0.2883  0.4307 -0.1772
17591TIP3    H174264   2.542   4.302   0.167 -1.2149 -0.2288 -1.8208
17591TIP3    H274265   2.438   4.412   0.163 -0.8386  0.2518  0.2434
17592TIP3   OH274266   2.529   2.973   1.477 -0.1057  0.0042  0.4465
17592TIP3    H174267   2.546   3.066   1.460  3.3515 -0.4658  0.6890
17592TIP3    H274268   2.442   2.958   1.439 -0.7204  3.2560  0.2489
17593TIP3   OH274269   4.499   4.137   6.286  0.1909  0.2708 -0.4071
17593TIP3    H174270   4.464   4.225   6.299  0.2096 -0.0032  1.8619
17593TIP3    H274271   4.429   4.079   6.313  0.5255 -0.4129 -0.9748
17594TIP3   OH274272   3.176   6.220  11.557  0.7609  0.1876 -0.3279
17594TIP3    H174273   3.131   6.142  11.524 -1.0704  0.5783  1.0903
17594TIP3    H274274   3.134   6.293  11.511  1.1951  0.4479 -0.3108
17595TIP3   OH274275   5.075   4.922  11.339  0.5527 -0.2230 -0.4916
17595TIP3    H174276   4.986   4.887  11.348 -0.0437  1.7304  4.4912
17595TIP3    H274277   5.066   4.991  11.273 -1.3445 -0.7877 -0.9024
17596TIP3   OH274278   1.644   4.366   5.526 -0.1135  0.6316  0.0821
17596TIP3    H174279   1.604   4.368   5.613  0.1865 -0.5707  0.2707
17596TIP3    H274280   1.733   4.333   5.541 -1.1985 -3.3515 -1.0027
17597TIP3   OH274281   3.429   6.217  11.698 -0.0613 -0.2088  0.0887
17597TIP3    H174282   3.341   6.205  11.661  0.2141  0.8863 -0.9905
17597TIP3    H274283   3.414   6.266  11.779 -0.3899  0.8903 -0.6122
17598TIP3   OH274284   0.345   4.492  15.356 -0.3002  0.0219 -0.1888
17598TIP3    H174285   0.349   4.510  15.262 -1.8135 -4.2157 -1.3083
17598TIP3    H274286   0.429   4.522  15.391  0.1637  2.0314 -2.7905
17599TIP3   OH274287   3.416   1.711  11.615  0.1907  0.1395  0.1443
17599TIP3    H174288   3.338   1.729  11.563  1.0475  2.5788 -0.4130
17599TIP3    H274289   3.407   1.619  11.641 -3.0027  0.4333  0.4140
17600TIP3   OH274290   6.518   0.219  16.203 -0.2120 -0.0695  0.5636
17600TIP3    H174291   6.583   0.285  16.179  1.2223  0.0893  4.2260
17600TIP3    H274292   6.489   0.183  16.119  3.1886  1.1794 -1.3788
17601TIP3   OH274293   3.167   2.349   5.966  0.2819  0.0243 -0.7148
17601TIP3    H174294   3.224   2.278   5.936  1.7055  0.5672  0.6040
17601TIP3    H274295   3.092   2.304   6.005 -0.3252 -0.6984 -2.5638
17602TIP3   OH274296   3.909   6.609  17.020 -0.6638  0.2452 -0.1734
17602TIP3    H174297   3.823   6.574  16.998 -0.3976 -0.6082  0.1169
17602TIP3    H274298   3.971   6.547  16.983 -0.1791  0.4093  0.3441
17603TIP3   OH274299   3.733   1.120   1.486 -0.1924  0.1323 -0.2454
17603TIP3    H174300   3.767   1.152   1.403  1.0817 -2.1360 -0.6777
17603TIP3    H274301   3.658   1.067   1.463  0.3649 -0.7772  0.0013
17604TIP3   OH274302   0.252   6.007   1.307 -0.5252 -0.6488  0.1438
17604TIP3    H174303   0.229   6.021   1.215 -0.7972 -0.4654  0.2378
17604TIP3    H274304   0.312   6.079   1.328  0.8621 -1.6212 -0.3466
17605TIP3   OH274305   2.073   0.366  11.255  0.0358 -0.6347 -0.3498
17605TIP3    H174306   1.983   0.345  11.276 -0.1026  1.3802  1.4200
17605TIP3    H274307   2.124   0.326  11.325  0.4969 -1.3382 -1.0668
17606TIP3   OH274308   5.423   4.443  13.660 -0.3604 -0.0174  0.0853
17606TIP3    H174309   5.501   4.465  13.609 -0.5601  1.6367  0.4679
17606TIP3    H274310   5.404   4.521  13.711 -1.4580 -0.8906  1.0648
17607TIP3   OH274311   4.202   4.598  12.463  0.6207 -0.2802 -0.3134
17607TIP3    H174312   4.250   4.607  12.546  0.5669 -1.2451 -0.1728
17607TIP3    H274313   4.271   4.590  12.397  0.7188  2.1548 -0.6201
17608TIP3   OH274314   3.709   0.085   3.014 -0.6193  0.3940  0.1863
17608TIP3    H174315   3.637   0.110   2.956 -1.1147 -0.3645  0.4530
17608TIP3    H274316   3.788   0.099   2.962 -1.0811 -0.7381 -0.8700
17609TIP3   OH274317   2.377   1.788   0.682  0.1849  0.2247 -0.0041
17609TIP3    H174318   2.331   1.745   0.755  0.0277  1.5922  0.7279
17609TIP3    H274319   2.309   1.841   0.640  0.6152  0.5857 -0.2392
17610TIP3   OH274320   6.690   5.823   4.932  0.1174 -0.9451 -0.5259
17610TIP3    H174321   6.769   5.800   4.980 -0.1271 -1.1097 -0.1920
17610TIP3    H274322   6.653   5.897   4.980 -0.3402 -1.3656 -0.2157
17611TIP3   OH274323   3.580   5.849  12.459  0.1014  0.5999  0.4382
17611TIP3    H174324   3.627   5.878  12.381  0.4497  0.5056  0.6114
17611TIP3    H274325   3.624   5.894  12.532 -0.1131  0.5571  0.5943
17612TIP3   OH274326   2.620   6.639   0.454 -0.4862 -0.7273  0.5198
17612TIP3    H174327   2.666   6.555   0.455 -0.6156 -0.8239 -0.5011
17612TIP3    H274328   2.531   6.619   0.481 -0.7806 -1.0942 -0.6873
17613TIP3   OH274329   3.308   6.052   1.173  0.2434  0.3529 -0.1745
17613TIP3    H174330   3.262   6.045   1.090 -1.7378  0.4803  0.8697
17613TIP3    H274331   3.292   5.968   1.216  0.4660  0.6369  0.4771
17614TIP3   OH274332   0.499   3.219  15.212 -0.4547 -0.0323 -0.2026
17614TIP3    H174333   0.416   3.231  15.257 -1.4497 -0.8489 -1.7191
17614TIP3    H274334   0.552   3.168  15.272 -0.5980  1.4649  1.2640
17615TIP3   OH274335   1.128   6.083   4.166  0.1160  0.1193 -0.5068
17615TIP3    H174336   1.162   5.993   4.156 -0.6821 -0.3775  0.9372
17615TIP3    H274337   1.205   6.134   4.191  0.8022  0.0947 -2.4145
17616TIP3   OH274338   5.663   6.283   3.377  0.6638  0.0056  0.0380
17616TIP3    H174339   5.751   6.251   3.397  0.7062 -0.8666 -1.3952
17616TIP3    H274340   5.677   6.351   3.311  0.2730 -0.2163 -0.2786
17617TIP3   OH274341   6.067   5.255  14.686  0.1707 -0.7757 -0.7682
17617TIP3    H174342   6.117   5.236  14.607 -0.1539  1.6174 -1.6353
17617TIP3    H274343   6.127   5.232  14.758  0.8646 -1.9823 -1.6866
17618TIP3   OH274344   0.308   1.409   0.846 -0.0014  0.6385 -0.1936
17618TIP3    H174345   0.356   1.338   0.889 -0.4536 -0.9041 -2.0896
17618TIP3    H274346   0.339   1.489   0.889  1.4366 -0.6023  1.1835
17619TIP3   OH274347   6.259   0.979   2.952 -0.3073 -0.1105 -0.8037
17619TIP3    H174348   6.193   0.979   2.883 -0.0936  0.5704 -1.0174
17619TIP3    H274349   6.342   0.971   2.906 -0.0907  1.3945 -0.7215
17620TIP3   OH274350   4.507   2.855   0.904  0.0436 -0.1954  0.7139
17620TIP3    H174351   4.479   2.764   0.895 -1.3949  0.3617 -0.9236
17620TIP3    H274352   4.426   2.905   0.910  0.7302  1.1583 -0.5267
17621TIP3   OH274353   1.100   4.496   5.777  0.5458  0.3171  0.5826
17621TIP3    H174354   1.144   4.503   5.861  1.6826  1.3332 -0.0546
17621TIP3    H274355   1.018   4.545   5.788  1.1266  1.2541  0.8316
17622TIP3   OH274356   6.697   5.718   0.226  0.2130 -0.0112  0.6904
17622TIP3    H174357   6.683   5.811   0.243  0.7480  0.1939  0.0322
17622TIP3    H274358   6.609   5.679   0.232 -0.0129  0.5375  0.9423
17623TIP3   OH274359   4.946   5.912  16.438 -0.2441 -0.0285  0.5175
17623TIP3    H174360   4.878   5.919  16.505 -0.9443 -0.3840 -0.1408
17623TIP3    H274361   4.926   5.829  16.393 -0.4409  0.7318 -0.8285
17624TIP3   OH274362   4.059   1.076   2.846 -0.4413  0.2547  0.2091
17624TIP3    H174363   4.129   1.116   2.899 -0.6453  0.1468  0.5657
17624TIP3    H274364   4.091   1.079   2.756  0.1774 -0.1230  0.4149
17625TIP3   OH274365   0.344   2.383   2.012 -0.0993 -0.4631  0.8691
17625TIP3    H174366   0.304   2.438   2.079  1.7800  1.6297  0.4145
17625TIP3    H274367   0.341   2.437   1.932  1.1660 -1.3010  0.2150
17626TIP3   OH274368   2.745   1.050  14.983  0.3096 -0.4942 -0.0791
17626TIP3    H174369   2.738   1.024  15.075  2.1875 -2.1174 -0.3276
17626TIP3    H274370   2.700   0.980  14.936 -0.1472  0.0337 -0.4209
17627TIP3   OH274371   0.543   0.353   3.836 -0.1689 -0.5487  0.5789
17627TIP3    H174372   0.496   0.344   3.918 -1.7293  0.3946 -0.1539
17627TIP3    H274373   0.479   0.330   3.769  0.7450 -0.2774 -0.4188
17628TIP3   OH274374   2.098   3.306   0.980 -0.4231 -0.2210  0.5003
17628TIP3    H174375   2.149   3.387   0.981  0.5480 -0.8104  1.0208
17628TIP3    H274376   2.127   3.261   0.900 -2.8352  1.0451 -1.1954
17629TIP3   OH274377   6.595   2.017   4.182 -0.6527 -0.4810 -0.6135
17629TIP3    H174378   6.687   2.042   4.181 -0.8859  0.5031  0.4166
17629TIP3    H274379   6.559   2.060   4.260 -2.0619 -0.5404 -1.1947
17630TIP3   OH274380   3.335   6.782   1.372 -0.2156 -0.0130  0.1411
17630TIP3    H174381   3.295   6.752   1.290 -2.6307  0.2848  1.1074
17630TIP3    H274382   3.297   6.869   1.386  0.7346  0.2457  1.2124
17631TIP3   OH274383   4.774   3.613   2.539  1.5652  0.1706  0.2394
17631TIP3    H174384   4.769   3.534   2.485 -0.6584  0.5274 -0.1570
17631TIP3    H274385   4.743   3.586   2.625  2.8023  0.1636  0.7026
17632TIP3   OH274386   4.750   1.350  13.968 -0.0939  0.4524  0.3484
17632TIP3    H174387   4.738   1.442  13.989 -0.1348  0.2694  1.1517
17632TIP3    H274388   4.673   1.326  13.917  0.1570  0.9834 -0.2936
17633TIP3   OH274389   5.551   1.685  11.945 -0.1470 -0.4420  0.2629
17633TIP3    H174390   5.545   1.694  11.850  3.2975 -2.2873 -0.2774
17633TIP3    H274391   5.615   1.750  11.972  0.5901 -1.4147  0.9449
17634TIP3   OH274392   1.484   1.126  16.923  0.1946 -0.2857 -0.0610
17634TIP3    H174393   1.389   1.122  16.914 -0.1544 -0.3058  2.7175
17634TIP3    H274394   1.500   1.204  16.975  1.7095 -0.3458 -0.3930
17635TIP3   OH274395   1.325   5.433  11.419 -0.3273 -0.0133  0.0901
17635TIP3    H174396   1.417   5.453  11.405 -0.2076  0.4619  1.4700
17635TIP3    H274397   1.278   5.503  11.374 -0.0042  0.1942  0.0753
17636TIP3   OH274398   6.712   4.588   3.791 -0.1537  0.1906  0.0884
17636TIP3    H174399   6.699   4.646   3.715 -1.0518 -1.2472 -0.8961
17636TIP3    H274400   6.808   4.581   3.798 -0.0516  0.2986 -0.9506
17637TIP3   OH274401   1.343   6.742   0.870 -0.4538 -0.1902  0.5165
17637TIP3    H174402   1.334   6.829   0.831  1.5027  0.1579  0.7341
17637TIP3    H274403   1.396   6.756   0.949  3.4194 -1.9721 -1.4720
17638TIP3   OH274404   5.739   1.872  11.908  0.0296 -0.1001  0.0556
17638TIP3    H174405   5.709   1.959  11.883 -1.6301 -1.3414 -2.7483
17638TIP3    H274406   5.812   1.853  11.849 -0.1104 -0.8833  0.1151
17639TIP3   OH274407   5.783   0.527   3.853  0.2134 -0.2566  0.9658
17639TIP3    H174408   5.869   0.514   3.892 -0.0275 -0.0344  1.5755
17639TIP3    H274409   5.802   0.553   3.763  0.7650 -0.9198  0.8820
17640TIP3   OH274410   6.576   0.049  16.759  0.2584  0.1444 -0.6904
17640TIP3    H174411   6.660   0.030  16.801  0.6222  2.5137 -0.2185
17640TIP3    H274412   6.600   0.087  16.675 -0.2594  1.7719 -0.1457
17641TIP3   OH274413   6.110   5.463  15.914 -0.5765  0.2727 -0.1944
17641TIP3    H174414   6.029   5.421  15.944 -0.7030  1.6292  1.5073
17641TIP3    H274415   6.085   5.508  15.833 -1.3367  0.0581 -0.0883
17642TIP3   OH274416   0.516   6.442   0.756  0.3911 -0.5284 -0.1023
17642TIP3    H174417   0.568   6.373   0.715  1.1770 -0.4224  0.6866
17642TIP3    H274418   0.580   6.508   0.782 -0.4483  1.1307 -1.9402
17643TIP3   OH274419   1.254   0.701  11.267 -0.2508 -0.1335 -0.7267
17643TIP3    H174420   1.281   0.759  11.338 -1.0142  0.5728 -0.9963
17643TIP3    H274421   1.304   0.620  11.282  0.3659  0.3648  0.0096
17644TIP3   OH274422   4.480   5.398   2.276  0.1294  0.4967 -0.0188
17644TIP3    H174423   4.551   5.374   2.216  0.1061 -0.2584  0.2469
17644TIP3    H274424   4.417   5.444   2.221  0.2220  0.0305 -0.5203
17645TIP3   OH274425   5.158   3.217  12.518  0.0705 -0.4217  0.4437
17645TIP3    H174426   5.098   3.163  12.466 -0.6986  0.1315  0.7435
17645TIP3    H274427   5.125   3.210  12.608 -0.7953  1.5170  0.3227
17646TIP3   OH274428   3.825   3.837  17.341 -0.4145  0.5624  0.0871
17646TIP3    H174429   3.898   3.805  17.394  0.6867  2.2382 -0.3468
17646TIP3    H274430   3.783   3.904  17.395 -0.6337  0.7529 -0.3137
17647TIP3   OH274431   5.324   6.016  12.612  0.0306  0.2696  0.0357
17647TIP3    H174432   5.249   6.065  12.647 -0.6489 -0.3620 -0.4853
17647TIP3    H274433   5.371   6.080  12.558  0.4832  0.9568  1.2095
17648TIP3   OH274434   3.450   0.959   2.347  0.1504 -0.0935  0.1896
17648TIP3    H174435   3.519   0.925   2.289  0.8774 -2.0916  2.0834
17648TIP3    H274436   3.494   0.975   2.430 -1.2552  0.7755  0.8061
17649TIP3   OH274437   1.363   5.522  15.989 -0.4639  0.1745  0.1209
17649TIP3    H174438   1.448   5.508  15.946 -0.6604  2.5259 -1.2399
17649TIP3    H274439   1.378   5.598  16.046 -1.5129  0.2498  0.3066
17650TIP3   OH274440   0.947   5.018  15.462 -0.6380 -0.2193 -0.1027
17650TIP3    H174441   0.989   4.936  15.488  1.1153  0.5828 -0.3134
17650TIP3    H274442   0.877   5.029  15.527  1.4776  0.0087  2.3096
17651TIP3   OH274443   5.176   4.683  12.608  0.0771 -0.8284 -0.2559
17651TIP3    H174444   5.168   4.751  12.674  0.1429 -1.2280  0.1719
17651TIP3    H274445   5.100   4.626  12.624 -0.5855 -0.2766 -1.2951
17652TIP3   OH274446   0.467   4.799   1.452  0.0279  0.0655 -0.0211
17652TIP3    H174447   0.373   4.792   1.468  0.1330 -1.5058  0.0861
17652TIP3    H274448   0.477   4.780   1.359  0.3470 -1.4200  0.2785
17653TIP3   OH274449   6.179   5.470   6.450  0.9781 -0.3603  0.2718
17653TIP3    H174450   6.268   5.501   6.433  0.6230  1.2610  1.2198
17653TIP3    H274451   6.181   5.443   6.542  0.7985 -1.5443 -0.0513
17654TIP3   OH274452   3.355   2.613  11.641  0.4599  0.1873  0.8839
17654TIP3    H174453   3.331   2.701  11.672 -0.0723 -0.5410  2.6879
17654TIP3    H274454   3.288   2.556  11.678  0.1218 -0.8837 -1.2271
17655TIP3   OH274455   1.459   2.328  13.211 -0.5800  0.0831  0.5883
17655TIP3    H174456   1.542   2.364  13.243  0.9518 -1.5913 -1.2197
17655TIP3    H274457   1.465   2.235  13.231 -1.9740 -0.0875  0.2795
17656TIP3   OH274458   6.032   1.480  15.718 -0.0040  0.3228 -0.0314
17656TIP3    H174459   6.034   1.501  15.812  0.2662  2.0983 -0.3953
17656TIP3    H274460   6.123   1.486  15.690 -0.2200  0.9613 -0.6261
17657TIP3   OH274461   1.191   1.883   2.920  0.1167  0.4396  0.0671
17657TIP3    H174462   1.285   1.872   2.930  0.3380  1.9937 -0.0614
17657TIP3    H274463   1.181   1.943   2.845 -1.0412 -0.9308 -0.9198
17658TIP3   OH274464   1.016   2.400   4.253 -0.1168 -0.1670 -0.0217
17658TIP3    H174465   1.097   2.408   4.303 -0.1008 -1.2855  0.1569
17658TIP3    H274466   0.960   2.344   4.306 -0.2551 -1.0403 -1.0450
17659TIP3   OH274467   4.977   4.376  15.618 -0.5878 -0.6122  0.4890
17659TIP3    H174468   4.886   4.346  15.620 -0.5385 -0.7718  0.3590
17659TIP3    H274469   5.027   4.301  15.585 -0.6670  0.1310 -1.4604
17660TIP3   OH274470   4.852   5.319  11.207 -0.1655 -0.5302 -0.1334
17660TIP3    H174471   4.791   5.388  11.232  0.3024 -0.6371  1.3652
17660TIP3    H274472   4.924   5.365  11.163  0.2506 -0.0074  1.0515
17661TIP3   OH274473   1.090   6.319  15.824 -0.4581 -0.0027  0.0495
17661TIP3    H174474   1.033   6.339  15.898 -3.1996 -0.6104 -1.7611
17661TIP3    H274475   1.143   6.398  15.812 -3.1791  1.9204 -0.0878
17662TIP3   OH274476   2.030   6.629  13.387  0.9486  0.0896 -0.3128
17662TIP3    H174477   1.946   6.657  13.353  1.7553  4.2116  0.5590
17662TIP3    H274478   2.086   6.619  13.310 -0.0615 -2.1242 -0.8443
17663TIP3   OH274479   5.500   4.872   2.994 -1.0422 -0.2495  0.6629
17663TIP3    H174480   5.477   4.942   2.933 -2.0294 -1.6781 -0.6784
17663TIP3    H274481   5.460   4.898   3.076  0.0070  1.5427  0.6631
17664TIP3   OH274482   6.629   4.261   4.868 -0.1893  0.2007 -0.3865
17664TIP3    H174483   6.554   4.228   4.819 -0.3638 -1.0454  0.6522
17664TIP3    H274484   6.632   4.206   4.946  0.2415  1.9396  0.8746
17665TIP3   OH274485   4.692   3.525   1.992 -0.4397  0.2397  0.1966
17665TIP3    H174486   4.779   3.499   1.961 -0.3701  1.0237 -0.2923
17665TIP3    H274487   4.648   3.559   1.914 -0.0101  2.9389  1.0366
17666TIP3   OH274488   1.079   2.069   3.385 -0.4304  0.0832 -0.6908
17666TIP3    H174489   1.083   1.984   3.429 -2.8956  0.0634 -0.4011
17666TIP3    H274490   1.096   2.049   3.293 -2.0690 -0.9445 -0.8162
17667TIP3   OH274491   2.494   3.077  11.836  0.1051  0.4794 -0.0555
17667TIP3    H174492   2.405   3.083  11.870  0.3287 -0.1448  0.6727
17667TIP3    H274493   2.488   3.017  11.761 -0.2227  1.0916 -0.5267
17668TIP3   OH274494   4.533   6.006  11.342 -0.0691  0.2043 -0.4549
17668TIP3    H174495   4.560   5.974  11.255  1.3017  1.4692 -0.5343
17668TIP3    H274496   4.451   5.959  11.360  0.9881 -2.1059 -1.2455
17669TIP3   OH274497   3.823   0.508   1.493  0.1685 -0.0154 -0.0093
17669TIP3    H174498   3.839   0.593   1.453 -0.1598 -0.7985 -1.8827
17669TIP3    H274499   3.759   0.526   1.562  0.0851  1.2415 -0.3892
17670TIP3   OH274500   3.419   3.803   3.052 -0.2712  0.0966 -0.0067
17670TIP3    H174501   3.357   3.839   3.115 -0.2119 -0.8032  0.5913
17670TIP3    H274502   3.421   3.867   2.980  0.5666  1.7737  1.4263
17671TIP3   OH274503   6.067   6.256   0.838 -0.1473 -0.1656 -0.4138
17671TIP3    H174504   6.015   6.186   0.798 -0.9932  1.3302 -2.1156
17671TIP3    H274505   6.026   6.336   0.806  0.9284  1.1241  1.2791
17672TIP3   OH274506   4.149   6.283   1.842 -0.4570 -0.3448  0.3564
17672TIP3    H174507   4.142   6.339   1.765 -1.3805 -0.2899  0.4671
17672TIP3    H274508   4.194   6.204   1.811 -1.3153 -0.5625 -0.3806
17673TIP3   OH274509   1.432   4.923  12.712 -0.0249 -0.1703 -0.4144
17673TIP3    H174510   1.388   5.005  12.734  1.7558  0.7272  0.0262
17673TIP3    H274511   1.407   4.905  12.621 -0.8513  0.5807 -0.3417
17674TIP3   OH274512   4.542   5.457   4.162 -0.0350 -0.4875 -0.2051
17674TIP3    H174513   4.572   5.367   4.172 -0.4970 -0.6149  0.0246
17674TIP3    H274514   4.621   5.505   4.136  0.2078 -0.9582 -0.3519
17675TIP3   OH274515   0.727   0.507   2.597  0.2057  0.5965  0.2867
17675TIP3    H174516   0.669   0.467   2.532  2.3528 -1.0671 -0.7579
17675TIP3    H274517   0.764   0.583   2.552  1.0686 -0.0816 -0.1809
17676TIP3   OH274518   2.854   5.922  11.602 -0.1188  0.2866 -0.6629
17676TIP3    H174519   2.780   5.874  11.567 -1.8226  1.2310  1.3986
17676TIP3    H274520   2.898   5.958  11.525 -0.5365 -1.9822 -2.0540
17677TIP3   OH274521   4.481   6.746   4.817 -0.1032 -0.1413 -0.8905
17677TIP3    H174522   4.395   6.716   4.787 -1.2590  0.0205  1.9665
17677TIP3    H274523   4.464   6.788   4.901  2.4955  2.0465 -1.3363
17678TIP3   OH274524   1.524   2.820  12.125 -0.2296 -0.1438  0.2094
17678TIP3    H174525   1.446   2.777  12.161 -1.2029  0.8667 -0.6271
17678TIP3    H274526   1.514   2.912  12.150  0.1395  0.1890 -0.8195
17679TIP3   OH274527   0.915   6.055  11.003  0.2646  0.7156  0.2911
17679TIP3    H174528   0.881   6.144  10.991  0.9376  1.1527  1.3859
17679TIP3    H274529   0.993   6.067  11.057  1.1068 -0.4297 -0.6305
17680TIP3   OH274530   4.735   6.091  14.142  0.1556 -0.5753  0.2103
17680TIP3    H174531   4.672   6.080  14.213  0.0323 -0.8764  0.0557
17680TIP3    H274532   4.762   6.002  14.120  1.7336 -0.4113  1.2578
17681TIP3   OH274533   3.345   2.987   1.418  0.1938 -0.2120 -0.4755
17681TIP3    H174534   3.289   2.963   1.344  1.2968 -2.6853 -0.6210
17681TIP3    H274535   3.285   3.007   1.489 -0.8700  0.4200 -1.5125
17682TIP3   OH274536   4.087   3.688   1.754  0.4997  0.2533  0.6103
17682TIP3    H174537   4.110   3.608   1.800  0.3865 -0.8598 -1.1604
17682TIP3    H274538   4.117   3.759   1.811  0.2910 -1.0191  2.3828
17683TIP3   OH274539   3.402   1.912  13.241 -0.6583  0.1402  0.4157
17683TIP3    H174540   3.491   1.942  13.260 -0.2630 -1.3525  1.0796
17683TIP3    H274541   3.346   1.966  13.297 -0.1336  0.7504  0.3614
17684TIP3   OH274542   3.983   3.945  11.138 -0.3982 -0.4178  0.3302
17684TIP3    H174543   3.987   3.884  11.211  3.1940 -0.6880  0.0648
17684TIP3    H274544   3.928   4.017  11.170 -1.5296 -1.9469  2.0425
17685TIP3   OH274545   0.415   4.854  16.996 -0.3501  0.6711 -0.1944
17685TIP3    H174546   0.365   4.846  17.077 -3.3825  1.5309 -1.8176
17685TIP3    H274547   0.506   4.863  17.024 -0.8828 -1.8899  2.9518
17686TIP3   OH274548   2.584   4.796  13.534  0.4523 -0.4386 -0.0435
17686TIP3    H174549   2.552   4.722  13.483  1.1219  1.5185 -3.6908
17686TIP3    H274550   2.666   4.821  13.490 -0.1264  2.8511  0.5018
17687TIP3   OH274551   0.960   2.864  15.288  0.2666 -0.9185 -0.2749
17687TIP3    H174552   1.026   2.913  15.238 -0.1052 -0.7784 -0.6377
17687TIP3    H274553   0.993   2.775  15.290  0.1640 -0.9783 -1.0017
17688TIP3   OH274554   1.703   3.179   5.741  0.0539 -0.2335 -0.2585
17688TIP3    H174555   1.627   3.219   5.784  1.2412  0.1399  1.5747
17688TIP3    H274556   1.776   3.194   5.801  1.4036 -1.4449 -1.5139
17689TIP3   OH274557   2.294   1.204   4.303 -0.4918  0.4240  0.2642
17689TIP3    H174558   2.314   1.295   4.281 -0.6362  0.5120  0.4905
17689TIP3    H274559   2.280   1.161   4.219 -1.0197  0.7499  0.1777
17690TIP3   OH274560   1.332   3.634  15.176  0.3126  0.1116  0.7365
17690TIP3    H174561   1.381   3.698  15.125 -1.7908  0.3697 -1.0871
17690TIP3    H274562   1.290   3.578  15.111 -1.3331 -0.4360  2.1945
17691TIP3   OH274563   2.262   5.592  14.500  0.7577 -0.4669 -0.2472
17691TIP3    H174564   2.177   5.587  14.544 -0.1031  0.2247 -1.7678
17691TIP3    H274565   2.324   5.605  14.571 -0.4913 -0.2177  0.8445
17692TIP3   OH274566   4.187   6.319   3.719 -0.2204 -0.0695 -0.0789
17692TIP3    H174567   4.121   6.296   3.654  0.7011  1.8818 -1.8304
17692TIP3    H274568   4.206   6.411   3.702  2.2540 -0.3029  0.9731
17693TIP3   OH274569   4.208   3.477   1.891 -0.2824 -0.0629 -0.4753
17693TIP3    H174570   4.296   3.506   1.866 -1.0491  2.4664 -0.4929
17693TIP3    H274571   4.219   3.443   1.980  0.5166  1.4336  0.0384
17694TIP3   OH274572   3.209   0.072  11.516 -0.0357 -0.2238  0.6027
17694TIP3    H174573   3.125   0.028  11.499  0.5348 -1.0483 -0.1895
17694TIP3    H274574   3.263   0.004  11.557 -0.1953  0.7053  2.4522
17695TIP3   OH274575   5.433   0.132  11.601 -0.1302  0.1171  0.1343
17695TIP3    H174576   5.474   0.113  11.685 -2.0317  0.9307  1.3279
17695TIP3    H274577   5.344   0.096  11.609 -0.4107  0.3950 -1.4339
17696TIP3   OH274578   4.255   0.982  13.688  0.0163 -0.1952  0.4525
17696TIP3    H174579   4.209   1.036  13.624 -0.3332 -2.0411 -0.9445
17696TIP3    H274580   4.197   0.907  13.701 -0.9811  1.0209  4.6451
17697TIP3   OH274581   5.856   5.164   2.295  0.2892  0.0893 -0.7780
17697TIP3    H174582   5.784   5.226   2.291  0.2442  0.0629 -0.3637
17697TIP3    H274583   5.882   5.161   2.387 -0.4480 -1.3524 -0.5838
17698TIP3   OH274584   5.864   6.144   5.345  0.1659 -0.8067 -0.1051
17698TIP3    H174585   5.814   6.223   5.366 -0.1198 -0.6628 -1.2456
17698TIP3    H274586   5.874   6.147   5.250  2.1263 -0.9798  0.0643
17699TIP3   OH274587   6.336   6.170  11.864  0.0063  0.9992 -0.1709
17699TIP3    H174588   6.361   6.258  11.838  0.7357  0.6113 -0.8390
17699TIP3    H274589   6.247   6.159  11.829  0.2650  1.1470 -0.8947
17700TIP3   OH274590   4.361   3.653  16.072 -0.1988  0.3952  0.5347
17700TIP3    H174591   4.451   3.623  16.072  0.0557  1.1308  1.5272
17700TIP3    H274592   4.309   3.573  16.064  0.5208 -0.0210 -0.1652
17701TIP3   OH274593   5.551   3.444   0.582 -0.4055 -0.5202 -0.5009
17701TIP3    H174594   5.529   3.352   0.568 -0.1745 -0.7425  0.4957
17701TIP3    H274595   5.466   3.489   0.581 -0.7300 -1.0402  0.9815
17702TIP3   OH274596   5.906   4.628  15.416 -0.0017 -0.3301  0.1893
17702TIP3    H174597   5.933   4.715  15.389 -0.5656 -0.4988 -0.9689
17702TIP3    H274598   5.873   4.640  15.505  1.1853  0.3734  0.5566
17703TIP3   OH274599   1.736   5.417   3.409  0.0787  0.1019 -0.0283
17703TIP3    H174600   1.773   5.333   3.435 -0.4661 -0.5090 -1.1330
17703TIP3    H274601   1.644   5.412   3.435 -1.0850 -1.4222 -3.7249
17704TIP3   OH274602   1.178   1.633  11.993 -0.0165 -0.4317 -0.2573
17704TIP3    H174603   1.122   1.697  12.037 -0.8399 -0.5517 -1.0960
17704TIP3    H274604   1.124   1.599  11.921  1.1874 -0.4525 -1.1797
17705TIP3   OH274605   6.017   3.371  12.037  0.3052  0.4749 -0.4028
17705TIP3    H174606   6.080   3.381  12.109  1.3437 -0.1077 -1.1965
17705TIP3    H274607   6.047   3.433  11.970 -0.1270  0.3786 -0.6895
17706TIP3   OH274608   1.924   0.642  11.424  0.5813  0.2136 -0.6702
17706TIP3    H174609   1.965   0.706  11.366  1.0999  1.9321  1.4607
17706TIP3    H274610   1.833   0.640  11.396  1.4713 -1.9360 -3.9831
17707TIP3   OH274611   0.791   4.954  16.768 -0.1634 -0.6210  0.3057
17707TIP3    H174612   0.731   5.022  16.738  0.6626  1.2557  2.5139
17707TIP3    H274613   0.806   4.899  16.692 -1.4291  1.2756 -1.4181
17708TIP3   OH274614   1.239   1.135  11.584  0.0029 -0.1992  0.4257
17708TIP3    H174615   1.329   1.164  11.568 -0.0840 -0.0310  0.2289
17708TIP3    H274616   1.247   1.071  11.654  0.2394  0.0404  0.6219
17709TIP3   OH274617   6.067   5.835   3.141  0.2451 -0.1307 -0.5949
17709TIP3    H174618   6.126   5.786   3.200  0.3171 -0.6158 -1.0692
17709TIP3    H274619   6.067   5.785   3.060 -1.5663 -0.6560 -0.3114
17710TIP3   OH274620   3.870   3.074  15.607  0.1993  0.3789  0.4231
17710TIP3    H174621   3.920   3.035  15.536  0.8634  0.9754  0.5591
17710TIP3    H274622   3.788   3.102  15.565 -0.1623 -0.8631  0.2642
17711TIP3   OH274623   5.053   1.059  12.677  0.1984  0.1305  0.2763
17711TIP3    H174624   5.126   1.112  12.706 -0.5172  0.8019  0.8773
17711TIP3    H274625   4.975   1.102  12.712 -0.4518 -0.9090  0.1769
17712TIP3   OH274626   3.253   4.468  13.525 -0.1077 -0.3428 -0.3669
17712TIP3    H174627   3.302   4.423  13.594  1.3673 -0.4836 -1.4541
17712TIP3    H274628   3.277   4.560  13.536  0.6157 -0.4451 -1.0606
17713TIP3   OH274629   2.755   2.925  11.681  0.5844 -0.0410  0.1550
17713TIP3    H174630   2.785   3.010  11.714 -0.3264  0.9867 -1.5191
17713TIP3    H274631   2.700   2.947  11.605  1.4211 -2.1821 -1.1618
17714TIP3   OH274632   5.466   2.561   5.022  0.3484 -0.4832  0.2524
17714TIP3    H174633   5.559   2.570   5.003  0.0103  1.0253 -0.8879
17714TIP3    H274634   5.450   2.621   5.095  0.3799 -1.3163  0.9713
17715TIP3   OH274635   2.973   3.607  16.821  0.2887  0.7334 -0.0999
17715TIP3    H174636   2.878   3.610  16.825  0.2980  0.0689  1.0090
17715TIP3    H274637   2.998   3.540  16.885  1.4011 -0.6732 -1.8744
17716TIP3   OH274638   4.811   3.807   9.786  0.0957 -0.1936  0.0330
17716TIP3    H174639   4.862   3.732   9.815 -1.7711 -1.3832  0.3398
17716TIP3    H274640   4.779   3.848   9.866  0.1486  0.2636 -0.1721
17717TIP3   OH274641   1.991   5.662  12.034 -0.3437 -0.5903  0.4050
17717TIP3    H174642   2.043   5.692  12.108  1.2584 -1.7296 -0.1797
17717TIP3    H274643   2.008   5.726  11.965  0.4178 -1.0112  0.1848
17718TIP3   OH274644   6.300   4.889  16.311 -0.5632 -0.4230 -0.6263
17718TIP3    H174645   6.228   4.827  16.321 -1.3110  0.1824 -1.9952
17718TIP3    H274646   6.377   4.842  16.343 -1.1556 -1.9359 -1.3132
17719TIP3   OH274647   2.777   0.690   6.486  0.0280 -0.8536 -0.2571
17719TIP3    H174648   2.809   0.742   6.559  1.5938 -1.6461 -0.3387
17719TIP3    H274649   2.828   0.609   6.490 -1.2594 -1.7381 -1.0491
17720TIP3   OH274650   0.196   1.583   3.276  0.0834  0.0959  0.3841
17720TIP3    H174651   0.189   1.500   3.229  1.2201  0.1624  0.0656
17720TIP3    H274652   0.245   1.561   3.356 -0.3033  0.3190  0.6870
17721TIP3   OH274653   6.791   3.889  13.536 -0.1033  0.8727  0.0264
17721TIP3    H174654   6.714   3.911  13.485 -0.7082 -1.7537 -0.3268
17721TIP3    H274655   6.762   3.820  13.596  1.7840  0.3301  0.4040
17722TIP3   OH274656   2.561   1.666  14.144  0.5178 -0.5610  0.6157
17722TIP3    H174657   2.612   1.742  14.116  0.3480 -0.2890  1.0341
17722TIP3    H274658   2.579   1.599  14.078  0.4881 -0.0841  0.1252
17723TIP3   OH274659   4.288   0.827   0.167 -0.9014 -0.1748 -0.0207
17723TIP3    H174660   4.347   0.784   0.229 -0.5090 -0.6458 -0.7218
17723TIP3    H274661   4.314   0.919   0.170 -0.8030 -0.2112  0.4143
17724TIP3   OH274662   1.249   0.446  16.108 -0.1677  0.0875  0.0512
17724TIP3    H174663   1.343   0.459  16.097  0.2097 -1.7121  0.7874
17724TIP3    H274664   1.224   0.505  16.179  0.6251 -0.2593  0.6135
17725TIP3   OH274665   2.548   4.827   3.426 -0.0195  0.0992 -0.2460
17725TIP3    H174666   2.457   4.802   3.441 -0.4620  1.2863 -0.7644
17725TIP3    H274667   2.553   4.918   3.457  0.8996  0.1540 -0.5193
17726TIP3   OH274668   4.027   1.840  16.144 -0.0534  0.3103 -0.0896
17726TIP3    H174669   4.000   1.753  16.115  0.5720  0.3279 -0.7561
17726TIP3    H274670   3.976   1.900  16.089  0.6911  0.3474 -0.7553
17727TIP3   OH274671   2.882   5.631  12.890  0.1126 -0.5451 -0.4134
17727TIP3    H174672   2.813   5.697  12.904  1.1818  0.0608  2.6184
17727TIP3    H274673   2.836   5.548  12.889 -0.9538  0.0193 -1.4996
17728TIP3   OH274674   1.148   4.538  13.161  1.3798 -0.1193  0.7703
17728TIP3    H174675   1.175   4.608  13.102  0.7826 -0.2604  0.3124
17728TIP3    H274676   1.186   4.561  13.246  2.0587  0.2101  0.3845
17729TIP3   OH274677   6.413   3.926   5.551 -0.3415  0.2519  0.6982
17729TIP3    H174678   6.463   3.941   5.631  0.1131 -0.7772  0.6177
17729TIP3    H274679   6.345   3.993   5.553  0.4855  1.1005  1.2592
17730TIP3   OH274680   2.963   4.753   4.565  1.0253  0.0712 -1.0006
17730TIP3    H174681   2.897   4.691   4.534  1.1393 -0.7890  0.4119
17730TIP3    H274682   2.936   4.837   4.528 -2.1037  0.2089  1.2344
17731TIP3   OH274683   6.653   1.927  15.503  0.1152 -0.2743 -0.1050
17731TIP3    H174684   6.594   1.857  15.534 -1.8290  0.9677 -0.8023
17731TIP3    H274685   6.596   1.985  15.452  1.9558  1.0934 -0.7036
17732TIP3   OH274686   3.339   6.546  16.212  0.0924 -0.2673 -0.1848
17732TIP3    H174687   3.371   6.458  16.194 -1.6408 -1.4250  2.0466
17732TIP3    H274688   3.288   6.569  16.134  3.2568  0.2805 -2.3152
17733TIP3   OH274689   4.636   5.659   0.925 -0.3978 -0.1336 -0.1640
17733TIP3    H174690   4.580   5.661   0.848 -1.3897 -2.2067  0.4323
17733TIP3    H274691   4.721   5.630   0.892  0.1248  2.0166 -0.9033
17734TIP3   OH274692   3.717   5.849   5.797  0.1927  0.3193  0.1094
17734TIP3    H174693   3.713   5.940   5.829  1.9485  0.6645 -0.5728
17734TIP3    H274694   3.651   5.846   5.728 -0.9136  0.6489  1.1176
17735TIP3   OH274695   2.613   0.551  11.904 -0.0329 -0.2132 -0.3440
17735TIP3    H174696   2.708   0.551  11.919 -0.2045 -0.2150  0.8171
17735TIP3    H274697   2.598   0.628  11.850  0.2240  1.9786  2.4760
17736TIP3   OH274698   6.305   2.020  11.324  0.2667  0.1191  0.1046
17736TIP3    H174699   6.271   2.059  11.405  0.6887  1.6579 -0.4285
17736TIP3    H274700   6.388   2.065  11.308 -0.3829  0.7383 -1.8182
17737TIP3   OH274701   5.603   4.462   1.761  0.5332  0.4884 -0.2511
17737TIP3    H174702   5.585   4.542   1.712 -0.4625 -0.5225 -1.5955
17737TIP3    H274703   5.578   4.391   1.702  0.2524 -0.8033  1.3476
17738TIP3   OH274704   5.917   4.001  16.469  0.2624  0.4249  0.0718
17738TIP3    H174705   5.945   3.957  16.388 -0.7016  0.6362 -0.3828
17738TIP3    H274706   5.944   4.092  16.457 -0.1864  0.5285 -0.1618
17739TIP3   OH274707   6.666   3.457   4.732 -0.0310  0.0776  0.5361
17739TIP3    H174708   6.622   3.505   4.662  1.3145  2.1546  1.0338
17739TIP3    H274709   6.649   3.365   4.713 -1.1799  0.6707 -1.5036
17740TIP3   OH274710   6.286   2.615   2.819 -0.1404 -0.3246  0.1709
17740TIP3    H174711   6.215   2.638   2.879 -1.0753  0.0947 -1.0544
17740TIP3    H274712   6.244   2.559   2.754  0.6318 -0.0161 -0.6034
17741TIP3   OH274713   2.090   2.134   2.041  0.4145 -0.1170  1.2183
17741TIP3    H174714   2.092   2.043   2.011 -0.5997  0.1751  0.1684
17741TIP3    H274715   2.093   2.129   2.136  3.2457 -1.1210  1.1531
17742TIP3   OH274716   3.652   4.415   6.056  0.7211 -0.1811 -0.3066
17742TIP3    H174717   3.594   4.484   6.089  1.3870 -0.6725  2.1086
17742TIP3    H274718   3.621   4.335   6.098  1.3287 -0.9785 -1.3200
17743TIP3   OH274719   1.960   5.585   5.106  0.2729  0.3893  0.5686
17743TIP3    H174720   1.955   5.505   5.158 -1.1773  1.6528  2.4992
17743TIP3    H274721   1.872   5.622   5.109  0.6628  1.5789 -1.1126
17744TIP3   OH274722   1.700   3.445   2.803  0.1925 -0.1962 -0.0599
17744TIP3    H174723   1.778   3.499   2.815  1.0837 -1.4568  0.0181
17744TIP3    H274724   1.679   3.452   2.710  1.5803 -1.3570 -0.4960
17745TIP3   OH274725   5.745   2.753   3.448  0.1588  0.8370 -0.3174
17745TIP3    H174726   5.812   2.787   3.507  0.9639 -3.6284  1.7741
17745TIP3    H274727   5.663   2.767   3.494  0.5050 -0.2605  0.6615
17746TIP3   OH274728   1.465   5.461  14.205 -0.0314 -0.0960  0.0312
17746TIP3    H174729   1.447   5.445  14.298 -2.4479  0.1219 -0.3347
17746TIP3    H274730   1.513   5.544  14.204 -0.3075  0.0931  1.0684
17747TIP3   OH274731   1.608   5.397  16.575 -0.0621  0.0274  0.0051
17747TIP3    H174732   1.636   5.451  16.649  0.4328 -1.3498  0.8430
17747TIP3    H274733   1.530   5.351  16.607 -1.2258  1.1273 -1.1204
17748TIP3   OH274734   0.261   0.164  15.459 -0.1651  0.0811 -0.6318
17748TIP3    H174735   0.306   0.211  15.389 -2.9993  1.3558 -1.7429
17748TIP3    H274736   0.228   0.233  15.517  1.0223 -0.9028  1.3668
17749TIP3   OH274737   4.071   5.559   6.510  0.0593 -1.2254 -0.3190
17749TIP3    H174738   4.047   5.479   6.557  0.6333 -0.5422  1.2102
17749TIP3    H274739   4.110   5.616   6.577 -0.1425  0.2634 -1.3996
17750TIP3   OH274740   4.942   6.730  10.492 -0.4016 -0.4359  0.2364
17750TIP3    H174741   5.004   6.685  10.435  0.9959  0.2831  1.1236
17750TIP3    H274742   4.938   6.819  10.458 -0.3293 -0.2689  0.6587
17751TIP3   OH274743   0.965   0.602  15.115  0.5519 -0.4637  0.3443
17751TIP3    H174744   0.887   0.652  15.090  0.0017 -1.9386 -1.0434
17751TIP3    H274745   1.038   0.656  15.085 -0.0107 -0.1401 -0.4863
17752TIP3   OH274746   1.546   5.392   2.370 -0.6195  0.1290  0.2099
17752TIP3    H174747   1.470   5.339   2.393 -0.3632 -0.9374 -1.2317
17752TIP3    H274748   1.592   5.406   2.452 -1.3960 -0.7898  0.8178
17753TIP3   OH274749   0.490   2.297   5.367  0.1601  0.6592  0.3390
17753TIP3    H174750   0.550   2.244   5.419 -0.7433 -1.4978 -0.6928
17753TIP3    H274751   0.545   2.335   5.299  0.7406  0.5834  0.7578
17754TIP3   OH274752   3.583   0.988   2.574  0.5788  0.4282  0.3787
17754TIP3    H174753   3.518   0.992   2.644  0.8762 -0.8322  0.7588
17754TIP3    H274754   3.667   0.996   2.620  0.8520 -1.8699  0.3976
17755TIP3   OH274755   5.863   2.588   3.111 -0.2952  0.5486 -0.2925
17755TIP3    H174756   5.881   2.518   3.048  1.8684  0.6127  0.1704
17755TIP3    H274757   5.863   2.668   3.058 -0.7244  0.3894 -0.5316
17756TIP3   OH274758   5.233   0.013   4.994 -0.3415  0.3507  0.1449
17756TIP3    H174759   5.308   0.055   5.035 -1.0211  2.2803 -0.4722
17756TIP3    H274760   5.183  -0.024   5.066 -0.9205  2.6871  1.0410
17757TIP3   OH274761   4.749   0.332  11.752  0.1985 -0.2265 -0.5909
17757TIP3    H174762   4.832   0.356  11.711  0.8179 -0.3573  0.5303
17757TIP3    H274763   4.708   0.271  11.690  2.1467 -2.2145 -0.0618
17758TIP3   OH274764   4.806   2.906   1.089 -0.2788  0.2390  0.2484
17758TIP3    H174765   4.795   2.934   0.999  0.6142 -0.4131 -0.0768
17758TIP3    H274766   4.736   2.842   1.103  0.0455 -0.2313 -0.2332
17759TIP3   OH274767   0.021   0.730   5.287 -0.2294 -0.3587 -0.6452
17759TIP3    H174768  -0.014   0.756   5.372  1.1931  0.2156 -0.1996
17759TIP3    H274769  -0.055   0.728   5.229 -1.0965  0.0894  0.4448
17760TIP3   OH274770   2.691   5.721  15.133 -0.4472  0.0327 -0.1834
17760TIP3    H174771   2.692   5.651  15.199  1.7634  0.4610  0.3523
17760TIP3    H274772   2.649   5.795  15.177 -0.9872 -0.3484 -0.0477
17761TIP3   OH274773   6.584   5.231   4.387 -0.1478  0.8001 -0.0449
17761TIP3    H174774   6.502   5.240   4.340 -0.1119 -3.0974 -1.1568
17761TIP3    H274775   6.559   5.211   4.477 -0.5112 -1.0230 -0.5198
17762TIP3   OH274776   3.285   5.878  14.568 -0.2600 -0.0891 -0.0764
17762TIP3    H174777   3.308   5.964  14.533 -1.6304  1.6886  2.9374
17762TIP3    H274778   3.231   5.837  14.500 -0.6764  2.0164 -1.0805
17763TIP3   OH274779   1.804   2.818   4.781  0.5191  0.3258 -0.0121
17763TIP3    H174780   1.794   2.725   4.804  0.3664  0.4364  0.3761
17763TIP3    H274781   1.755   2.827   4.699 -1.5446  0.5677  1.1844
17764TIP3   OH274782   4.250   2.177   1.418  0.0540  0.7929 -0.5318
17764TIP3    H174783   4.207   2.091   1.419  0.7396  0.4371  1.5129
17764TIP3    H274784   4.222   2.220   1.498  1.9095  1.3464 -0.1221
17765TIP3   OH274785   1.127   4.697  15.323  0.0803  0.4829  0.0052
17765TIP3    H174786   1.092   4.615  15.357 -0.5585  0.0316 -1.6519
17765TIP3    H274787   1.220   4.695  15.348  0.0029 -0.5890  0.2584
17766TIP3   OH274788   3.942   2.374  13.725  0.0324 -0.5604  0.4757
17766TIP3    H174789   3.912   2.435  13.792 -0.7384 -0.9093  0.4604
17766TIP3    H274790   3.963   2.294  13.774 -2.5458 -1.5441  0.1264
17767TIP3   OH274791   6.416   2.046  10.819 -0.4408 -0.2730  0.0729
17767TIP3    H174792   6.503   2.029  10.855 -0.1533  0.5258 -0.2172
17767TIP3    H274793   6.407   2.141  10.824 -1.4013 -0.3658  0.3236
17768TIP3   OH274794   4.853   5.075   4.046 -0.1531  0.0626  0.2780
17768TIP3    H174795   4.896   5.013   3.987 -1.3162 -0.0791 -0.4602
17768TIP3    H274796   4.779   5.026   4.082 -0.5098  0.7094  0.4509
17769TIP3   OH274797   6.224   2.899  16.030 -0.2895  0.4018  0.2182
17769TIP3    H174798   6.177   2.891  16.113  2.7121 -0.4257  1.9840
17769TIP3    H274799   6.291   2.830  16.033  1.2428  1.6627 -1.9752
17770TIP3   OH274800   2.483   2.167  13.450  0.3705 -0.2112 -0.0461
17770TIP3    H174801   2.462   2.102  13.384  0.6104  1.3417 -1.7406
17770TIP3    H274802   2.432   2.244  13.425  0.9209  0.6119  1.2404
17771TIP3   OH274803   4.492   0.120  12.349 -0.0467  0.5747  0.4979
17771TIP3    H174804   4.514   0.199  12.300  0.4343  0.6093  0.7732
17771TIP3    H274805   4.450   0.063  12.284  1.9490  0.0020 -0.3571
17772TIP3   OH274806   3.787   5.328   5.199  0.1967 -0.3083 -0.0295
17772TIP3    H174807   3.815   5.239   5.219  0.7644  0.1565  1.3566
17772TIP3    H274808   3.839   5.384   5.257 -0.6652  0.8770 -0.3465
17773TIP3   OH274809   1.782   0.744  17.289 -0.3963  0.2426  0.1965
17773TIP3    H174810   1.849   0.695  17.242  0.0847  2.7507 -2.0033
17773TIP3    H274811   1.708   0.684  17.296  1.0767 -1.6454  0.1269
17774TIP3   OH274812   1.241   0.412   5.645 -0.2248  0.0014 -0.0158
17774TIP3    H174813   1.297   0.370   5.710  0.0705 -0.2825 -0.4518
17774TIP3    H274814   1.300   0.438   5.575 -0.4671  0.7731  0.0570
17775TIP3   OH274815   0.856   4.351   0.805 -0.1470  0.0720 -0.2067
17775TIP3    H174816   0.885   4.387   0.889 -1.7345  1.5610 -0.2435
17775TIP3    H274817   0.862   4.425   0.744 -0.9044 -0.4523 -0.9345
17776TIP3   OH274818   4.974   4.008  11.872 -0.3193  0.1576 -0.3310
17776TIP3    H174819   4.965   4.077  11.807  1.4893  0.7408 -0.0194
17776TIP3    H274820   4.887   4.000  11.911 -1.4757 -0.2172 -2.7739
17777TIP3   OH274821   4.896   0.907   5.297  0.6327 -0.3483  0.4118
17777TIP3    H174822   4.944   0.946   5.224  0.0212 -1.2578 -0.4948
17777TIP3    H274823   4.825   0.968   5.315  0.0983 -0.6763 -0.5342
17778TIP3   OH274824   2.179   2.812   1.599 -0.2231  0.5824  0.0226
17778TIP3    H174825   2.206   2.892   1.554 -0.3883 -0.1275 -1.3828
17778TIP3    H274826   2.258   2.781   1.643  0.2191  0.7022 -0.6874
17779TIP3   OH274827   4.752   5.304   6.713  0.2326 -0.0299  0.9113
17779TIP3    H174828   4.795   5.357   6.646  1.3309  0.2323  1.7898
17779TIP3    H274829   4.676   5.356   6.739  1.2260  1.1133  1.6780
17780TIP3   OH274830   6.203   3.641  10.833 -0.2021  0.0695 -0.5412
17780TIP3    H174831   6.108   3.636  10.827 -0.5760  1.4659  2.5797
17780TIP3    H274832   6.222   3.735  10.836  0.8926 -0.1376  2.1437
17781TIP3   OH274833   2.708   5.316  12.345 -0.1976  0.5891 -0.7315
17781TIP3    H174834   2.695   5.271  12.428 -2.7384  1.2568 -0.7128
17781TIP3    H274835   2.680   5.406  12.360  2.5007  1.6510 -1.4416
17782TIP3   OH274836   6.369   3.628  14.912  0.2174  0.3946 -0.2765
17782TIP3    H174837   6.369   3.724  14.905  0.9643  0.4665  0.5365
17782TIP3    H274838   6.323   3.610  14.994  0.1707  0.0625 -0.3748
17783TIP3   OH274839   0.276   3.853  12.068  0.5147  0.7494 -0.3894
17783TIP3    H174840   0.336   3.792  12.111  0.2202  0.0383 -0.9528
17783TIP3    H274841   0.317   3.871  11.983 -0.0491  0.2706 -0.7712
17784TIP3   OH274842   5.653   2.467  16.414 -0.2660 -0.9794  0.4813
17784TIP3    H174843   5.572   2.425  16.444 -0.1917 -1.6128 -0.1629
17784TIP3    H274844   5.684   2.410  16.343 -0.0261  0.0450 -0.2560
17785TIP3   OH274845   2.873   5.978  14.272 -0.1787 -0.1838  0.7152
17785TIP3    H174846   2.791   5.930  14.283  0.0367 -0.4609  1.1320
17785TIP3    H274847   2.923   5.959  14.352 -0.0114  0.5725  0.7989
17786TIP3   OH274848   5.205   2.819   5.962 -0.3479 -0.2879 -0.0275
17786TIP3    H174849   5.150   2.843   6.036 -3.2003 -1.5690 -1.5625
17786TIP3    H274850   5.216   2.901   5.913  0.2679  0.2449  0.9693
17787TIP3   OH274851   5.883   0.132  11.990  0.2043  0.4911 -0.6214
17787TIP3    H174852   5.961   0.186  11.974  0.5427  0.1079 -0.3141
17787TIP3    H274853   5.809   0.189  11.970  0.5516  1.1612 -0.0379
17788TIP3   OH274854   1.501   6.411  12.972 -0.2991 -0.1221  0.5928
17788TIP3    H174855   1.469   6.443  12.888 -0.7024  0.2329  0.8772
17788TIP3    H274856   1.439   6.343  12.997 -0.2811 -0.1029  0.6900
17789TIP3   OH274857   3.409   2.706   3.209 -0.2828 -0.1552  0.4790
17789TIP3    H174858   3.487   2.656   3.234 -0.2074 -0.9584 -1.2328
17789TIP3    H274859   3.428   2.737   3.121 -0.3546  2.9296  1.4241
17790TIP3   OH274860   4.630   4.616  11.929  0.1701 -0.4723  0.7956
17790TIP3    H174861   4.609   4.684  11.994  0.1704  1.2327 -0.9017
17790TIP3    H274862   4.723   4.596  11.945 -0.3064 -1.5688  2.5631
17791TIP3   OH274863   6.639   2.236   1.144 -0.7281 -0.5175 -0.5365
17791TIP3    H174864   6.680   2.155   1.114 -2.1509 -0.9484 -1.3806
17791TIP3    H274865   6.601   2.275   1.065 -0.3465  0.8298 -0.0920
17792TIP3   OH274866   3.019   3.444  15.292  0.5637 -0.8342 -0.2698
17792TIP3    H174867   2.925   3.441  15.311  0.2087 -0.4416 -1.8720
17792TIP3    H274868   3.041   3.354  15.267  0.5647 -0.8555 -0.1959
17793TIP3   OH274869   2.347   0.434  15.484  0.6758 -0.7804 -0.2577
17793TIP3    H174870   2.418   0.389  15.439  1.5229  1.2987 -1.1145
17793TIP3    H274871   2.379   0.446  15.574  2.0055  1.1929 -0.9308
17794TIP3   OH274872   0.892   1.042   4.331 -0.3798 -0.3562  0.4143
17794TIP3    H174873   0.915   0.952   4.355  0.1236 -0.4600 -0.4261
17794TIP3    H274874   0.826   1.068   4.395 -2.0869 -2.0506 -0.5677
17795TIP3   OH274875   2.565   3.023   1.756 -0.3046  0.4088 -0.2839
17795TIP3    H174876   2.581   3.048   1.665 -1.4606 -2.2422 -1.3343
17795TIP3    H274877   2.513   2.943   1.749 -0.1346 -0.0628  2.7388
17796TIP3   OH274878   3.117   6.642   3.132  0.0727 -0.3145 -0.8918
17796TIP3    H174879   3.115   6.611   3.222  2.9095 -0.4368 -0.7567
17796TIP3    H274880   3.179   6.715   3.134  1.1122 -1.0581 -2.8716
17797TIP3   OH274881   1.061   4.030   4.766 -0.4823  0.5730  0.1927
17797TIP3    H174882   1.155   4.034   4.750 -0.5826  1.3837 -0.2350
17797TIP3    H274883   1.042   3.936   4.774 -0.3142  0.0135 -3.9382
17798TIP3   OH274884   2.049   2.986   3.596  0.2202 -0.2296  0.1524
17798TIP3    H174885   2.094   3.066   3.621  0.2933  0.1946 -1.2319
17798TIP3    H274886   2.119   2.924   3.576  0.1637 -0.5602  0.9447
17799TIP3   OH274887   2.575   6.194   2.841 -0.0429 -0.5668  0.3680
17799TIP3    H174888   2.554   6.108   2.802  2.4198 -1.1869  0.2333
17799TIP3    H274889   2.575   6.254   2.766 -1.2716 -0.5116  0.3865
17800TIP3   OH274890   0.377   4.183   3.129 -0.4893  0.2113 -0.5493
17800TIP3    H174891   0.284   4.164   3.123 -1.2153  2.7484  1.3422
17800TIP3    H274892   0.386   4.270   3.090  1.1328 -0.0376 -0.7985
17801TIP3   OH274893   0.443   3.671   4.583 -0.0569  0.4934  0.4232
17801TIP3    H174894   0.388   3.731   4.633 -3.0118 -2.3142  0.9493
17801TIP3    H274895   0.452   3.594   4.640 -0.2089 -1.2668 -1.7883
17802TIP3   OH274896   2.256   3.401  13.718 -0.0709  0.5779 -0.3189
17802TIP3    H174897   2.265   3.323  13.663 -0.3476  1.5660 -1.8223
17802TIP3    H274898   2.261   3.474  13.657 -1.1423  1.7059  0.8800
17803TIP3   OH274899   1.347   6.272   4.874  0.4490 -0.2821 -0.3068
17803TIP3    H174900   1.319   6.335   4.808  0.3690 -0.5903 -0.5730
17803TIP3    H274901   1.294   6.194   4.857 -1.8662  0.6176  2.0683
17804TIP3   OH274902   5.153   2.147   4.838 -0.3534 -0.1639 -0.0928
17804TIP3    H174903   5.175   2.054   4.832 -1.0989 -0.4194  0.9592
17804TIP3    H274904   5.198   2.177   4.917  1.1578  0.7605 -1.2548
17805TIP3   OH274905   5.419   2.509   5.325  0.0376  0.6797 -0.5302
17805TIP3    H174906   5.359   2.517   5.399  0.3666  1.6349 -0.3586
17805TIP3    H274907   5.500   2.551   5.355  0.2490  0.8678 -1.3523
17806TIP3   OH274908   4.193   4.153  12.580 -0.0727  0.1330 -0.0423
17806TIP3    H174909   4.206   4.126  12.671 -0.4262 -1.2319 -0.3672
17806TIP3    H274910   4.098   4.165  12.572 -0.1752 -0.8317 -0.4845
17807TIP3   OH274911   6.344   2.146  12.638  0.3582  0.3160  0.0986
17807TIP3    H174912   6.417   2.087  12.660 -0.2369 -0.1687  0.8245
17807TIP3    H274913   6.265   2.095  12.659 -0.2035  2.0822  2.7635
17808TIP3   OH274914   2.639   4.963  11.297  0.0154  0.0397 -0.1463
17808TIP3    H174915   2.682   5.046  11.318  2.8221 -1.1823 -0.5931
17808TIP3    H274916   2.618   4.969  11.204  1.8180 -0.3267 -0.6192
17809TIP3   OH274917   2.169   2.127   4.259  0.5612 -0.0566  0.5046
17809TIP3    H174918   2.227   2.054   4.284  1.5088  0.6756  0.5136
17809TIP3    H274919   2.186   2.140   4.166 -0.1175 -0.2867  0.3435
17810TIP3   OH274920   1.049   4.187   5.016 -0.2791 -0.5895 -0.4030
17810TIP3    H174921   1.052   4.123   4.946  2.5711 -0.5876 -0.3664
17810TIP3    H274922   1.110   4.256   4.989 -2.2548  1.5235  0.1658
17811TIP3   OH274923   2.982   2.556   1.106  0.2832 -0.0211  0.8055
17811TIP3    H174924   3.000   2.462   1.093  0.2073  0.1213 -0.4640
17811TIP3    H274925   3.018   2.598   1.029  0.2868  1.0094  1.3535
17812TIP3   OH274926   2.584   4.065   1.471 -0.5387 -0.0145  0.2150
17812TIP3    H174927   2.664   4.036   1.515 -0.7906 -1.4450 -0.2088
17812TIP3    H274928   2.513   4.021   1.518 -0.9933  0.3560 -0.1100
17813TIP3   OH274929   6.651   5.105  12.287  0.0170 -0.3059 -0.5864
17813TIP3    H174930   6.721   5.052  12.251  0.3261 -0.0806 -0.3249
17813TIP3    H274931   6.686   5.194  12.290 -0.2433 -0.2057 -0.3730
17814TIP3   OH274932   5.738   5.950  11.979  0.5846  0.0594 -0.4046
17814TIP3    H174933   5.808   5.984  12.034 -0.2862 -0.4089  1.0365
17814TIP3    H274934   5.681   5.902  12.038 -0.7062  0.0078 -1.6182
17815TIP3   OH274935   6.608   6.185   2.791  0.4523  0.2173  0.7018
17815TIP3    H174936   6.589   6.249   2.722  0.3478 -0.4819  0.0665
17815TIP3    H274937   6.696   6.153   2.770 -0.0932 -0.9579  0.1068
17816TIP3   OH274938   0.078   4.010   0.479 -0.1337 -0.7352  0.7278
17816TIP3    H174939   0.165   3.971   0.471  0.9341  1.4995  0.4327
17816TIP3    H274940   0.081   4.087   0.422 -2.0119 -0.0871  1.3994
17817TIP3   OH274941   5.396   3.817  11.130 -0.6241  0.0681 -0.4732
17817TIP3    H174942   5.454   3.893  11.118 -0.2811 -0.0252  0.5293
17817TIP3    H274943   5.308   3.853  11.125 -0.4632  0.5632  0.1641
17818TIP3   OH274944   5.113   3.383  16.980 -0.4297 -0.0181 -0.0459
17818TIP3    H174945   5.193   3.383  17.034 -1.6110  2.6405  1.9365
17818TIP3    H274946   5.091   3.291  16.970  2.8780 -0.8668 -0.7567
17819TIP3   OH274947   0.779   2.032   2.876 -0.2565 -0.3411 -0.5984
17819TIP3    H174948   0.855   2.084   2.903  0.0758 -0.6392 -0.9320
17819TIP3    H274949   0.705   2.091   2.883  0.0913  0.1296 -0.8132
17820TIP3   OH274950   4.179   4.030   0.641  0.1840 -0.5994 -0.0704
17820TIP3    H174951   4.099   4.038   0.589  0.6629 -1.7301 -1.0394
17820TIP3    H274952   4.164   4.086   0.717 -1.0060  0.2065 -0.8564
17821TIP3   OH274953   1.741   0.437  15.780  0.3689  0.7307 -1.1441
17821TIP3    H174954   1.750   0.494  15.857 -1.7575  0.2549 -0.4595
17821TIP3    H274955   1.692   0.361  15.813 -3.8347  2.0571 -3.5421
17822TIP3   OH274956   5.358   5.851  10.779  0.0873 -0.4498 -0.6334
17822TIP3    H174957   5.267   5.867  10.752 -0.2332  1.0617  1.1229
17822TIP3    H274958   5.375   5.760  10.754 -1.6058 -0.4966 -1.7776
17823TIP3   OH274959   3.948   3.357  12.301 -0.0346 -0.2827 -0.5069
17823TIP3    H174960   3.972   3.265  12.289 -0.0149 -0.3675  0.1423
17823TIP3    H274961   3.924   3.363  12.394 -1.2221  0.0861 -0.8169
17824TIP3   OH274962   4.655   5.079  12.475 -0.2112  0.2111  0.0026
17824TIP3    H174963   4.654   5.021  12.400 -2.9313  0.0502  0.0540
17824TIP3    H274964   4.655   5.021  12.551 -1.3480  0.2547  0.0593
17825TIP3   OH274965   3.811   2.771  10.982 -0.2969 -0.4962 -0.3505
17825TIP3    H174966   3.765   2.752  10.901 -0.0859 -0.9784 -0.3625
17825TIP3    H274967   3.870   2.696  10.994  0.8173  0.3158 -0.5730
17826TIP3   OH274968   5.061   0.342  13.795 -0.1655  0.1510  0.4398
17826TIP3    H174969   5.107   0.258  13.789  0.3251  0.4653 -0.4616
17826TIP3    H274970   4.969   0.318  13.805 -0.5249 -0.6247 -3.1670
17827TIP3   OH274971   0.672   1.385   2.258 -0.1255  0.1400 -0.2905
17827TIP3    H174972   0.701   1.327   2.328 -0.8362 -2.4029 -1.9544
17827TIP3    H274973   0.730   1.364   2.184 -0.6885  1.2447 -1.0753
17828TIP3   OH274974   6.302   5.407  16.970 -0.4525  0.3773  0.2929
17828TIP3    H174975   6.258   5.375  17.049 -1.7036  1.8341  0.2260
17828TIP3    H274976   6.243   5.381  16.899 -1.0023  1.9190  0.1587
17829TIP3   OH274977   5.396   4.382  11.733  0.0983  0.9113 -0.2751
17829TIP3    H174978   5.338   4.432  11.676  0.3840  0.0750 -1.3384
17829TIP3    H274979   5.451   4.332  11.673  0.0915 -0.3636  0.7317
17830TIP3   OH274980   4.096   0.219  15.744 -0.0465  0.1196  0.0178
17830TIP3    H174981   4.190   0.219  15.760 -0.0953  0.1169  0.3129
17830TIP3    H274982   4.072   0.126  15.748  0.0554  0.0490 -0.7818
17831TIP3   OH274983   0.673   4.841  16.178 -0.7401  0.2428 -0.0086
17831TIP3    H174984   0.722   4.921  16.199  1.2327 -1.3584  1.8973
17831TIP3    H274985   0.582   4.871  16.171 -0.2545  2.5017  1.8267
17832TIP3   OH274986   3.028   6.637  14.705 -0.3989 -0.5929  0.3598
17832TIP3    H174987   3.100   6.690  14.673  0.0761 -0.9174  0.8794
17832TIP3    H274988   2.956   6.654  14.643 -0.1020  0.2616  0.2403
17833TIP3   OH274989   0.467   4.744   2.911 -0.0814  0.0056  0.0098
17833TIP3    H174990   0.389   4.711   2.866 -0.4804  0.4056  0.3981
17833TIP3    H274991   0.533   4.753   2.842 -0.9249  1.3846 -0.6562
17834TIP3   OH274992   0.848   2.940   2.386  0.2652 -0.1818  0.0268
17834TIP3    H174993   0.771   2.990   2.413  0.0123 -0.0557 -0.8811
17834TIP3    H274994   0.819   2.889   2.310  1.0972 -0.0560 -0.3962
17835TIP3   OH274995   5.761   4.131   4.312  0.3622  0.2231  0.7242
17835TIP3    H174996   5.752   4.226   4.306  0.7060  0.2285  0.3057
17835TIP3    H274997   5.855   4.115   4.308  0.3182 -0.1193  1.0437
17836TIP3   OH274998   5.318   5.710   0.622 -0.2628  0.1564 -0.2502
17836TIP3    H174999   5.286   5.622   0.644  1.5613 -0.4191  0.2501
17836TIP3    H275000   5.387   5.695   0.558  1.0500  1.0875  0.8920
17837TIP3   OH275001   6.442   3.925  15.974  0.5229  0.1229 -0.1755
17837TIP3    H175002   6.499   3.852  15.948 -0.3169 -0.3145 -0.8345
17837TIP3    H275003   6.481   3.958  16.055 -0.3497 -2.5418  1.4657
17838TIP3   OH275004   3.046   2.343   2.846 -0.1638  0.1116 -0.1442
17838TIP3    H175005   3.122   2.388   2.883 -0.4976 -0.0992  0.8320
17838TIP3    H275006   3.030   2.270   2.906 -0.5774 -0.3961 -0.8538
17839TIP3   OH275007   3.438   2.048   1.404  0.4425  0.1646 -0.7004
17839TIP3    H175008   3.501   2.106   1.362 -0.9230  0.6241 -2.2211
17839TIP3    H275009   3.416   2.091   1.486  1.2512  0.5524 -0.6729
17840TIP3   OH275010   5.261   5.174  11.487 -0.5608  0.5358  0.1115
17840TIP3    H175011   5.259   5.124  11.405  0.8121  2.0005 -0.8699
17840TIP3    H275012   5.353   5.178  11.511 -0.7440  1.7459  0.6810
17841TIP3   OH275013   1.546   1.382   3.224 -0.4206  0.0156  0.1751
17841TIP3    H175014   1.533   1.287   3.213  2.1486 -0.2637 -1.0777
17841TIP3    H275015   1.458   1.415   3.242 -1.9501 -2.2155 -2.3701
17842TIP3   OH275016   2.146   6.444  15.529 -0.0755 -0.1185 -0.2380
17842TIP3    H175017   2.157   6.475  15.619  0.2798  1.0057 -0.6496
17842TIP3    H275018   2.069   6.388  15.532 -0.3904  0.3439  0.6570
17843TIP3   OH275019   0.454   1.815  16.263  0.5320 -0.0096  0.6969
17843TIP3    H175020   0.489   1.896  16.228  0.4715  0.5797  1.9555
17843TIP3    H275021   0.508   1.796  16.340  0.6753 -1.2728  0.3108
17844TIP3   OH275022   3.786   4.158  14.323 -0.0730 -0.5353 -0.4016
17844TIP3    H175023   3.732   4.148  14.244 -0.4766  0.1613 -0.2242
17844TIP3    H275024   3.876   4.150  14.292 -0.2234 -4.0490 -0.3926
17845TIP3   OH275025   3.140   1.474   0.151 -0.0861  1.0708 -0.2650
17845TIP3    H175026   3.086   1.449   0.225 -0.2343  1.8129 -0.1084
17845TIP3    H275027   3.128   1.569   0.143 -1.5233  0.7824 -2.3801
17846TIP3   OH275028   2.610   5.703  15.586  0.0222 -0.4023  0.2282
17846TIP3    H175029   2.666   5.635  15.625 -0.8751 -0.2768  1.8393
17846TIP3    H275030   2.668   5.779  15.576  0.8823 -1.1782 -1.0338
17847TIP3   OH275031   0.542   3.358   0.779 -0.3182  0.1209  0.1614
17847TIP3    H175032   0.559   3.284   0.720 -0.8188  1.4940 -1.7829
17847TIP3    H275033   0.447   3.373   0.771 -0.1865  1.1077  0.3739
17848TIP3   OH275034   2.057   5.513   4.578  0.6470  0.0397 -0.1262
17848TIP3    H175035   1.978   5.478   4.618  0.9884 -0.3557  0.2057
17848TIP3    H275036   2.028   5.593   4.534 -0.3543 -1.1618 -1.7755
17849TIP3   OH275037   1.553   4.572   5.781  0.3160  0.2902 -0.2123
17849TIP3    H175038   1.484   4.553   5.718  0.5518  1.4517 -0.8678
17849TIP3    H275039   1.591   4.487   5.802 -1.9097 -0.5069  0.9220
17850TIP3   OH275040   2.871   2.971   5.328  0.0018 -0.1181 -0.3315
17850TIP3    H175041   2.884   2.889   5.376  0.9381 -0.6357 -1.4295
17850TIP3    H275042   2.776   2.987   5.333  0.0910  0.0563  1.9683
17851TIP3   OH275043   0.169   1.666   0.514  0.3681  0.1458 -0.2509
17851TIP3    H175044   0.192   1.682   0.423 -0.4959  0.7532 -0.3712
17851TIP3    H275045   0.137   1.750   0.546 -0.5143 -0.3625  0.2498
17852TIP3   OH275046   4.254   4.886  14.902  0.7876  0.5339 -0.1708
17852TIP3    H175047   4.294   4.856  14.821 -0.8834  0.2101 -0.9273
17852TIP3    H275048   4.163   4.855  14.897 -0.1389  2.9247  0.5078
17853TIP3   OH275049   3.804   5.986  15.138 -0.5076  0.3117 -0.7852
17853TIP3    H175050   3.729   6.001  15.080 -0.4645 -1.7923 -1.4943
17853TIP3    H275051   3.775   5.917  15.197  0.2030  0.9087  0.2971
17854TIP3   OH275052   0.136   5.893  12.833 -0.6358  0.1140  0.7006
17854TIP3    H175053   0.111   5.892  12.740 -0.2463 -1.4626  0.5856
17854TIP3    H275054   0.065   5.846  12.877 -0.5425  0.3717  1.1292
17855TIP3   OH275055   4.498   3.531  13.912  0.3658  0.1188  0.1502
17855TIP3    H175056   4.530   3.621  13.907 -0.1806  0.5344  2.5880
17855TIP3    H275057   4.564   3.485  13.964 -0.1863 -0.4506  0.3568
17856TIP3   OH275058   5.305   2.867  10.461  0.5654 -0.0384 -0.2052
17856TIP3    H175059   5.384   2.813  10.459  0.4957 -0.2438  1.3052
17856TIP3    H275060   5.259   2.845  10.380  1.4717 -0.8149 -0.5307
17857TIP3   OH275061   2.846   4.142  11.455  0.2359 -0.2596  0.2554
17857TIP3    H175062   2.785   4.188  11.512  0.7191  0.4326  0.2248
17857TIP3    H275063   2.791   4.086  11.401 -0.2859 -0.3734  0.8995
17858TIP3   OH275064   2.155   0.413   1.018 -0.1141 -0.3069  0.0346
17858TIP3    H175065   2.099   0.491   1.029 -0.4263 -0.6097  0.6832
17858TIP3    H275066   2.212   0.414   1.095 -0.3344 -0.8889  0.2072
17859TIP3   OH275067   3.045   5.264  11.672  0.3041 -0.1720  0.5868
17859TIP3    H175068   2.960   5.222  11.686  0.3244 -0.3761  0.1163
17859TIP3    H275069   3.053   5.326  11.745 -0.7629  0.6731  0.0140
17860TIP3   OH275070   3.195   6.345   1.098  0.4167  0.4324 -0.3122
17860TIP3    H175071   3.193   6.391   1.014  1.2874  1.0655 -0.0059
17860TIP3    H275072   3.120   6.378   1.146  0.2896  0.5583 -0.5960
17861TIP3   OH275073   0.705   6.623   6.377  0.0409 -0.4832  0.1988
17861TIP3    H175074   0.655   6.541   6.377  0.3827 -0.7609 -2.1707
17861TIP3    H275075   0.645   6.688   6.342  1.0564 -0.6899 -2.0916
17862TIP3   OH275076   0.671   0.575   3.163  0.2503 -0.3906 -0.4074
17862TIP3    H175077   0.721   0.653   3.190  0.8358 -0.3943 -1.4436
17862TIP3    H275078   0.738   0.513   3.134 -0.2237 -1.2469  0.2753
17863TIP3   OH275079   0.452   0.178  14.560 -0.7019  0.2615 -0.1160
17863TIP3    H175080   0.385   0.243  14.537 -0.0306  0.7374 -0.7520
17863TIP3    H275081   0.527   0.200  14.505  0.0292 -0.1830  0.6753
17864TIP3   OH275082   4.873   6.294  10.347  0.4998  0.5574 -0.0190
17864TIP3    H175083   4.806   6.258  10.289  1.3936 -0.3943 -0.4806
17864TIP3    H275084   4.911   6.218  10.391 -0.4950  1.2561  2.2427
17865TIP3   OH275085   0.440   2.024   1.860 -0.3018  0.3037 -0.1369
17865TIP3    H175086   0.513   2.069   1.817 -0.1341 -0.2713 -0.4588
17865TIP3    H275087   0.369   2.027   1.796 -1.5719  3.4150  1.2077
17866TIP3   OH275088   5.364   4.056   3.602  0.0417 -0.3918  0.1856
17866TIP3    H175089   5.326   4.003   3.672  0.4030 -1.1486 -0.1742
17866TIP3    H275090   5.455   4.070   3.629 -0.4187  1.3269  0.9955
17867TIP3   OH275091   2.208   5.168  14.620  0.0974 -0.2597  0.2485
17867TIP3    H175092   2.134   5.114  14.650  1.2213 -1.0684  1.6450
17867TIP3    H275093   2.284   5.111  14.627  1.2574  1.3390  1.2978
17868TIP3   OH275094   2.729   1.250   4.666  0.2377 -0.1077 -0.3220
17868TIP3    H175095   2.791   1.277   4.598 -0.9144 -1.0899 -1.8454
17868TIP3    H275096   2.731   1.154   4.663 -3.3223 -0.3354 -2.5071
17869TIP3   OH275097   4.933   0.658   4.322  0.3615  0.2020 -0.2030
17869TIP3    H175098   4.858   0.708   4.355  1.3240  0.8333  1.1593
17869TIP3    H275099   4.994   0.656   4.396  0.8586 -2.0326 -0.6070
17870TIP3   OH275100   0.975   0.497  12.914  0.0107 -0.2488 -0.2996
17870TIP3    H175101   0.968   0.549  12.834 -0.0270 -1.9199 -1.4299
17870TIP3    H275102   0.884   0.475  12.935  0.0112  0.3117  0.2890
17871TIP3   OH275103   3.183   5.733   3.702  0.1009  0.1846 -0.0145
17871TIP3    H175104   3.149   5.793   3.636 -1.5677 -1.9642 -1.2825
17871TIP3    H275105   3.179   5.782   3.784  0.2900  2.2622 -1.1737
17872TIP3   OH275106   4.482   0.647  17.070 -0.9752 -0.2797  0.3932
17872TIP3    H175107   4.441   0.573  17.025 -0.6580  0.2865 -0.8646
17872TIP3    H275108   4.409   0.700  17.101 -1.1978 -0.7032  0.6023
17873TIP3   OH275109   2.354   6.674   0.532  0.1213 -0.1682 -0.0120
17873TIP3    H175110   2.329   6.671   0.440  0.2753 -2.3102 -0.0429
17873TIP3    H275111   2.314   6.595   0.570  0.2279  0.5593  1.7177
17874TIP3   OH275112   2.589   5.154  15.642 -0.4086 -0.0322  0.8183
17874TIP3    H175113   2.556   5.155  15.731  0.4345 -1.0445  1.1602
17874TIP3    H275114   2.548   5.078  15.601  0.2174 -0.3346  0.7468
17875TIP3   OH275115   6.762   5.477   6.754  0.1822  0.2793  0.4279
17875TIP3    H175116   6.691   5.522   6.800 -1.1450  0.1588 -1.3976
17875TIP3    H275117   6.816   5.548   6.718 -0.7399  0.4166 -0.7136
17876TIP3   OH275118   0.501   0.130  14.162 -0.2658  0.1707 -0.4830
17876TIP3    H175119   0.549   0.189  14.221 -0.7479  1.6782 -1.5253
17876TIP3    H275120   0.409   0.146  14.184 -0.3781 -1.2431  0.1559
17877TIP3   OH275121   5.184   1.529   4.944 -0.2378  0.2690 -0.1973
17877TIP3    H175122   5.267   1.577   4.936 -0.9274  1.1945 -3.0550
17877TIP3    H275123   5.161   1.536   5.037  1.1956  2.9862  0.0615
17878TIP3   OH275124   5.941   3.464   2.374  0.1754 -0.4673 -0.1497
17878TIP3    H175125   5.852   3.431   2.382  0.0191 -0.0674 -0.2064
17878TIP3    H275126   5.972   3.430   2.290  0.1031 -0.6628 -0.0988
17879TIP3   OH275127   1.964   3.267  16.261 -0.1526  0.2747 -0.1198
17879TIP3    H175128   1.964   3.173  16.249 -2.7358  0.2334 -0.3516
17879TIP3    H275129   1.926   3.302  16.181 -0.8116  1.3705  0.6361
17880TIP3   OH275130   3.994   5.509   0.484 -0.1273 -0.4353 -0.2760
17880TIP3    H175131   3.946   5.551   0.555  0.8040 -0.8334  0.6254
17880TIP3    H275132   4.018   5.581   0.426 -0.9707 -0.1133 -0.2383
17881TIP3   OH275133   0.734   5.152   5.808 -0.5482 -0.2207 -0.1092
17881TIP3    H175134   0.790   5.225   5.781  0.4106 -0.3566  1.3618
17881TIP3    H275135   0.698   5.117   5.727  0.7488  0.4896 -1.0228
17882TIP3   OH275136   3.889   1.517  15.723 -0.0562 -0.1001 -0.2161
17882TIP3    H175137   3.844   1.586  15.771 -1.2941 -0.8696 -0.2309
17882TIP3    H275138   3.837   1.505  15.643  1.0991  0.1002 -1.0262
17883TIP3   OH275139   2.314   3.674   4.253  0.0593 -0.1493 -0.0484
17883TIP3    H175140   2.222   3.685   4.232 -0.2239  1.0163  1.6303
17883TIP3    H275141   2.316   3.662   4.347  1.5795 -0.9060 -0.1470
17884TIP3   OH275142   1.886   0.118  14.767  0.1533 -0.0664 -0.5866
17884TIP3    H175143   1.814   0.146  14.823 -0.0937  0.3508 -1.1082
17884TIP3    H275144   1.903   0.027  14.793 -0.1680  0.0216 -0.0583
17885TIP3   OH275145   0.782   5.421  13.142  0.7256 -0.0083  0.0034
17885TIP3    H175146   0.832   5.455  13.067  0.9589 -0.6834 -0.1494
17885TIP3    H275147   0.771   5.328  13.124 -0.6971  0.1382 -0.0170
17886TIP3   OH275148   3.358   0.874  14.993  0.0217 -0.2160  0.3418
17886TIP3    H175149   3.436   0.886  14.938  0.0061  1.4594  0.6348
17886TIP3    H275150   3.285   0.887  14.933 -0.0394 -1.0707  0.2185
17887TIP3   OH275151   0.386   6.020  12.843 -0.6190 -0.1223  0.0610
17887TIP3    H175152   0.304   5.970  12.846 -0.4968 -0.3381 -0.1368
17887TIP3    H275153   0.409   6.024  12.750  1.2718 -2.8526  0.2912
17888TIP3   OH275154   2.908   0.541   3.737 -0.3637  0.5273  0.4802
17888TIP3    H175155   2.971   0.552   3.808 -1.4106 -1.1663  1.7662
17888TIP3    H275156   2.827   0.580   3.770 -0.7509  0.0853  0.0760
17889TIP3   OH275157   5.775   0.255  15.439  0.1016 -0.2396  0.0113
17889TIP3    H175158   5.818   0.317  15.498 -1.8747  0.1276  1.1836
17889TIP3    H275159   5.742   0.309  15.368  2.7527 -0.7236 -1.7254
17890TIP3   OH275160   0.902   0.187  14.354 -0.3929  0.1900 -0.0478
17890TIP3    H175161   0.829   0.239  14.321 -1.8124 -0.8236  1.3473
17890TIP3    H275162   0.945   0.154  14.275  0.2558  2.9350 -0.9888
17891TIP3   OH275163   4.897   4.842   2.074 -0.0649 -0.1585 -0.3116
17891TIP3    H175164   4.992   4.852   2.078  0.2111 -2.1456 -0.7221
17891TIP3    H275165   4.863   4.906   2.136  1.6150 -0.2648  0.7802
17892TIP3   OH275166   5.034   5.699  12.633  0.0439 -0.0649 -0.5691
17892TIP3    H175167   5.018   5.605  12.645 -0.0114 -0.1201 -1.0336
17892TIP3    H275168   4.947   5.737  12.625  0.0442  0.1185  0.2256
17893TIP3   OH275169   4.560   1.432  14.398  0.5692 -0.0325 -0.0419
17893TIP3    H175170   4.494   1.369  14.368  0.0240  0.5885 -0.1608
17893TIP3    H275171   4.573   1.410  14.490 -1.2492  1.0421  0.5399
17894TIP3   OH275172   1.487   0.693  13.976  0.4118 -0.2123 -0.1586
17894TIP3    H175173   1.557   0.657  13.920  0.9834 -0.3298  0.6181
17894TIP3    H275174   1.508   0.786  13.982 -0.2395  0.0023 -0.9687
17895TIP3   OH275175   4.216   4.101   5.778  0.4861 -0.7149  0.0300
17895TIP3    H175176   4.131   4.113   5.819  1.1349  0.4352  1.0928
17895TIP3    H275177   4.274   4.075   5.849  1.1682 -0.8256 -0.5526
17896TIP3   OH275178   3.968   4.983  11.299  0.5897 -0.0861  0.0187
17896TIP3    H175179   4.017   4.935  11.233 -1.1577 -2.1143  0.0719
17896TIP3    H275180   3.909   5.039  11.249  1.3264  0.6230 -0.0713
17897TIP3   OH275181   5.974   2.613  15.329  0.0465  0.9700 -0.2216
17897TIP3    H175182   6.047   2.578  15.378  1.2520 -1.3702 -3.3270
17897TIP3    H275183   5.896   2.583  15.376  1.0917  0.1005  1.0008
17898TIP3   OH275184   6.144   4.228  11.383  0.0806 -0.3863  0.0666
17898TIP3    H175185   6.062   4.221  11.431 -0.3136  0.1764 -0.5154
17898TIP3    H275186   6.136   4.164  11.312  0.4529 -0.8550  0.4415
17899TIP3   OH275187   0.411   1.067  11.811 -0.3460 -0.1369 -0.3439
17899TIP3    H175188   0.413   1.159  11.787  1.5553  0.3176  1.2258
17899TIP3    H275189   0.399   1.020  11.729 -1.8081  1.5061 -1.1046
17900TIP3   OH275190   3.437   3.963   2.819 -0.0899 -0.0375 -0.2117
17900TIP3    H175191   3.448   3.912   2.739  0.0513  2.1101 -1.6634
17900TIP3    H275192   3.516   4.017   2.825 -1.5272  2.2472 -0.5424
17901TIP3   OH275193   3.889   4.526  16.336 -0.5716 -0.2062  0.4497
17901TIP3    H175194   3.915   4.466  16.267 -0.7827 -0.1923  0.3586
17901TIP3    H275195   3.959   4.592  16.339  0.5016 -1.3484  1.6384
17902TIP3   OH275196   1.370   0.544   5.418  0.4905 -0.3395  0.4801
17902TIP3    H175197   1.316   0.498   5.354 -0.5873  0.7865  0.5612
17902TIP3    H275198   1.460   0.519   5.395  0.0786 -0.5942 -0.9631
17903TIP3   OH275199   6.164   2.781  13.443 -0.1929 -0.0516  0.8253
17903TIP3    H175200   6.093   2.820  13.392 -1.0149 -0.8693  1.3243
17903TIP3    H275201   6.217   2.733  13.379  0.4476  1.2817  0.3077
17904TIP3   OH275202   3.839   2.934   3.234 -0.7100 -0.3305 -0.1972
17904TIP3    H175203   3.862   2.878   3.160 -1.3852  0.6693 -1.2071
17904TIP3    H275204   3.795   2.876   3.296 -1.4073 -0.9183 -1.2206
17905TIP3   OH275205   5.816   6.235   3.079  0.2125 -0.2655 -0.0508
17905TIP3    H175206   5.876   6.165   3.053  0.4140 -0.1379  0.0729
17905TIP3    H275207   5.872   6.310   3.099 -0.0934  0.5763 -2.1142
17906TIP3   OH275208   1.834   4.787   3.881 -0.4858  0.0583 -0.1665
17906TIP3    H175209   1.744   4.780   3.911 -0.7286  1.0618 -0.6375
17906TIP3    H275210   1.853   4.702   3.841 -1.2055 -0.1664 -0.0348
17907TIP3   OH275211   2.983   3.694   3.353  0.3410 -0.4282 -0.5005
17907TIP3    H175212   3.053   3.728   3.409  0.5944 -0.5210 -0.7582
17907TIP3    H275213   3.025   3.625   3.301 -0.7808 -3.2102  2.0243
17908TIP3   OH275214   4.035   0.083   0.068  0.1519 -0.0907 -0.3139
17908TIP3    H175215   4.070   0.132   0.142  2.0623  0.2534 -1.3789
17908TIP3    H275216   3.940   0.086   0.080  0.3911 -0.9758  2.6727
17909TIP3   OH275217   0.011   1.863  13.215  0.4068  0.1300 -0.5669
17909TIP3    H175218   0.046   1.843  13.128 -0.8769  0.8417 -1.2803
17909TIP3    H275219  -0.043   1.941  13.202 -0.3801 -0.1580  0.7265
17910TIP3   OH275220   4.152   5.360  13.296 -0.2084 -0.0713 -0.1093
17910TIP3    H175221   4.218   5.390  13.358 -1.5357  0.8372  0.9337
17910TIP3    H275222   4.092   5.306  13.348 -0.6566 -0.3591 -0.8914
17911TIP3   OH275223   2.582   3.993  13.290 -0.2289  0.5822  0.1329
17911TIP3    H175224   2.664   3.972  13.334 -0.9174 -1.1861  0.6591
17911TIP3    H275225   2.608   4.045  13.214  1.1547  2.0457  1.5252
17912TIP3   OH275226   1.346   2.734   5.767  0.2820 -0.7254  0.6268
17912TIP3    H175227   1.341   2.795   5.841  0.8211 -0.1071  0.1603
17912TIP3    H275228   1.437   2.701   5.769  1.1788  1.3552 -1.3488
17913TIP3   OH275229   5.271   4.186   3.902  0.1855 -0.0545  0.0609
17913TIP3    H175230   5.281   4.106   3.851 -2.4377  0.8107 -2.1101
17913TIP3    H275231   5.240   4.157   3.987  1.1782 -1.3992  0.0001
17914TIP3   OH275232   4.346   3.294  17.141  0.0456  0.0330  0.3596
17914TIP3    H175233   4.323   3.316  17.232  2.2229 -0.2742  1.0455
17914TIP3    H275234   4.375   3.377  17.104 -2.1367  0.4496 -0.5430
17915TIP3   OH275235   0.346   6.700   1.352 -0.0731  0.1660  0.3384
17915TIP3    H175236   0.414   6.753   1.392 -0.2025  1.6747 -1.2948
17915TIP3    H275237   0.299   6.661   1.425  1.1994  0.8375  1.5447
17916TIP3   OH275238   3.061   2.682   3.098 -0.0777 -0.6954  0.4870
17916TIP3    H175239   3.096   2.630   3.170  2.3279  0.3064  0.1388
17916TIP3    H275240   3.061   2.772   3.131 -2.0937 -0.5695  0.3147
17917TIP3   OH275241   0.655   5.796  15.903  0.0067  0.2083  0.3415
17917TIP3    H175242   0.567   5.798  15.864  0.3036  2.1481 -0.3637
17917TIP3    H275243   0.714   5.808  15.829  0.7495  0.9253  1.0333
17918TIP3   OH275244   6.702   0.438   5.989  0.5570  0.1216 -0.0991
17918TIP3    H175245   6.720   0.495   5.914  4.0368  1.2153  1.3363
17918TIP3    H275246   6.646   0.491   6.046 -2.3842 -0.8329 -1.8676
17919TIP3   OH275247   1.046   4.520   3.249  0.3950  0.1348  0.3938
17919TIP3    H175248   1.019   4.535   3.158  1.3710 -1.2691 -0.1609
17919TIP3    H275249   1.139   4.500   3.243  0.0660 -1.9596  1.4681
17920TIP3   OH275250   3.730   1.131   0.780  0.0976  0.1858  0.2367
17920TIP3    H175251   3.693   1.218   0.791 -0.8733  0.0696 -1.6114
17920TIP3    H275252   3.658   1.071   0.802  0.2565 -0.1007 -0.0080
17921TIP3   OH275253   0.890   6.597   3.980 -0.0032  0.3862 -1.0706
17921TIP3    H175254   0.900   6.680   3.933 -3.2678  0.6277 -1.5634
17921TIP3    H275255   0.844   6.619   4.061  2.3007 -0.5429  0.6087
17922TIP3   OH275256   6.638   3.736  12.277  0.4652 -0.3128  0.0978
17922TIP3    H175257   6.612   3.645  12.292  0.2294 -0.1856  0.4676
17922TIP3    H275258   6.716   3.730  12.222  0.2759 -0.7308 -0.1273
17923TIP3   OH275259   2.452   4.442   5.381 -0.1600  0.6386  0.5474
17923TIP3    H175260   2.377   4.399   5.423 -0.4214  0.5160 -0.0383
17923TIP3    H275261   2.421   4.531   5.363 -0.5801  0.2448 -0.7604
17924TIP3   OH275262   4.997   3.488   0.727  0.2611 -0.4196 -0.0947
17924TIP3    H175263   5.090   3.477   0.748  0.0258 -1.5851  0.3686
17924TIP3    H275264   4.951   3.430   0.786 -0.9065  1.2543  0.7353
17925TIP3   OH275265   2.740   4.595   0.708 -0.2081 -0.2415 -0.1602
17925TIP3    H175266   2.670   4.660   0.708 -0.1188 -0.1254 -1.0907
17925TIP3    H275267   2.806   4.630   0.767 -0.0961  0.5868 -0.7633
17926TIP3   OH275268   5.056   6.466   1.074 -0.5252 -0.1355  0.0195
17926TIP3    H175269   5.127   6.478   1.138  0.2442  0.0738 -0.8456
17926TIP3    H275270   5.098   6.422   1.001 -1.3784 -0.2964 -0.3776
17927TIP3   OH275271   6.087   4.990  12.356 -0.3641  0.2132  0.1533
17927TIP3    H175272   6.012   4.950  12.312 -2.4903 -1.1710  4.4086
17927TIP3    H275273   6.147   4.917  12.372 -0.1006  0.4760  0.3635
17928TIP3   OH275274   4.903   4.830  13.746  0.2035  0.1117  0.3093
17928TIP3    H175275   4.925   4.863  13.833 -0.5323 -0.4448  0.7081
17928TIP3    H275276   4.917   4.905  13.688  2.3508  0.0348  0.6413
17929TIP3   OH275277   6.000   6.010  16.396 -0.8452  0.3015  0.0598
17929TIP3    H175278   6.009   5.987  16.488 -0.7032 -1.0632 -0.2703
17929TIP3    H275279   6.090   6.025  16.366 -0.6065 -1.6869 -0.4064
17930TIP3   OH275280   0.531   0.292  11.277 -0.4751 -0.2809  0.5911
17930TIP3    H175281   0.537   0.321  11.186  1.2079 -0.4783  0.6206
17930TIP3    H275282   0.558   0.201  11.275  0.8446  0.0726  1.4540
17931TIP3   OH275283   3.327   5.283   3.672 -0.3993 -0.0176  0.0770
17931TIP3    H175284   3.411   5.308   3.633 -0.7220 -2.5746 -2.5999
17931TIP3    H275285   3.264   5.343   3.633  0.0650  1.9384  2.1261
17932TIP3   OH275286   3.966   1.888   1.873  0.1072  0.4148 -0.1313
17932TIP3    H175287   3.874   1.908   1.889  0.4455  1.0570  1.1207
17932TIP3    H275288   4.013   1.967   1.901  1.1267 -0.3258  0.3178
17933TIP3   OH275289   2.379   1.177  14.505  0.2081 -0.4848 -0.2285
17933TIP3    H175290   2.373   1.242  14.576  0.3598  0.0715 -0.7118
17933TIP3    H275291   2.459   1.129  14.523  0.8603  0.4213 -0.6426
17934TIP3   OH275292   3.588   1.341  14.657 -0.3254 -0.4056  0.2818
17934TIP3    H175293   3.520   1.386  14.706 -0.2585 -0.8855  0.8376
17934TIP3    H275294   3.606   1.262  14.709  1.8396  0.5206  1.0571
17935TIP3   OH275295   4.717   0.847  11.518  0.2686  0.0313 -0.8757
17935TIP3    H175296   4.736   0.830  11.425 -0.8789 -0.4263 -1.0407
17935TIP3    H275297   4.765   0.778  11.564  2.7852  1.6143 -0.9081
17936TIP3   OH275298   1.045   1.372  14.444  0.3154 -0.1781 -0.1371
17936TIP3    H175299   1.031   1.466  14.433  1.1799 -0.1069 -0.7928
17936TIP3    H275300   0.997   1.332  14.371  1.8292 -0.0644 -1.2429
17937TIP3   OH275301   1.466   6.557  11.770 -0.1574 -0.7411  0.0422
17937TIP3    H175302   1.399   6.510  11.720  0.4734  0.5177 -2.1061
17937TIP3    H275303   1.547   6.509  11.753  0.1590  0.0190 -0.6330
17938TIP3   OH275304   1.406   4.537   5.028 -0.2393  0.0340 -0.4464
17938TIP3    H175305   1.473   4.605   5.025 -1.1976  1.0028 -0.4718
17938TIP3    H275306   1.372   4.542   5.117 -2.6408  1.9470 -1.3661
17939TIP3   OH275307   4.633   1.016   1.398 -0.3895 -0.0271  0.4735
17939TIP3    H175308   4.595   1.102   1.383  0.1210  0.4688  1.8692
17939TIP3    H275309   4.625   1.002   1.492 -2.1154 -2.3139  0.0700
17940TIP3   OH275310   3.193   0.175  12.230  0.4916 -0.2451 -0.1582
17940TIP3    H175311   3.172   0.141  12.317 -0.5203  0.7548  0.0048
17940TIP3    H275312   3.119   0.147  12.175  0.6182  0.0161 -0.4628
17941TIP3   OH275313   0.250   6.339  14.186  0.5262  0.4275  0.1073
17941TIP3    H175314   0.323   6.280  14.199  0.0020 -0.2128  0.1795
17941TIP3    H275315   0.272   6.417  14.237  0.0256 -0.7312  2.2062
17942TIP3   OH275316   3.430   4.969  15.757  0.0160 -0.4356  0.3055
17942TIP3    H175317   3.379   4.888  15.749  0.2296 -0.4434 -1.2215
17942TIP3    H275318   3.511   4.942  15.801 -0.1628 -0.9404  0.3259
17943TIP3   OH275319   2.489   4.090   4.995  0.2659 -0.2892 -0.4897
17943TIP3    H175320   2.414   4.149   4.988  1.2923  0.8998 -2.0730
17943TIP3    H275321   2.471   4.020   4.932 -0.9600 -1.7773  1.4006
17944TIP3   OH275322   1.067   3.821   5.299 -0.7127 -0.1820  0.2537
17944TIP3    H175323   1.069   3.916   5.292 -1.5692 -0.2156 -0.7413
17944TIP3    H275324   1.141   3.791   5.246 -0.5624 -0.0831  0.4055
17945TIP3   OH275325   3.673   0.628   2.307  0.1044 -0.0029  0.0421
17945TIP3    H175326   3.660   0.533   2.308  1.8781 -0.2797  0.6563
17945TIP3    H275327   3.622   0.660   2.381 -1.2593 -0.3458 -0.7313
17946TIP3   OH275328   0.442   2.622   6.198  0.0545 -0.6380  0.0746
17946TIP3    H175329   0.375   2.556   6.212  0.9069 -1.3693  0.8441
17946TIP3    H275330   0.458   2.620   6.104 -2.2980  0.8928 -0.4393
17947TIP3   OH275331   2.494   4.564   4.595 -0.1442 -0.0299  0.3400
17947TIP3    H175332   2.473   4.639   4.539 -0.2258 -0.6925 -0.5335
17947TIP3    H275333   2.441   4.577   4.673  0.3504  1.1818  0.5034
17948TIP3   OH275334   1.183   4.425   4.560  0.0720  0.0433 -0.0952
17948TIP3    H175335   1.095   4.462   4.552 -0.0943 -0.2019  0.5546
17948TIP3    H275336   1.221   4.471   4.634 -0.3361 -1.4446  1.0949
17949TIP3   OH275337   3.606   5.862  16.652 -0.1141  0.1090  0.4863
17949TIP3    H175338   3.558   5.938  16.619  0.6792  0.7369  0.7451
17949TIP3    H275339   3.620   5.807  16.575  1.1574  1.2558 -0.1307
17950TIP3   OH275340   5.619   6.531   0.046  0.5392  0.2958 -0.5190
17950TIP3    H175341   5.670   6.515   0.125 -0.9513 -1.8240  0.1034
17950TIP3    H275342   5.528   6.520   0.074 -0.0853  0.6079 -2.3080
17951TIP3   OH275343   1.596   2.725  17.322  0.3332 -0.1060  0.0844
17951TIP3    H175344   1.657   2.798  17.330 -0.2466  0.3645  0.3382
17951TIP3    H275345   1.551   2.739  17.239 -1.1548  0.9359  1.0111
17952TIP3   OH275346   5.506   6.693  17.012 -0.1506  0.0108  0.0646
17952TIP3    H175347   5.479   6.659  16.927  0.2726 -2.6481  0.9114
17952TIP3    H275348   5.425   6.709  17.059 -0.3835  1.3590 -0.7208
17953TIP3   OH275349   6.012   2.887  15.857  0.1305 -0.0695  0.6952
17953TIP3    H175350   6.035   2.823  15.790 -0.1367 -1.8122  2.1905
17953TIP3    H275351   6.095   2.915  15.893  0.4298  2.4386 -1.6253
17954TIP3   OH275352   6.357   4.638  11.220  0.0021 -0.0481 -0.0509
17954TIP3    H175353   6.432   4.626  11.161  0.3271  0.7836  0.1776
17954TIP3    H275354   6.286   4.666  11.162  0.4650  1.2956 -0.0009
17955TIP3   OH275355   3.860   2.476   5.597 -0.1264 -0.6429  0.4114
17955TIP3    H175356   3.945   2.444   5.565 -1.0754 -0.9615 -2.0821
17955TIP3    H275357   3.882   2.539   5.665  2.0965 -1.0270  0.1436
17956TIP3   OH275358   3.765   2.935  12.299 -0.1649  0.2939  0.2171
17956TIP3    H175359   3.828   2.871  12.265  0.6545  0.5613  1.1817
17956TIP3    H275360   3.733   2.981  12.222 -0.7486 -1.2471 -0.5008
17957TIP3   OH275361   2.166   4.062   0.215 -0.7251 -0.6932 -0.1414
17957TIP3    H175362   2.159   4.002   0.140 -0.0974 -0.0785 -0.7024
17957TIP3    H275363   2.165   4.149   0.176  4.1110 -0.3106  0.0377
17958TIP3   OH275364   5.308   0.430  12.851 -0.6875 -0.0005  0.2860
17958TIP3    H175365   5.304   0.427  12.947  1.2372  1.8197  0.4932
17958TIP3    H275366   5.401   0.436  12.831 -1.1044  0.6161 -1.6681
17959TIP3   OH275367   4.744   2.308   4.833  0.3330 -1.2023 -0.0795
17959TIP3    H175368   4.833   2.316   4.867  0.3054 -2.3454  0.3035
17959TIP3    H275369   4.706   2.396   4.844  1.0262 -1.0101  0.8719
17960TIP3   OH275370   2.941   4.333  12.623  0.4101  0.5161  0.5838
17960TIP3    H175371   2.981   4.246  12.628  0.6283  0.6834  3.3655
17960TIP3    H275372   3.009   4.389  12.584  0.6121 -0.3284 -0.3284
17961TIP3   OH275373   2.590   2.124  12.980 -0.5000  0.6333  0.2321
17961TIP3    H175374   2.510   2.071  12.977  1.1947 -2.2638  1.6417
17961TIP3    H275375   2.559   2.214  12.986 -3.6815 -0.3932  1.1556
17962TIP3   OH275376   3.162   0.158   2.550  0.8720  0.6990 -0.0400
17962TIP3    H175377   3.247   0.190   2.579  1.0863  0.9211 -0.9037
17962TIP3    H275378   3.104   0.234   2.559  0.3548  0.1349  2.0998
17963TIP3   OH275379   1.479   3.165   6.581  0.3737 -0.3028  0.1851
17963TIP3    H175380   1.411   3.101   6.562 -1.3455  1.1829  0.9769
17963TIP3    H275381   1.481   3.169   6.677  2.4251 -1.1222  0.2214
17964TIP3   OH275382   1.278   4.447  14.275 -0.1862 -0.2781 -0.0798
17964TIP3    H175383   1.241   4.527  14.312  1.6791  1.5932 -1.9608
17964TIP3    H275384   1.213   4.417  14.212  0.9906  2.6989 -3.0222
17965TIP3   OH275385   2.446   1.302  16.937 -0.6135  0.0054 -0.0316
17965TIP3    H175386   2.435   1.300  16.842  1.7090  0.5565 -0.3730
17965TIP3    H275387   2.516   1.238  16.955  0.9021  1.8100  0.9244
17966TIP3   OH275388   2.439   0.316   6.289  0.2489 -0.4550 -0.7149
17966TIP3    H175389   2.480   0.402   6.294 -0.5453 -0.0551 -0.8848
17966TIP3    H275390   2.387   0.309   6.369 -0.4648 -0.3629 -1.1638
17967TIP3   OH275391   4.993   0.511  11.909 -0.2471 -0.0239  0.0091
17967TIP3    H175392   5.054   0.545  11.843 -0.7982 -2.3035 -1.8509
17967TIP3    H275393   4.911   0.557  11.892  0.6911  2.6745  2.1799
17968TIP3   OH275394   4.156   3.166  16.113 -0.3166  0.3911 -0.2027
17968TIP3    H175395   4.111   3.249  16.100  0.1854  0.5771 -0.8312
17968TIP3    H275396   4.249   3.188  16.105 -0.1879 -0.2664 -0.6127
17969TIP3   OH275397   5.136   3.963  15.421 -0.0918 -0.2943 -0.0689
17969TIP3    H175398   5.070   3.955  15.352 -0.2261 -2.6592  0.2628
17969TIP3    H275399   5.142   3.875  15.459  3.1799 -0.1630 -0.0214
17970TIP3   OH275400   0.850   2.173  17.368  0.1187  0.0011 -0.4476
17970TIP3    H175401   0.888   2.217  17.443 -1.3221  0.0782  0.2823
17970TIP3    H275402   0.853   2.237  17.298 -0.8984  0.8852  0.2882
17971TIP3   OH275403   6.712   5.566   2.169  0.2558  0.0458  0.6905
17971TIP3    H175404   6.781   5.560   2.103  1.0739  0.3422  1.4891
17971TIP3    H275405   6.650   5.498   2.145  1.4084 -1.0123  0.6036
17972TIP3   OH275406   2.452   5.620   4.050  0.5807  0.0688  0.3220
17972TIP3    H175407   2.384   5.678   4.085  0.1068  0.2494 -0.8569
17972TIP3    H275408   2.530   5.674   4.046  1.1024 -0.4167  2.6399
17973TIP3   OH275409   3.771   6.789  14.939 -0.3548  0.0190 -0.0973
17973TIP3    H175410   3.688   6.741  14.934  1.0003 -2.4693 -0.6681
17973TIP3    H275411   3.795   6.783  15.032 -1.5917  2.3335  0.4482
17974TIP3   OH275412   3.670   6.192   6.653 -0.0338  0.0813 -0.6342
17974TIP3    H175413   3.653   6.115   6.707  3.9720  0.0430  0.9431
17974TIP3    H275414   3.589   6.242   6.657 -1.6570 -2.4129  1.1178
17975TIP3   OH275415   1.602   2.690   5.800  0.4918 -0.5811  0.3735
17975TIP3    H175416   1.656   2.627   5.847 -1.4158 -0.2573  3.2175
17975TIP3    H275417   1.655   2.769   5.796  0.8279 -0.7174  1.7566
17976TIP3   OH275418   6.363   4.266  16.157 -0.1613 -0.7077 -0.3851
17976TIP3    H175419   6.370   4.299  16.247  1.4906 -0.1319 -0.6828
17976TIP3    H275420   6.408   4.182  16.159 -1.2649 -1.3234 -0.4158
17977TIP3   OH275421   3.223   1.704   2.333 -0.1643  0.4014 -0.4744
17977TIP3    H175422   3.154   1.760   2.369 -1.4437 -1.5566  0.2972
17977TIP3    H275423   3.176   1.638   2.281  0.6524 -2.9971  2.6816
17978TIP3   OH275424   1.716   1.529  14.760  0.1225  0.6774 -0.3265
17978TIP3    H175425   1.797   1.479  14.775  0.6380  1.9578  1.5240
17978TIP3    H275426   1.743   1.620  14.763 -1.2277  1.1241 -0.9587
17979TIP3   OH275427   4.134   0.918   0.751 -0.4317  0.7654  0.0989
17979TIP3    H175428   4.108   0.945   0.839 -1.5653  0.5715 -0.1704
17979TIP3    H275429   4.066   0.953   0.694 -0.4451 -0.2785 -0.5516
17980TIP3   OH275430   0.351   5.904   3.249  0.6044  0.0987  0.2453
17980TIP3    H175431   0.440   5.936   3.259  0.7821 -0.6325  1.1993
17980TIP3    H275432   0.327   5.873   3.337 -0.8646  0.9906  0.2075
17981TIP3   OH275433   1.305   3.984  16.055  0.0529  0.1842 -0.0315
17981TIP3    H175434   1.266   4.048  16.115 -0.1204  0.1344 -0.0923
17981TIP3    H275435   1.353   3.924  16.112 -0.2506  0.0394  0.0713
17982TIP3   OH275436   0.363   3.962  12.859 -0.0244 -0.4921  0.0509
17982TIP3    H175437   0.390   4.053  12.869 -2.0910  0.0677  1.3128
17982TIP3    H275438   0.443   3.911  12.868  0.8909  1.1098  1.5785
17983TIP3   OH275439   2.002   2.796   2.639  0.4409  0.2440  0.2882
17983TIP3    H175440   2.008   2.809   2.734 -0.4545  0.1270  0.3737
17983TIP3    H275441   1.911   2.769   2.625  0.7527 -0.4195 -0.5235
17984TIP3   OH275442   1.665   0.777   6.178  0.0787 -0.3227 -0.0354
17984TIP3    H175443   1.703   0.865   6.183 -1.1548  0.2707 -0.6248
17984TIP3    H275444   1.727   0.727   6.125  0.5606  0.3306 -0.1032
17985TIP3   OH275445   0.051   1.708  15.382  0.6845  0.1074  0.1557
17985TIP3    H175446   0.060   1.803  15.393  0.3857  0.3341 -1.3314
17985TIP3    H275447  -0.016   1.698  15.315  3.5060 -0.9894 -2.7395
17986TIP3   OH275448   2.822   1.935   1.897  0.0631 -0.2895 -0.1585
17986TIP3    H175449   2.726   1.943   1.895  0.1763  1.5432 -1.9879
17986TIP3    H275450   2.850   2.002   1.959  0.1975 -0.1549 -0.3647
17987TIP3   OH275451   3.214   3.825   0.254 -0.0999  0.4158  0.0909
17987TIP3    H175452   3.184   3.792   0.169  1.1876 -1.0085  0.1360
17987TIP3    H275453   3.135   3.859   0.296 -0.8971  0.4266 -1.3517
17988TIP3   OH275454   3.450   5.103   5.590 -0.1097  0.1453  0.6525
17988TIP3    H175455   3.436   5.052   5.670  1.1780 -0.2614  0.6523
17988TIP3    H275456   3.540   5.082   5.564  0.8239  3.0657  1.1266
17989TIP3   OH275457   4.693   5.781  16.030 -0.6866  0.0133 -0.1554
17989TIP3    H175458   4.603   5.748  16.036 -0.7559  0.1660 -0.3459
17989TIP3    H275459   4.725   5.746  15.947 -1.0269  1.0776 -0.7493
17990TIP3   OH275460   4.944   5.312   3.822 -0.1998  0.1128 -0.0365
17990TIP3    H175461   4.918   5.404   3.821 -0.7695 -0.0336 -1.5915
17990TIP3    H275462   4.914   5.279   3.907 -0.4452  1.2324  0.3201
17991TIP3   OH275463   3.081   4.979   3.078  0.4193  0.7622  0.0210
17991TIP3    H175464   3.032   5.061   3.078  0.1778  0.6208 -0.1279
17991TIP3    H275465   3.126   4.978   2.994  0.8590  0.9979  0.2543
17992TIP3   OH275466   1.438   1.240   1.461 -0.1084 -0.3285 -0.3582
17992TIP3    H175467   1.380   1.278   1.527 -0.0266 -2.6084  1.1521
17992TIP3    H275468   1.392   1.160   1.432  1.4625 -1.2440 -0.4141
17993TIP3   OH275469   4.535   2.177   4.425 -0.0041 -0.1956 -0.3069
17993TIP3    H175470   4.462   2.186   4.487  0.5807 -0.5922  0.4585
17993TIP3    H275471   4.610   2.151   4.480  0.4706 -0.7751 -1.2064
17994TIP3   OH275472   1.201   1.755   5.752 -0.4439 -0.3467 -0.1597
17994TIP3    H175473   1.240   1.782   5.835 -1.0128 -1.2224  0.4065
17994TIP3    H275474   1.144   1.828   5.727  0.8179  0.5458 -0.5340
17995TIP3   OH275475   4.846   1.798   4.290  0.1113  0.1468  0.0846
17995TIP3    H175476   4.926   1.849   4.281 -0.4227  1.1511  0.8034
17995TIP3    H275477   4.875   1.714   4.326  1.0518 -0.2661 -1.5474
17996TIP3   OH275478   0.447   2.596   1.536 -0.2122 -0.5341 -0.1868
17996TIP3    H175479   0.519   2.534   1.533  0.1374 -0.3386  2.1179
17996TIP3    H275480   0.487   2.678   1.566 -1.3329 -0.3493  0.8696
17997TIP3   OH275481   3.939   6.568  10.201 -0.3247 -0.0074 -0.2120
17997TIP3    H175482   3.980   6.651  10.228 -0.6175  0.0345  0.1125
17997TIP3    H275483   3.896   6.589  10.118 -0.2973  0.1378 -0.1905
17998TIP3   OH275484   2.126   2.972  14.117 -0.0345 -0.1295 -0.1403
17998TIP3    H175485   2.144   2.878  14.120 -0.4378 -0.1916  0.7167
17998TIP3    H275486   2.191   3.011  14.176  0.4834  0.1983 -0.9097
17999TIP3   OH275487   5.506   5.731   1.499  0.5901  0.6144 -0.7776
17999TIP3    H175488   5.587   5.690   1.466  0.1812 -1.1595  0.3123
17999TIP3    H275489   5.513   5.724   1.594 -0.0336  2.1316 -0.5924
18000TIP3   OH275490   3.503   5.217   2.461  0.3104  0.2827 -0.0201
18000TIP3    H175491   3.597   5.213   2.444  0.4728 -2.3753  1.1276
18000TIP3    H275492   3.464   5.235   2.376  1.7897  0.4824 -0.6831
18001TIP3   OH275493   4.767   5.505   5.814  0.0659 -0.0277 -0.0129
18001TIP3    H175494   4.853   5.499   5.772 -0.6048  1.2871 -1.7212
18001TIP3    H275495   4.781   5.558   5.893  1.3901 -2.6758  1.6450
18002TIP3   OH275496   5.454   0.045  17.337  0.2164  0.2088  0.0836
18002TIP3    H175497   5.515   0.074  17.270  1.3644  0.7010  1.3032
18002TIP3    H275498   5.443  -0.049  17.321  1.5088  0.0620 -0.0016
18003TIP3   OH275499   1.669   6.789  12.046  0.4408 -0.4780 -0.2183
18003TIP3    H175500   1.718   6.708  12.030 -0.2247 -1.1886  1.1847
18003TIP3    H275501   1.642   6.818  11.959  1.0985 -1.5012 -0.7850
18004TIP3   OH275502   0.181   4.621  12.970  0.7851 -0.3746  0.4518
18004TIP3    H175503   0.256   4.571  12.937  1.1287 -1.2133  2.3230
18004TIP3    H275504   0.172   4.592  13.061  0.2999  2.2201  1.3033
18005TIP3   OH275505   6.233   3.002  14.813 -0.0426  0.0146 -0.8061
18005TIP3    H175506   6.325   3.029  14.806 -0.5938  1.6913 -2.2362
18005TIP3    H275507   6.237   2.909  14.831  1.9582  0.3960  1.1478
18006TIP3   OH275508   3.715   5.046   4.926 -1.0103 -0.5494  0.4023
18006TIP3    H175509   3.694   5.136   4.953 -1.0390 -1.1597  2.6029
18006TIP3    H275510   3.806   5.034   4.953 -0.8068 -1.0051 -0.4449
18007TIP3   OH275511   3.690   5.023  14.972  0.0612 -0.2037 -0.6762
18007TIP3    H175512   3.759   5.056  14.915  0.6195 -1.1378 -0.5575
18007TIP3    H275513   3.678   4.932  14.945 -0.2294 -0.4252  0.1662
18008TIP3   OH275514   4.164   0.761   2.402 -0.4179 -0.3072  0.7970
18008TIP3    H175515   4.081   0.807   2.416 -0.5002 -0.8375  2.2274
18008TIP3    H275516   4.213   0.775   2.482  1.5863  1.3363 -0.6328
18009TIP3   OH275517   5.552   2.712  16.001  0.5956  0.3342  0.0741
18009TIP3    H175518   5.638   2.697  16.040  0.5277  3.3171  1.6917
18009TIP3    H275519   5.493   2.651  16.046  1.9303 -2.7749 -2.0499
18010TIP3   OH275520   3.379   2.924   4.721  0.3339 -0.2249  0.0912
18010TIP3    H175521   3.301   2.932   4.776 -0.4720  0.4066 -1.0994
18010TIP3    H275522   3.347   2.938   4.632  2.0967  2.1321 -0.2673
18011TIP3   OH275523   0.767   1.793   1.375 -0.9738 -0.5439  0.1382
18011TIP3    H175524   0.733   1.847   1.304  0.8615  0.4432 -0.0656
18011TIP3    H275525   0.862   1.798   1.365 -0.6211  0.2432  3.0936
18012TIP3   OH275526   4.181   0.663  15.970  0.2255  0.2914 -0.1353
18012TIP3    H175527   4.154   0.690  16.058  1.7919  0.4453  0.3350
18012TIP3    H275528   4.130   0.584  15.952 -0.4197  0.4975  0.7332
18013TIP3   OH275529   4.759   6.094   5.466 -0.4061 -0.2956  0.2992
18013TIP3    H175530   4.676   6.124   5.502 -1.7067 -1.5540 -1.4797
18013TIP3    H275531   4.767   6.003   5.494 -0.4136 -0.6517 -0.8052
18014TIP3   OH275532   2.126   1.637   1.832  0.4744 -0.2352 -0.1737
18014TIP3    H175533   2.052   1.651   1.773 -0.0109 -0.4435  0.3782
18014TIP3    H275534   2.119   1.545   1.858  0.5634 -0.0867  0.3767
18015TIP3   OH275535   2.909   3.074  12.718 -0.2038  0.6600 -0.0005
18015TIP3    H175536   2.973   3.053  12.786 -0.4270  0.4746  0.1523
18015TIP3    H275537   2.897   3.168  12.725 -3.5553  0.1995  3.2278
18016TIP3   OH275538   6.615   5.872   5.772 -0.4193 -0.0872 -0.1163
18016TIP3    H175539   6.635   5.786   5.810 -0.9658 -1.2157 -2.2380
18016TIP3    H275540   6.568   5.918   5.842  0.1082 -1.3891  1.1628
18017TIP3   OH275541   2.783   1.682  14.889  0.4525  0.3303 -0.1559
18017TIP3    H175542   2.832   1.761  14.865 -1.5069  1.3666 -0.9569
18017TIP3    H275543   2.691   1.705  14.874 -0.1771 -2.1643 -0.5998
18018TIP3   OH275544   3.144   1.377   2.473 -0.3848  0.8812  0.2021
18018TIP3    H175545   3.231   1.345   2.496  0.3245  2.1721 -0.5881
18018TIP3    H275546   3.130   1.344   2.384 -0.7387  0.6109  0.3572
18019TIP3   OH275547   0.157   2.805  15.432  0.6318  0.4471 -0.2476
18019TIP3    H175548   0.187   2.776  15.518  1.6329 -0.4896 -0.8913
18019TIP3    H275549   0.206   2.752  15.370 -1.2909 -0.1040 -1.3911
18020TIP3   OH275550   1.584   5.106   2.251  0.0308 -0.0243  0.1331
18020TIP3    H175551   1.665   5.123   2.204  0.9042  1.5316  2.0791
18020TIP3    H275552   1.517   5.152   2.201  0.9009  1.4074  0.2354
18021TIP3   OH275553   0.811   5.569   1.304 -0.1785 -0.0919 -0.0134
18021TIP3    H175554   0.800   5.564   1.399 -0.0376 -1.0567 -0.0374
18021TIP3    H275555   0.779   5.484   1.271  0.4700 -0.0657 -0.7564
18022TIP3   OH275556   5.446   3.403  14.675 -0.0764  0.1856 -0.0446
18022TIP3    H175557   5.414   3.484  14.715 -0.4847  0.3582 -0.7016
18022TIP3    H275558   5.369   3.367  14.631 -0.0391 -0.8618  0.7271
18023TIP3   OH275559   5.178   2.489  16.078 -0.2980  0.3968  0.2578
18023TIP3    H175560   5.260   2.528  16.107  0.2290 -1.1869  1.0300
18023TIP3    H275561   5.111   2.532  16.130  0.3077  0.0269  1.3853
18024TIP3   OH275562   0.540   0.206  10.501 -0.1466  0.0638 -0.6882
18024TIP3    H175563   0.471   0.190  10.565  1.0501 -1.0122  0.3887
18024TIP3    H275564   0.542   0.126  10.447 -0.6982  0.6868 -1.6623
18025TIP3   OH275565   0.906   6.666   1.728 -0.4221 -0.3679  0.2685
18025TIP3    H175566   0.847   6.632   1.796 -2.7986 -1.5779 -2.2029
18025TIP3    H275567   0.986   6.613   1.737 -0.2188  0.2497  2.7288
18026TIP3   OH275568   6.071   5.532   5.468 -0.3409 -0.8218  0.1557
18026TIP3    H175569   6.092   5.532   5.561 -0.2664  0.8686  0.1804
18026TIP3    H275570   6.060   5.440   5.445 -0.1650 -1.2732  1.7833
18027TIP3   OH275571   4.125   3.553   4.926  0.2518  0.5630  0.3672
18027TIP3    H175572   4.183   3.619   4.888  0.1417  0.6226  0.3007
18027TIP3    H275573   4.118   3.485   4.860  0.2635  0.5462  0.3833
18028TIP3   OH275574   5.285   3.767  15.739 -0.3224  0.3082 -0.2775
18028TIP3    H175575   5.274   3.744  15.831 -0.1808  1.6089  0.0832
18028TIP3    H275576   5.379   3.782  15.729  0.2854 -3.4081 -1.5516
18029TIP3   OH275577   1.825   0.600   5.992 -0.0434 -0.4064  0.0391
18029TIP3    H175578   1.865   0.522   5.953 -0.2030 -0.8692  0.7954
18029TIP3    H275579   1.811   0.659   5.918  1.4366 -0.4934 -0.3510
18030TIP3   OH275580   2.753   5.499  14.279 -0.0648 -0.2431  0.8995
18030TIP3    H175581   2.813   5.479  14.350 -1.1905 -0.3586  1.8458
18030TIP3    H275582   2.803   5.480  14.199  1.4424  0.4937  1.6096
18031TIP3   OH275583   1.891   2.124   5.223 -0.4031 -0.4610  0.1422
18031TIP3    H175584   1.864   2.044   5.267  1.0244  0.1925  2.3530
18031TIP3    H275585   1.955   2.095   5.157  1.9738 -1.0377  2.5396
18032TIP3   OH275586   2.662   4.492   2.335 -0.4551 -0.3240 -0.2681
18032TIP3    H175587   2.639   4.542   2.413 -0.3014 -0.6967  0.0169
18032TIP3    H275588   2.758   4.492   2.334 -0.4494 -1.0360  0.0083
18033TIP3   OH275589   6.473   0.318   5.281 -0.4239 -0.4043  0.3116
18033TIP3    H175590   6.501   0.407   5.303 -1.1325  0.2351 -1.2278
18033TIP3    H275591   6.554   0.268   5.273  0.1134  0.6175 -0.8336
18034TIP3   OH275592   0.905   5.790  16.302 -0.2941  0.1080 -0.5073
18034TIP3    H175593   0.992   5.757  16.281 -1.0868 -2.1885 -0.5387
18034TIP3    H275594   0.888   5.858  16.237  0.5425 -1.1221 -2.0879
18035TIP3   OH275595   5.713   1.379  13.650 -0.1020 -0.4547 -0.1634
18035TIP3    H175596   5.696   1.309  13.587 -0.8822 -0.4976  0.0811
18035TIP3    H275597   5.638   1.376  13.710  0.5632 -0.3403  0.6993
18036TIP3   OH275598   3.161   1.476  13.864 -0.4060  0.0643 -0.4688
18036TIP3    H175599   3.107   1.472  13.785  0.7991 -0.9591 -1.2579
18036TIP3    H275600   3.171   1.385  13.892 -1.5617  0.4526  1.4194
18037TIP3   OH275601   0.135   5.383  15.293 -0.1675 -0.5016  0.2066
18037TIP3    H175602   0.153   5.348  15.206 -0.0152  0.1624 -0.0312
18037TIP3    H275603   0.096   5.309  15.341  0.0188 -0.9531 -0.3274
18038TIP3   OH275604   3.431   1.165   1.801 -0.0845 -0.3223  0.6482
18038TIP3    H175605   3.438   1.077   1.764  2.4535 -0.5599  1.5172
18038TIP3    H275606   3.388   1.152   1.885 -0.2946 -0.6421  0.4954
18039TIP3   OH275607   0.573   6.496   3.767 -0.3814  0.0273 -0.2362
18039TIP3    H175608   0.645   6.498   3.703 -0.4195 -1.6950 -0.3887
18039TIP3    H275609   0.545   6.587   3.774  0.0915  0.3735 -2.1400
18040TIP3   OH275610   0.731   2.690   2.621 -0.2361 -0.6577 -0.1721
18040TIP3    H175611   0.694   2.604   2.642 -2.8559  0.1044 -1.2010
18040TIP3    H275612   0.676   2.752   2.669 -0.5793  0.5894 -2.0427
18041TIP3   OH275613   6.078   6.029  14.938  0.2830 -0.4021  0.5712
18041TIP3    H175614   6.093   6.061  15.027  1.3422  2.7486 -0.5876
18041TIP3    H275615   6.164   6.001  14.908  0.3657  0.5173 -0.1025
18042TIP3   OH275616   5.926   6.200  16.063  0.0308  0.3013  0.0603
18042TIP3    H175617   5.895   6.239  15.982  0.3259 -1.8111 -1.1401
18042TIP3    H275618   5.889   6.111  16.063  2.2334 -0.6944  0.8408
18043TIP3   OH275619   4.017   3.695  14.795  0.0441 -0.2246 -1.2159
18043TIP3    H175620   4.051   3.616  14.837 -1.6048  0.7234  2.3329
18043TIP3    H275621   3.941   3.666  14.745  0.8129 -1.1412 -1.8925
18044TIP3   OH275622   3.805   5.382  15.181  0.0191  0.0976 -0.1792
18044TIP3    H175623   3.710   5.387  15.192  0.1545  1.7668  0.5240
18044TIP3    H275624   3.839   5.447  15.243  1.7621 -2.1971  1.4327
18045TIP3   OH275625   1.297   1.950   2.019  0.2972 -0.5646  0.5594
18045TIP3    H175626   1.283   1.934   2.112 -0.6152 -1.2222  0.3132
18045TIP3    H275627   1.219   1.996   1.990  0.3465 -0.8178  0.0071
18046TIP3   OH275628   3.954   4.322   2.170  0.1478 -0.2396  0.3016
18046TIP3    H175629   3.896   4.395   2.149  0.8849 -0.1527 -1.5650
18046TIP3    H275630   4.038   4.345   2.131  1.3112 -0.6492  2.4364
18047TIP3   OH275631   2.689   2.800   2.246 -0.6885 -0.5240 -0.7564
18047TIP3    H175632   2.767   2.760   2.286 -1.4750 -2.5937 -1.1688
18047TIP3    H275633   2.636   2.725   2.219 -3.6203  0.7578  1.0188
18048TIP3   OH275634   1.042   5.060  16.004 -0.2603 -0.0692 -0.2444
18048TIP3    H175635   1.102   5.059  16.078  0.6958 -0.6946 -1.0032
18048TIP3    H275636   1.097   5.080  15.928 -0.9594 -0.8646 -0.9922
18049TIP3   OH275637   0.973   2.846  12.154 -0.0145 -0.5581 -0.5130
18049TIP3    H175638   0.932   2.928  12.179  0.8401 -0.2952  0.0565
18049TIP3    H275639   0.909   2.804  12.096 -1.2909 -0.3792  0.7112
18050TIP3   OH275640   1.480   5.257  12.519  0.1298  0.5027  0.3830
18050TIP3    H175641   1.408   5.195  12.508 -0.9469  1.5867  1.0020
18050TIP3    H275642   1.503   5.284  12.430  0.8457 -0.9897  0.0801
18051TIP3   OH275643   3.694   1.360   5.736  0.6450  0.5146 -0.0301
18051TIP3    H175644   3.645   1.278   5.743  0.2134  0.7064 -0.6797
18051TIP3    H275645   3.743   1.351   5.654  1.5385  0.4175  0.5021
18052TIP3   OH275646   1.588   0.505   1.067  0.0610 -0.8943  0.4669
18052TIP3    H175647   1.622   0.509   0.978 -0.1776 -0.4375  0.3944
18052TIP3    H275648   1.589   0.412   1.089 -0.3721 -1.0615 -0.2069
18053TIP3   OH275649   0.567   4.161  12.211 -0.1065  0.2224 -0.4041
18053TIP3    H175650   0.608   4.088  12.256 -0.3095 -0.1659 -0.8453
18053TIP3    H275651   0.493   4.186  12.267 -1.2401 -1.1899 -1.2035
18054TIP3   OH275652   4.422   1.088   0.181 -0.4159 -0.7054  0.1659
18054TIP3    H175653   4.356   1.157   0.189  1.7154  1.2945  1.2899
18054TIP3    H275654   4.476   1.115   0.106 -0.6938 -2.2252 -0.6278
18055TIP3   OH275655   1.199   2.863  14.128  0.0504  0.5221 -0.2817
18055TIP3    H175656   1.131   2.921  14.162 -0.4806 -0.8437  1.1310
18055TIP3    H275657   1.281   2.904  14.155 -0.3181  0.5195  0.9282
18056TIP3   OH275658   5.163   5.900   1.731 -0.0451  0.1941 -0.2531
18056TIP3    H175659   5.230   5.881   1.796 -1.1545 -5.3300 -0.2512
18056TIP3    H275660   5.082   5.906   1.781 -0.4630 -0.6078 -0.8131
18057TIP3   OH275661   0.924   0.084  10.880 -0.0145  0.1927  0.8107
18057TIP3    H175662   0.919   0.177  10.902 -2.6222  0.3343 -0.0100
18057TIP3    H275663   0.857   0.072  10.813  1.5815 -1.9366 -0.5098
18058TIP3   OH275664   2.510   3.007  14.692 -0.0659 -0.4031 -0.8288
18058TIP3    H175665   2.536   3.069  14.624 -0.7479  0.5245 -0.2664
18058TIP3    H275666   2.454   2.944  14.648  1.2348 -1.0897 -1.5683
18059TIP3   OH275667   2.685   2.275   0.268 -0.0721  0.6483  0.5854
18059TIP3    H175668   2.660   2.212   0.336  0.1635  0.6819  0.7025
18059TIP3    H275669   2.606   2.325   0.251 -0.2209  0.4181  0.6000
18060TIP3   OH275670   5.030   3.198  12.763 -0.1454  0.4026  0.3233
18060TIP3    H175671   5.056   3.160  12.847 -0.3980  0.1599  0.2930
18060TIP3    H275672   4.971   3.270  12.787 -3.6094 -2.1318  0.3323
18061TIP3   OH275673   6.302   6.014   3.715  0.4899  0.2614 -0.4317
18061TIP3    H175674   6.233   5.953   3.740  1.5089 -0.6665  0.2185
18061TIP3    H275675   6.264   6.101   3.731 -1.0228 -0.1720 -1.4879
18062TIP3   OH275676   6.280   0.397   0.818 -0.5356 -0.1723 -0.0447
18062TIP3    H175677   6.216   0.377   0.887 -0.4104 -1.7580 -0.3629
18062TIP3    H275678   6.251   0.347   0.742  0.8946 -0.6656 -0.2975
18063TIP3   OH275679   2.893   2.593   5.329 -0.1349 -0.4649 -0.1427
18063TIP3    H175680   2.806   2.615   5.294  0.0514  0.9273  0.2307
18063TIP3    H275681   2.915   2.510   5.287  0.0221  0.9996 -3.2510
18064TIP3   OH275682   5.624   5.405  11.672 -0.2037  0.1037  0.1799
18064TIP3    H175683   5.666   5.462  11.737 -1.4035  1.9793 -0.6136
18064TIP3    H275684   5.532   5.403  11.698 -0.2650 -1.1521 -0.0726
18065TIP3   OH275685   0.490   4.425   2.762 -0.1795 -0.1787  0.0650
18065TIP3    H175686   0.575   4.467   2.776 -0.2137 -0.7486  2.2756
18065TIP3    H275687   0.510   4.348   2.709  0.4449  0.4345 -0.6237
18066TIP3   OH275688   0.322   3.586  13.530 -0.2356  0.6433 -0.5337
18066TIP3    H175689   0.255   3.523  13.558  0.9036 -0.2153  0.3884
18066TIP3    H275690   0.346   3.632  13.610 -0.2475  1.4708 -1.0014
18067TIP3   OH275691   3.421   3.186   6.844 -0.3134 -0.2299  0.2102
18067TIP3    H175692   3.408   3.110   6.900 -0.3474 -1.0356 -0.8547
18067TIP3    H275693   3.427   3.150   6.755  1.3724  0.8387 -0.1614
18068TIP3   OH275694   2.356   0.524  15.850  0.6056 -0.0431  0.0947
18068TIP3    H175695   2.411   0.516  15.927  0.7203  0.9298  0.1151
18068TIP3    H275696   2.348   0.434  15.818  2.2729 -0.2012  0.0300
18069TIP3   OH275697   3.520   1.449   3.271 -0.2482  0.2301  0.2121
18069TIP3    H175698   3.434   1.447   3.230  0.0637  1.4225 -0.5801
18069TIP3    H275699   3.569   1.380   3.227 -0.0985  1.1100 -1.0640
18070TIP3   OH275700   1.654   3.501   4.225 -0.1028 -0.5144 -0.3367
18070TIP3    H175701   1.580   3.505   4.164  1.1670 -0.0849 -1.9397
18070TIP3    H275702   1.629   3.559   4.297 -1.4318 -0.6089 -0.6864
18071TIP3   OH275703   1.720   3.186  12.978 -0.0411 -0.0025  0.4904
18071TIP3    H175704   1.682   3.210  13.062 -1.4996  0.2193 -0.1913
18071TIP3    H275705   1.785   3.254  12.959 -0.0173  0.1821  1.2342
18072TIP3   OH275706   5.936   1.260  10.887 -0.6183 -0.0179 -0.1073
18072TIP3    H175707   5.848   1.294  10.871 -0.4634  0.8088  0.7100
18072TIP3    H275708   5.946   1.265  10.982  0.2331 -0.3096 -0.1799
18073TIP3   OH275709   6.540   3.154   3.378  0.5459 -0.2261 -0.0122
18073TIP3    H175710   6.462   3.101   3.366  0.7252 -0.1418 -1.7310
18073TIP3    H275711   6.605   3.094   3.415 -0.2270 -0.3541  1.1961
18074TIP3   OH275712   4.760   0.474  16.174  0.0788  0.8287 -0.5521
18074TIP3    H175713   4.805   0.554  16.198  0.1710  0.1144  1.8602
18074TIP3    H275714   4.827   0.418  16.135  1.1107  0.2539  1.8714
18075TIP3   OH275715   5.613   0.401   4.520 -0.0948  0.0952  1.0310
18075TIP3    H175716   5.686   0.459   4.497 -0.7662  0.6184  0.1611
18075TIP3    H275717   5.654   0.326   4.561  1.1385 -0.5819 -1.2811
18076TIP3   OH275718   5.150   6.220   6.774 -0.1227 -0.3334  0.0696
18076TIP3    H175719   5.113   6.262   6.697  0.0738 -0.8389 -0.3067
18076TIP3    H275720   5.089   6.148   6.793  0.6886 -1.2188 -0.6012
18077TIP3   OH275721   5.773   2.584  13.629 -0.3608 -0.0711 -0.6367
18077TIP3    H175722   5.723   2.637  13.692 -0.7584 -1.7954  0.5805
18077TIP3    H275723   5.793   2.645  13.558  0.1798  2.0140  1.1649
18078TIP3   OH275724   3.761   1.875   2.345  0.1615 -0.4494 -0.1300
18078TIP3    H175725   3.832   1.940   2.346 -0.4269  0.1997  0.2116
18078TIP3    H275726   3.681   1.927   2.347 -0.3259 -1.1865 -0.1159
18079TIP3   OH275727   1.971   0.769  13.835 -0.2857 -0.1328 -0.4821
18079TIP3    H175728   2.022   0.688  13.838 -0.5614 -0.2853  0.2924
18079TIP3    H275729   2.020   0.830  13.889 -0.8472 -0.2411  0.1632
18080TIP3   OH275730   5.375   4.232   6.857  0.2589 -0.2637  0.2092
18080TIP3    H175731   5.371   4.223   6.761  0.6412  0.6197  0.0940
18080TIP3    H275732   5.438   4.304   6.871 -0.7665  0.4879  1.0691
18081TIP3   OH275733   0.294   5.569   0.123  0.4522  0.4655  0.1417
18081TIP3    H175734   0.255   5.648   0.085  0.8746  0.7200  0.2309
18081TIP3    H275735   0.294   5.585   0.218 -3.3684 -1.3782  0.6656
18082TIP3   OH275736   1.464   0.785  12.578  0.1237 -0.1055  1.2214
18082TIP3    H175737   1.532   0.798  12.644  1.3313 -0.3279  0.0659
18082TIP3    H275738   1.470   0.862  12.522  0.1298 -0.5973  0.5239
18083TIP3   OH275739   0.739   3.915  13.614 -0.2045  0.3219 -0.5507
18083TIP3    H175740   0.680   3.986  13.641 -0.5907 -0.4497  0.7551
18083TIP3    H275741   0.827   3.949  13.629 -0.3839 -0.1937  2.2878
18084TIP3   OH275742   4.263   0.142  12.518 -0.0324  0.2005  0.1101
18084TIP3    H175743   4.190   0.123  12.459 -0.4044  0.4571  0.4804
18084TIP3    H275744   4.340   0.144  12.461 -0.1530 -1.1523 -0.1152
18085TIP3   OH275745   3.821   6.409  16.196  0.4982  0.2681 -0.2532
18085TIP3    H175746   3.831   6.472  16.267  2.0114  1.9688 -1.8190
18085TIP3    H275747   3.908   6.370  16.186  0.1901 -0.2928 -0.8444
18086TIP3   OH275748   6.287   1.568  12.203  0.1946  0.4122 -0.4203
18086TIP3    H175749   6.269   1.538  12.292  3.2124 -0.1052  0.1334
18086TIP3    H275750   6.292   1.663  12.210 -0.1059  0.4125 -0.1634
18087TIP3   OH275751   5.595   4.789   2.713  0.0619 -0.3323 -0.1695
18087TIP3    H175752   5.542   4.868   2.728 -1.1626 -1.1450 -0.0977
18087TIP3    H275753   5.649   4.782   2.791  0.0662  0.3409 -0.0988
18088TIP3   OH275754   4.369   3.362   4.598 -0.3469 -0.6314  0.2712
18088TIP3    H175755   4.337   3.314   4.674  0.3849 -1.0235  0.3404
18088TIP3    H275756   4.445   3.410   4.630 -0.6340  0.0004  0.0232
18089TIP3   OH275757   6.183   2.520   0.179 -0.0286 -0.1171  0.3206
18089TIP3    H175758   6.229   2.596   0.214  0.0635 -0.6067  1.2868
18089TIP3    H275759   6.240   2.487   0.110 -0.1012  0.7155 -0.1558
18090TIP3   OH275760   5.791   1.592  11.114 -0.4972  0.3863 -0.1401
18090TIP3    H175761   5.784   1.687  11.122  1.5042  0.5865 -0.0862
18090TIP3    H275762   5.885   1.575  11.123 -0.8210 -1.6026 -0.1496
18091TIP3   OH275763   6.247   3.052   1.549  0.0164 -0.3013  0.3973
18091TIP3    H175764   6.237   2.994   1.474  1.5918  0.2499 -0.2932
18091TIP3    H275765   6.196   3.130   1.526  0.3529 -0.2047 -0.0359
18092TIP3   OH275766   6.039   2.846  14.611 -0.1205  0.7078  0.2737
18092TIP3    H175767   5.992   2.814  14.533 -0.5135 -0.6179  1.0354
18092TIP3    H275768   6.131   2.834  14.590 -0.2286  0.2468  0.0389
18093TIP3   OH275769   3.491   0.237   4.439 -0.6870  0.3501  0.4062
18093TIP3    H175770   3.535   0.253   4.356 -0.2123 -0.5837  0.4544
18093TIP3    H275771   3.560   0.247   4.505 -0.3670 -1.6381  0.4421
18094TIP3   OH275772   0.468   2.887  11.493  0.3995 -0.0381  0.0249
18094TIP3    H175773   0.537   2.935  11.448 -1.3921 -1.1073 -4.3944
18094TIP3    H275774   0.397   2.950  11.504  0.5955  0.0505  0.8989
18095TIP3   OH275775   2.451   2.951  17.058  0.3245 -0.2307 -0.2208
18095TIP3    H175776   2.516   2.901  17.009  1.0908 -0.6148  1.1392
18095TIP3    H275777   2.391   2.885  17.094  1.4035 -0.2458  1.6736
18096TIP3   OH275778   1.490   1.120  16.358 -0.5739  0.2911 -0.4101
18096TIP3    H175779   1.472   1.129  16.452 -1.8687  1.5721 -0.7221
18096TIP3    H275780   1.556   1.186  16.340 -0.7689  0.4661 -0.4940
18097TIP3   OH275781   6.501   0.235   0.448  0.6644 -0.3019 -0.3817
18097TIP3    H175782   6.488   0.308   0.387 -1.6051 -0.6140 -0.3681
18097TIP3    H275783   6.449   0.163   0.410  0.2510 -0.8958  1.2314
18098TIP3   OH275784   3.289   3.610  15.008  0.8337 -0.4639 -0.3078
18098TIP3    H175785   3.270   3.703  15.016  0.7559 -0.3969 -1.1377
18098TIP3    H275786   3.207   3.572  14.975 -0.1385 -1.3250  2.7695
18099TIP3   OH275787   0.456   6.138   0.398 -0.0416 -0.3216  0.5666
18099TIP3    H175788   0.458   6.066   0.461 -0.3264  0.1261  1.0957
18099TIP3    H275789   0.363   6.151   0.380 -0.1437  1.1391  1.9260
18100TIP3   OH275790   1.272   6.118  15.374  0.5674 -0.0944 -0.2317
18100TIP3    H175791   1.232   6.031  15.378  1.1518 -0.4010  4.3765
18100TIP3    H275792   1.361   6.103  15.342  0.1071 -0.8834 -1.1733
18101TIP3   OH275793   1.018   4.257  16.509  0.2556 -0.4220  0.7405
18101TIP3    H175794   1.111   4.277  16.517  0.4505  0.2933 -2.2363
18101TIP3    H275795   0.976   4.311  16.576  1.8666  0.0425  1.4233
18102TIP3   OH275796   5.854   2.147  17.190 -0.5265 -0.2482  0.1095
18102TIP3    H175797   5.817   2.064  17.160 -1.1065 -0.3938  1.1748
18102TIP3    H275798   5.789   2.181  17.252  0.5125  0.1394  1.0128
18103TIP3   OH275799   2.660   4.034  17.175 -0.2801 -0.1734  0.3632
18103TIP3    H175800   2.693   4.111  17.221 -0.2128 -0.1327  0.2489
18103TIP3    H275801   2.607   4.070  17.103 -1.7920 -0.2304  1.3945
18104TIP3   OH275802   3.955   4.900   2.248  0.1086  0.0858 -0.1398
18104TIP3    H175803   4.048   4.909   2.269  0.5320  1.1853 -2.1545
18104TIP3    H275804   3.955   4.862   2.160 -1.3696 -0.4917  0.0943
18105TIP3   OH275805   3.382   5.582  14.876  0.2386 -0.2369 -0.6535
18105TIP3    H175806   3.404   5.497  14.914 -0.4547 -0.8164 -1.5000
18105TIP3    H275807   3.286   5.581  14.867  0.2493  0.5030 -0.9653
18106TIP3   OH275808   1.638   1.543  16.638 -0.0271  0.1569 -0.2253
18106TIP3    H175809   1.575   1.587  16.695 -1.2216 -1.0948 -0.5306
18106TIP3    H275810   1.584   1.488  16.580  1.3457 -1.1556 -0.3256
18107TIP3   OH275811   3.896   6.274  11.656  0.3115  0.0118  0.0244
18107TIP3    H175812   3.862   6.247  11.741 -1.2918  0.8286 -0.3226
18107TIP3    H275813   3.857   6.361  11.641  2.6653  1.0722 -0.3744
18108TIP3   OH275814   3.703   5.979   1.462  0.1859 -0.3519 -0.0372
18108TIP3    H175815   3.766   5.967   1.391  1.6691  0.0217  1.1581
18108TIP3    H275816   3.722   5.907   1.523 -1.6264 -1.1711 -0.3660
18109TIP3   OH275817   2.891   6.759  15.631  0.0708 -0.2084  0.4495
18109TIP3    H175818   2.836   6.816  15.685  0.4535 -0.1542  0.7931
18109TIP3    H275819   2.897   6.804  15.547 -1.2232 -0.7101  0.0695
18110TIP3   OH275820   2.338   4.491   6.153 -0.3211  0.4523 -0.5357
18110TIP3    H175821   2.416   4.467   6.203 -1.1779 -0.6117  0.3322
18110TIP3    H275822   2.277   4.526   6.219 -0.6658  1.0827 -1.1740
18111TIP3   OH275823   6.238   5.056  13.416  0.1206  0.5514  0.1945
18111TIP3    H175824   6.325   5.017  13.416 -0.1260 -0.0047  0.0135
18111TIP3    H275825   6.240   5.118  13.343 -0.2881 -0.9782 -1.1733
18112TIP3   OH275826   1.593   2.861  11.520  0.0409 -1.4494 -0.0965
18112TIP3    H175827   1.498   2.855  11.506 -0.2209 -1.1667  1.3384
18112TIP3    H275828   1.631   2.807  11.451 -1.2079 -2.2454 -0.2004
18113TIP3   OH275829   3.127   0.477   6.061  0.2343 -0.1816  0.2488
18113TIP3    H175830   3.173   0.557   6.037 -0.2865 -0.4262 -1.7635
18113TIP3    H275831   3.133   0.421   5.983  0.6647 -2.1602  1.6226
18114TIP3   OH275832   1.544   4.104   1.538 -0.0071 -0.6212  0.0461
18114TIP3    H175833   1.518   4.177   1.594  1.9444  0.1126  0.0601
18114TIP3    H275834   1.617   4.062   1.584  0.1123 -1.4365 -0.8381
18115TIP3   OH275835   3.255   1.747   5.328  0.0800 -0.1734 -0.5450
18115TIP3    H175836   3.240   1.818   5.266 -0.3881 -0.0954 -0.3448
18115TIP3    H275837   3.206   1.772   5.406  2.6645  0.9745  0.8296
18116TIP3   OH275838   4.715   4.578  11.641  0.2270  1.1947 -0.4804
18116TIP3    H175839   4.684   4.487  11.635  1.5117  0.6272  0.8879
18116TIP3    H275840   4.687   4.618  11.559 -0.2531 -0.4768 -1.1791
18117TIP3   OH275841   1.430   4.560  13.001 -0.4635  0.4718 -0.3871
18117TIP3    H175842   1.347   4.587  12.962 -0.7864  2.4276  1.4216
18117TIP3    H275843   1.423   4.465  13.009 -2.5163  0.5728 -0.3296
18118TIP3   OH275844   1.770   1.886   5.906 -0.3957 -0.2876 -0.6362
18118TIP3    H175845   1.806   1.905   5.993 -0.6647 -3.4114  0.2759
18118TIP3    H275846   1.843   1.905   5.846 -0.0630  1.4847  0.2527
18119TIP3   OH275847   6.248   6.372  14.094 -0.0835  0.6104 -0.0346
18119TIP3    H175848   6.244   6.283  14.057  0.2251  0.3331  0.5720
18119TIP3    H275849   6.282   6.359  14.183  1.6922  1.4951 -0.5235
18120TIP3   OH275850   4.072   4.542   0.587  0.1572  0.1978  0.0821
18120TIP3    H175851   4.033   4.461   0.621  1.2014 -0.1117  0.5710
18120TIP3    H275852   4.000   4.585   0.540 -0.6583 -0.5598  0.6025
18121TIP3   OH275853   5.106   3.672  15.524  0.2734  0.3599  0.3591
18121TIP3    H175854   5.181   3.697  15.579  0.2939  3.4913 -0.8581
18121TIP3    H275855   5.032   3.666  15.586  0.9808  0.0701  1.1965
18122TIP3   OH275856   2.837   6.377   3.111  0.0438 -0.5138  0.1092
18122TIP3    H175857   2.765   6.315   3.100 -0.4222  0.0027  0.2125
18122TIP3    H275858   2.874   6.357   3.196  0.6124 -1.3852 -0.3336
18123TIP3   OH275859   2.304   6.524   3.730  0.2984 -0.2966 -0.5170
18123TIP3    H175860   2.390   6.561   3.752  0.3806  0.6262 -2.2514
18123TIP3    H275861   2.312   6.497   3.639 -0.6298 -2.1535 -0.1002
18124TIP3   OH275862   6.599   3.389  13.992  0.3650 -0.1822 -0.0529
18124TIP3    H175863   6.562   3.396  13.904  0.7014 -1.1466 -0.2900
18124TIP3    H275864   6.556   3.458  14.043 -1.6093 -1.1344 -0.3698
18125TIP3   OH275865   1.591   0.440  11.722 -0.1253 -0.0728 -0.0228
18125TIP3    H175866   1.595   0.448  11.818  0.5746 -1.4622  0.0797
18125TIP3    H275867   1.681   0.453  11.693 -0.3947  0.7036 -0.5442
18126TIP3   OH275868   4.216   6.493   0.012  0.3443  0.7565  0.0830
18126TIP3    H175869   4.282   6.475  -0.056  0.3153  0.3513  0.1628
18126TIP3    H275870   4.134   6.498  -0.036  0.5426  2.2337 -0.1569
18127TIP3   OH275871   2.341   3.646  17.277 -0.3931 -0.1595  0.5509
18127TIP3    H175872   2.392   3.568  17.254  0.1539  0.5116 -0.5978
18127TIP3    H275873   2.263   3.641  17.221  0.4055  0.9016 -0.7291
18128TIP3   OH275874   4.442   3.260  16.353 -0.0119  0.2576 -0.1666
18128TIP3    H175875   4.525   3.213  16.344 -0.2762  0.1069 -2.2513
18128TIP3    H275876   4.460   3.327  16.419  1.9248  0.5454 -0.9119
18129TIP3   OH275877   0.138   1.687   2.271  0.5570  0.8029  0.5778
18129TIP3    H175878   0.097   1.623   2.330 -0.0571  1.5194  0.9444
18129TIP3    H275879   0.064   1.737   2.235  0.9100  0.3315 -0.8713
18130TIP3   OH275880   1.036   6.286   1.033 -0.1553  0.3099  0.6982
18130TIP3    H175881   1.016   6.312   0.943  2.2984  1.6861  0.4681
18130TIP3    H275882   0.950   6.266   1.071 -1.5278  2.0894 -1.2042
18131TIP3   OH275883   4.223   1.224   3.832 -0.4438  0.2384 -0.5142
18131TIP3    H175884   4.171   1.266   3.764  1.4469  1.4512 -1.2830
18131TIP3    H275885   4.200   1.131   3.826 -1.3759  0.5306 -1.8340
18132TIP3   OH275886   2.870   6.699   0.597 -0.3169 -0.0333  0.1028
18132TIP3    H175887   2.936   6.763   0.570 -0.1955  0.5120  1.6371
18132TIP3    H275888   2.805   6.701   0.527  0.6802  0.2959 -0.8480
18133TIP3   OH275889   3.186   0.947   2.428  0.3584  0.3959 -0.1593
18133TIP3    H175890   3.272   0.953   2.386  1.2443  1.1046  1.6463
18133TIP3    H275891   3.194   0.999   2.508 -0.9107 -1.6391  1.4067
18134TIP3   OH275892   4.783   2.689  15.932  0.0299  0.4181  0.5078
18134TIP3    H175893   4.771   2.784  15.940 -0.8036  0.5662 -1.6709
18134TIP3    H275894   4.876   2.678  15.912 -0.0512  0.8885 -0.1739
18135TIP3   OH275895   3.992   1.260   1.332  0.0754  0.0329  0.6029
18135TIP3    H175896   3.991   1.312   1.412 -0.3217  0.1474  0.5263
18135TIP3    H275897   4.029   1.175   1.358  0.2735  0.1869  0.8285
18136TIP3   OH275898   4.822   4.849  11.377 -0.1998 -0.2074 -0.2010
18136TIP3    H175899   4.810   4.852  11.282 -0.9392  0.3644 -0.0959
18136TIP3    H275900   4.746   4.799  11.409  0.1187 -0.5165  0.0807
18137TIP3   OH275901   2.781   1.290  16.743 -0.1590  0.0176 -0.3241
18137TIP3    H175902   2.780   1.383  16.766  0.9836 -0.2578  0.9507
18137TIP3    H275903   2.710   1.252  16.795 -0.0120  0.0297 -0.1102
18138TIP3   OH275904   2.203   1.254   1.102  0.1256  0.4250  0.0855
18138TIP3    H175905   2.135   1.288   1.043  0.6879  0.3719 -0.6004
18138TIP3    H275906   2.159   1.182   1.149 -0.9178  1.7366  1.1823
18139TIP3   OH275907   4.512   0.315  16.146 -0.1609 -0.0850  0.3387
18139TIP3    H175908   4.581   0.250  16.129  0.8928  1.1195 -0.2156
18139TIP3    H275909   4.559   0.390  16.185 -1.5102 -0.0648  2.0300
18140TIP3   OH275910   1.946   6.795   4.632  0.3029 -0.3268 -0.2937
18140TIP3    H175911   1.878   6.807   4.566 -0.5953  0.2643  0.7074
18140TIP3    H275912   2.027   6.824   4.589 -0.2374 -0.0846 -1.1674
18141TIP3   OH275913   2.452   0.223  15.295 -0.1096  0.6681  0.0742
18141TIP3    H175914   2.356   0.229  15.297 -0.2561  0.7996 -2.8698
18141TIP3    H275915   2.470   0.136  15.260  0.6596  1.7822 -2.5833
18142TIP3   OH275916   0.437   5.858  15.214  0.0263  0.1264 -0.0185
18142TIP3    H175917   0.385   5.894  15.286 -0.7592 -0.9976  0.0170
18142TIP3    H275918   0.437   5.926  15.148 -2.3693 -0.1531 -0.4216
18143TIP3   OH275919   6.459   4.104   4.694  0.2262  0.0561 -0.0804
18143TIP3    H175920   6.511   4.086   4.616  0.0875  1.3723 -0.4982
18143TIP3    H275921   6.384   4.154   4.662 -1.0576 -1.3667  0.5870
18144TIP3   OH275922   0.746   1.814   4.591  0.5431  0.6404  0.3349
18144TIP3    H175923   0.796   1.736   4.612  0.9357  1.7598  4.2588
18144TIP3    H275924   0.661   1.802   4.634  0.1165  1.8462 -0.1059
18145TIP3   OH275925   1.946   2.885   2.112  0.6792 -0.0824 -0.0090
18145TIP3    H175926   1.984   2.973   2.104  1.0092 -0.3052 -1.0454
18145TIP3    H275927   1.950   2.866   2.206 -0.3726  1.4195  0.3794
18146TIP3   OH275928   3.793   3.430   1.879 -0.2266  0.0696 -0.0738
18146TIP3    H175929   3.871   3.384   1.848 -0.5250  2.0213 -4.4891
18146TIP3    H275930   3.827   3.500   1.935  1.2418  0.5137 -1.4286
18147TIP3   OH275931   2.285   3.086  14.310  0.3609 -0.4952 -0.5930
18147TIP3    H175932   2.302   3.175  14.341  0.7475 -0.5575 -0.6182
18147TIP3    H275933   2.277   3.034  14.389  1.1996 -0.6275 -0.5826
18148TIP3   OH275934   3.084   6.302  15.968 -0.7777 -0.2857  0.3868
18148TIP3    H175935   3.079   6.206  15.969  0.3086 -0.3567  1.4536
18148TIP3    H275936   3.029   6.328  15.894 -2.1345 -1.6633  0.8549
18149TIP3   OH275937   0.287   1.261  13.283  0.2440  0.3274  0.6845
18149TIP3    H175938   0.304   1.179  13.330  1.0086  0.5958  0.8979
18149TIP3    H275939   0.281   1.236  13.191 -0.0826 -0.0451  0.8066
18150TIP3   OH275940   1.910   1.055  11.655  0.1307  0.4142  0.3666
18150TIP3    H175941   1.877   0.966  11.645  0.9184  0.1962 -0.3723
18150TIP3    H275942   1.940   1.079  11.568 -1.0931  1.8287  0.2888
18151TIP3   OH275943   6.242   2.276   5.102  0.4013  0.0333  0.5094
18151TIP3    H175944   6.237   2.324   5.019  3.0570 -3.6702 -2.1419
18151TIP3    H275945   6.167   2.216   5.100 -0.6631  1.2438  1.8793
18152TIP3   OH275946   5.130   4.854  12.052 -0.4541 -0.1584 -0.4360
18152TIP3    H175947   5.184   4.825  12.125 -0.6853  0.0498 -0.1814
18152TIP3    H275948   5.170   4.937  12.025 -0.5024 -0.1253 -0.4047
18153TIP3   OH275949   5.206   4.197   0.960 -0.3281 -0.7586 -0.7199
18153TIP3    H175950   5.175   4.190   1.050  1.5336  0.7750  0.0981
18153TIP3    H275951   5.282   4.138   0.956 -1.5088 -2.2718 -1.8645
18154TIP3   OH275952   2.065   1.370   2.173  0.3083  0.4259 -0.2469
18154TIP3    H175953   2.092   1.288   2.214  1.5439  0.7299 -0.4295
18154TIP3    H275954   2.085   1.437   2.238 -1.7756  0.5187  0.3866
18155TIP3   OH275955   6.173   3.004  11.562 -0.2060  0.0396  0.2738
18155TIP3    H175956   6.236   2.935  11.539  0.3840  0.5462  0.3244
18155TIP3    H275957   6.087   2.966  11.545  0.1493 -0.2979 -0.8523
18156TIP3   OH275958   6.086   4.322   6.327  0.2198 -0.1304  0.1023
18156TIP3    H175959   6.179   4.304   6.334  0.2406  0.0235  0.2290
18156TIP3    H275960   6.043   4.245   6.364  0.3149  0.2991  1.1517
18157TIP3   OH275961   4.263   0.352   1.730  0.0477  0.1465  0.1876
18157TIP3    H175962   4.269   0.275   1.787  0.5678  0.3556  0.4314
18157TIP3    H275963   4.334   0.340   1.667 -1.4694 -0.8577 -1.4317
18158TIP3   OH275964   2.728   2.478  10.756 -0.4577 -0.2280 -0.7600
18158TIP3    H175965   2.813   2.505  10.791 -0.4257  0.6431 -1.4761
18158TIP3    H275966   2.666   2.498  10.826 -0.3254  0.9946 -0.9780
18159TIP3   OH275967   3.499   1.172  16.384 -0.2997 -0.2695 -0.3371
18159TIP3    H175968   3.404   1.184  16.379 -0.2147  0.1041 -1.1212
18159TIP3    H275969   3.529   1.240  16.444 -0.3953  0.3359 -0.9763
18160TIP3   OH275970   5.978   1.619  15.085  0.5239 -0.4007 -0.0548
18160TIP3    H175971   5.907   1.667  15.043  0.1565  0.7198  1.7421
18160TIP3    H275972   5.940   1.533  15.104  0.2834 -0.4693 -0.7980
18161TIP3   OH275973   6.462   2.502  11.622 -0.0445 -0.1654 -0.3254
18161TIP3    H175974   6.529   2.551  11.669 -1.8200  2.0350  0.1000
18161TIP3    H275975   6.493   2.499  11.531  0.2021  1.6927 -0.3373
18162TIP3   OH275976   2.218   5.913   6.317 -0.0852  0.2246  0.5645
18162TIP3    H175977   2.211   5.819   6.299  2.8792 -0.5056  2.5568
18162TIP3    H275978   2.138   5.934   6.365 -0.8849 -1.2063 -0.0633
18163TIP3   OH275979   2.521   5.832  14.802  0.3366  0.6600  0.1782
18163TIP3    H175980   2.445   5.878  14.837 -1.6704 -2.5523  0.4015
18163TIP3    H275981   2.594   5.861  14.857 -1.4481  0.8805  2.5545
18164TIP3   OH275982   4.994   5.587  11.277  0.0230 -0.3793  0.8351
18164TIP3    H175983   5.080   5.576  11.317 -1.8737 -1.6776  5.1070
18164TIP3    H275984   4.945   5.642  11.339 -1.8973  1.6033 -2.1789
18165TIP3   OH275985   4.900   0.669  15.703 -0.1845  0.5655 -0.0641
18165TIP3    H175986   4.836   0.699  15.638  0.3038  0.7175 -0.4719
18165TIP3    H275987   4.852   0.672  15.786 -1.2067 -0.7759 -0.5523
18166TIP3   OH275988   6.609   2.444  16.491  0.3390 -0.2203  0.1461
18166TIP3    H175989   6.670   2.410  16.557  0.0243  0.8800  1.0286
18166TIP3    H275990   6.524   2.408  16.517  0.1419  0.5599  0.6098
18167TIP3   OH275991   1.161   4.669   4.102 -0.2697  0.0824  0.1130
18167TIP3    H175992   1.162   4.658   4.007  0.3875  0.7528  0.0371
18167TIP3    H275993   1.218   4.600   4.135  0.8440  0.8785 -0.1031
18168TIP3   OH275994   0.981   0.659   5.221 -0.1158  0.1767  0.2251
18168TIP3    H175995   1.057   0.636   5.167  0.3621 -1.7469  1.5997
18168TIP3    H275996   1.019   0.698   5.300 -0.4633 -1.4246  1.2209
18169TIP3   OH275997   1.485   4.094  13.706 -0.1491 -0.2699  0.6849
18169TIP3    H175998   1.540   4.062  13.777  0.6119  0.6008  0.5060
18169TIP3    H275999   1.546   4.124  13.639 -0.8307  0.5439  0.4050
18170TIP3   OH276000   6.445   3.808   4.312  0.4249  0.3776  0.3251
18170TIP3    H176001   6.523   3.835   4.264  0.9934  0.1866  1.1311
18170TIP3    H276002   6.439   3.713   4.297 -0.2600  0.5505 -0.5978
18171TIP3   OH276003   4.080   4.085  16.594  0.1108  0.0491  0.1152
18171TIP3    H176004   4.074   3.997  16.629 -1.1780  1.1102  2.8361
18171TIP3    H276005   3.989   4.114  16.586  0.5170  1.3228 -0.2329
18172TIP3   OH276006   3.594   3.680  13.956 -0.0094 -0.1730 -0.0223
18172TIP3    H176007   3.649   3.655  13.882  0.3470 -0.0493  0.2023
18172TIP3    H276008   3.605   3.608  14.018 -0.6324 -0.4815 -0.2568
18173TIP3   OH276009   1.928   3.295   0.438 -0.1718  0.0579  0.2147
18173TIP3    H176010   1.947   3.263   0.526  1.1533  0.5727  0.1450
18173TIP3    H276011   1.839   3.265   0.420 -0.5862  0.2214  1.8408
18174TIP3   OH276012   4.655   0.309   4.839 -0.0760  0.4529 -0.5017
18174TIP3    H176013   4.693   0.225   4.813  1.5035  0.9516  0.0593
18174TIP3    H276014   4.663   0.364   4.761 -2.8372 -0.3871 -1.5062
18175TIP3   OH276015   5.950   1.470  13.161  0.2616 -0.6877 -0.2369
18175TIP3    H176016   5.945   1.434  13.072  1.5563  0.2659 -0.7270
18175TIP3    H276017   5.997   1.553  13.151 -1.7238  0.6840  0.9971
18176TIP3   OH276018   1.100   1.089   4.130 -0.1634  0.1004 -0.6322
18176TIP3    H176019   1.185   1.062   4.165 -1.0809 -3.6817 -0.9795
18176TIP3    H276020   1.041   1.085   4.205 -0.3067  1.7301 -0.6144
18177TIP3   OH276021   1.437   5.885  11.860  0.4396 -0.4505 -0.1539
18177TIP3    H176022   1.383   5.959  11.889  0.7555 -0.3414  0.1720
18177TIP3    H276023   1.511   5.926  11.816  1.1711 -0.5090  0.9638
18178TIP3   OH276024   1.429   5.499  13.939 -0.4438 -0.9064  0.4168
18178TIP3    H176025   1.512   5.533  13.906 -0.8736  1.0690  1.2282
18178TIP3    H276026   1.437   5.505  14.034 -1.0126 -2.0026  0.5426
18179TIP3   OH276027   5.741   0.995  12.242 -0.0907 -0.2926 -0.8900
18179TIP3    H176028   5.787   0.911  12.230 -1.5101 -1.1551 -0.5540
18179TIP3    H276029   5.751   1.040  12.159  1.0248 -0.6287 -0.9514
18180TIP3   OH276030   2.914   0.669  11.944  0.0792  0.1957  0.0506
18180TIP3    H176031   3.007   0.649  11.949 -0.0850 -1.0199 -1.0163
18180TIP3    H276032   2.907   0.731  11.871  0.0325  0.0215 -0.0958
18181TIP3   OH276033   6.731   4.538  14.349 -0.6261 -0.1334  0.5479
18181TIP3    H176034   6.644   4.519  14.385 -0.6433 -0.1906  0.4772
18181TIP3    H276035   6.743   4.473  14.280 -0.9402  0.4887 -0.1046
18182TIP3   OH276036   2.824   0.532  12.430  0.0368  0.4955  0.5535
18182TIP3    H176037   2.888   0.463  12.414  0.7474  0.6572  2.3826
18182TIP3    H276038   2.875   0.603  12.469 -1.4458 -0.1488  4.0901
18183TIP3   OH276039   4.677   3.814  14.520 -0.0064  0.5000 -0.1851
18183TIP3    H176040   4.732   3.874  14.569 -0.1770 -0.0778  0.7338
18183TIP3    H276041   4.619   3.776  14.585  0.0836 -0.6404 -0.7482
18184TIP3   OH276042   5.440   0.529  16.117 -0.0371  0.3493 -0.2922
18184TIP3    H176043   5.493   0.455  16.089 -0.6225  0.4030 -1.5953
18184TIP3    H276044   5.502   0.602  16.126  0.3169  0.0652 -0.4229
18185TIP3   OH276045   2.716   5.748   4.043  0.4381 -0.2612  1.2010
18185TIP3    H176046   2.790   5.688   4.035  0.8346  0.3548 -0.1271
18185TIP3    H276047   2.755   5.830   4.075  0.8506  0.8214 -1.6957
18186TIP3   OH276048   5.134   3.932  11.138  0.0605 -0.4695 -0.0925
18186TIP3    H176049   5.066   3.949  11.073 -1.2099 -0.5593  1.1652
18186TIP3    H276050   5.119   3.998  11.206  0.9540 -0.7878  0.4275
18187TIP3   OH276051   1.408   0.267   0.255  0.1860  0.1199 -0.2349
18187TIP3    H176052   1.384   0.175   0.243  0.6944 -0.2251  1.1825
18187TIP3    H276053   1.345   0.300   0.319  0.4245  0.5683 -0.2278
18188TIP3   OH276054   3.449   2.910   5.319  0.2206 -0.1474 -0.4675
18188TIP3    H176055   3.441   2.815   5.309 -0.0621 -0.2213  0.3470
18188TIP3    H276056   3.541   2.924   5.342 -0.2319 -0.5054  1.8717
18189TIP3   OH276057   4.969   0.141   6.453 -0.4380  0.1987  0.2254
18189TIP3    H176058   4.888   0.128   6.502  0.8040 -0.5597  2.2191
18189TIP3    H276059   4.955   0.221   6.402 -2.3675  0.1404  0.6084
18190TIP3   OH276060   0.565   5.259   0.390  0.0316 -0.0961 -0.1028
18190TIP3    H176061   0.607   5.345   0.401  1.2878 -0.7509  0.3702
18190TIP3    H276062   0.501   5.255   0.462  0.9181 -0.0998  0.6996
18191TIP3   OH276063   2.787   4.590  12.057 -0.0285 -0.0118  0.0668
18191TIP3    H176064   2.705   4.547  12.036  0.1118 -0.2418 -0.0123
18191TIP3    H276065   2.851   4.519  12.064 -0.4654 -0.2503  3.4428
18192TIP3   OH276066   1.325   5.214  14.073 -0.2227 -0.3140 -0.0540
18192TIP3    H176067   1.259   5.283  14.058  0.3893  0.3439  0.2212
18192TIP3    H276068   1.286   5.136  14.035 -0.6485  0.3267 -0.9861
18193TIP3   OH276069   4.456   5.136  15.989 -0.4091 -0.1103  0.0183
18193TIP3    H176070   4.502   5.218  15.970 -0.0883 -0.2648  0.1302
18193TIP3    H276071   4.400   5.156  16.064  0.0672 -0.1371  0.3848
18194TIP3   OH276072   3.373   0.247   5.670  0.5769 -0.5326  0.5965
18194TIP3    H176073   3.316   0.298   5.612  1.2559 -0.3299  0.0996
18194TIP3    H276074   3.386   0.303   5.746  0.0007 -0.6410  0.7858
18195TIP3   OH276075   4.987   1.239   3.243 -0.0896 -0.3243  0.1377
18195TIP3    H176076   5.022   1.169   3.298  0.2195  2.1394  3.3765
18195TIP3    H276077   5.064   1.282   3.207 -0.2668 -1.1945 -1.3762
18196TIP3   OH276078   1.852   2.634   0.142  0.4950  0.2046  1.0833
18196TIP3    H176079   1.907   2.664   0.213  0.5442  4.8502 -0.5593
18196TIP3    H276080   1.910   2.633   0.065 -0.1795 -1.8353  0.5518
18197TIP3   OH276081   2.785   0.056   5.542  0.2616  0.1705  0.1937
18197TIP3    H176082   2.763   0.096   5.458 -0.2166 -0.6943 -0.0966
18197TIP3    H276083   2.860  -0.001   5.523 -0.2321 -0.4930  0.2249
18198TIP3   OH276084   5.316   3.208   4.198 -0.8152  0.2571  0.1290
18198TIP3    H176085   5.386   3.274   4.204 -1.3996  0.8652  0.3724
18198TIP3    H276086   5.242   3.255   4.159 -0.8498 -0.5815 -0.8549
18199TIP3   OH276087   3.460   0.378   1.655  0.0442  0.3859 -0.0253
18199TIP3    H176088   3.476   0.472   1.645  0.0921  0.4273  0.4055
18199TIP3    H276089   3.455   0.365   1.750  0.7945 -0.1775 -0.0578
18200TIP3   OH276090   6.130   6.364  11.696  0.2237 -0.3912 -1.0311
18200TIP3    H176091   6.186   6.413  11.757 -0.2552  0.6986 -1.4370
18200TIP3    H276092   6.072   6.313  11.753  0.2130  0.1175 -0.5746
18201TIP3   OH276093   4.848   2.623   4.115 -0.1630  0.1812  0.4720
18201TIP3    H176094   4.826   2.594   4.027 -1.2255  2.2484  0.0125
18201TIP3    H276095   4.941   2.601   4.125 -0.0465 -0.1559 -1.1241
18202TIP3   OH276096   1.723   1.528   2.803  0.9271 -0.7632  0.2342
18202TIP3    H176097   1.635   1.492   2.813  1.2697 -2.2109 -1.3634
18202TIP3    H276098   1.708   1.618   2.775  0.0081 -0.2446  2.2510
18203TIP3   OH276099   2.452   6.676   1.510  0.1900  0.1563 -0.2393
18203TIP3    H176100   2.409   6.743   1.457 -0.0339 -0.2063 -0.5253
18203TIP3    H276101   2.545   6.685   1.490  0.0275 -0.5781 -1.4181
18204TIP3   OH276102   3.635   4.691   2.844 -0.4612 -0.1638  0.6231
18204TIP3    H176103   3.668   4.629   2.778 -0.9659  0.5377 -0.3127
18204TIP3    H276104   3.632   4.640   2.924  0.7716 -0.8719  0.2580
18205TIP3   OH276105   1.820   4.799  12.106  0.0244  0.9835  1.2635
18205TIP3    H176106   1.910   4.786  12.077 -0.0389  0.5693  1.2459
18205TIP3    H276107   1.789   4.874  12.055 -0.1417  0.1604  0.1214
18206TIP3   OH276108   4.796   3.546  14.004  0.3568  0.0303 -0.0809
18206TIP3    H176109   4.827   3.602  14.074 -1.3439  0.2856  0.5067
18206TIP3    H276110   4.810   3.597  13.924  0.6097  0.4816  0.2506
18207TIP3   OH276111   5.862   5.595  14.765 -0.1547  0.0062  0.9436
18207TIP3    H176112   5.767   5.585  14.754  0.0598 -1.8411  0.5268
18207TIP3    H276113   5.879   5.685  14.738 -1.6989  0.1605  0.3717
18208TIP3   OH276114   5.274   0.935  14.655 -0.0265 -0.0247  0.2677
18208TIP3    H176115   5.362   0.899  14.664 -0.3532 -1.2185 -0.9379
18208TIP3    H276116   5.261   0.941  14.560 -1.0791  0.5640  0.4387
18209TIP3   OH276117   3.978   3.342   0.626  0.7325  0.0223 -0.1619
18209TIP3    H176118   3.968   3.250   0.601  3.2752 -0.5816  0.7213
18209TIP3    H276119   3.969   3.342   0.721  0.2628  0.7896 -0.2000
18210TIP3   OH276120   5.916   2.231  13.219 -0.0842  0.6069 -0.1129
18210TIP3    H176121   5.825   2.258  13.229  0.3322  2.2691 -0.3505
18210TIP3    H276122   5.912   2.143  13.183 -1.5670 -0.3183  2.1625
18211TIP3   OH276123   4.709   2.859  11.028  0.4597 -0.7803 -0.7333
18211TIP3    H176124   4.696   2.828  11.118 -0.2468  1.9507  0.1833
18211TIP3    H276125   4.622   2.858  10.990  0.2711  0.7680 -0.4046
18212TIP3   OH276126   0.000   2.589   0.032 -0.3212 -0.2252  0.1850
18212TIP3    H176127   0.072   2.548  -0.016 -0.5925  0.6869 -1.0468
18212TIP3    H276128   0.014   2.562   0.123  1.8450  0.2634  0.0650
18213TIP3   OH276129   1.282   3.427   2.989 -0.1193  0.1248 -0.5328
18213TIP3    H176130   1.330   3.506   3.013  0.7982 -0.5807 -0.0118
18213TIP3    H276131   1.210   3.424   3.053 -0.2179  0.5845 -0.6148
18214TIP3   OH276132   4.328   0.276  16.441  0.4366  0.5727  0.2260
18214TIP3    H176133   4.346   0.351  16.385 -0.2680  1.2321  0.8520
18214TIP3    H276134   4.414   0.246  16.470  0.9884 -0.9237 -2.5971
18215TIP3   OH276135   3.010   1.984   4.729  0.3146  0.2425 -0.8041
18215TIP3    H176136   3.041   1.910   4.781  1.0137  0.0944 -1.4106
18215TIP3    H276137   2.978   2.047   4.794 -0.8832 -0.8336 -0.3015
18216TIP3   OH276138   3.886   3.191   2.774 -0.6536 -0.1617  0.6448
18216TIP3    H176139   3.861   3.105   2.739 -0.2741  0.6769 -1.9415
18216TIP3    H276140   3.810   3.219   2.826 -1.1394 -1.6627  0.7812
18217TIP3   OH276141   2.564   1.974  11.149  0.9885 -0.6053  0.1631
18217TIP3    H176142   2.618   1.904  11.184 -0.8296 -1.8536  0.6126
18217TIP3    H276143   2.545   1.947  11.059  1.2303 -0.0855 -0.0497
18218TIP3   OH276144   5.166   5.388  15.684 -0.2015 -0.8959  0.2313
18218TIP3    H176145   5.195   5.441  15.758  0.5228 -2.1331  0.8627
18218TIP3    H276146   5.072   5.376  15.698  0.2386 -2.8315  2.1493
18219TIP3   OH276147   4.896   2.622   3.423 -0.8816 -0.2368 -0.3131
18219TIP3    H176148   4.837   2.603   3.495  1.2919 -0.2402  1.5844
18219TIP3    H276149   4.904   2.718   3.423  0.9726 -0.3338  1.1350
18220TIP3   OH276150   5.185   3.704   1.184  0.1499  0.6545  0.0054
18220TIP3    H176151   5.108   3.685   1.130  0.7276  1.4621 -1.1285
18220TIP3    H276152   5.173   3.649   1.262 -1.1101  0.0768 -0.5636
18221TIP3   OH276153   2.943   4.520   6.224 -1.0325 -0.8339 -0.3746
18221TIP3    H176154   3.035   4.527   6.199 -1.5957 -0.9834 -2.6796
18221TIP3    H276155   2.943   4.530   6.319  1.2257  0.4030 -0.4531
18222TIP3   OH276156   5.331   4.657  13.867  0.2963  0.2970 -0.3453
18222TIP3    H176157   5.250   4.606  13.871 -0.4153  1.4381  1.7058
18222TIP3    H276158   5.301   4.748  13.859  1.2323  0.9022  2.1305
18223TIP3   OH276159   6.595   6.711  12.001 -0.7989 -0.2951 -0.0606
18223TIP3    H176160   6.577   6.703  11.907 -0.8068 -1.0417 -0.0011
18223TIP3    H276161   6.672   6.766  12.007 -1.0795  0.1444 -0.4855
18224TIP3   OH276162   3.729   4.203  17.223 -0.2502 -0.1920 -0.0873
18224TIP3    H176163   3.680   4.134  17.179  1.1888 -1.3334  0.0293
18224TIP3    H276164   3.820   4.189  17.196  0.5670 -0.4026  2.5313
18225TIP3   OH276165   4.287   6.667  13.612  0.1240  0.1134 -0.8418
18225TIP3    H176166   4.267   6.677  13.704  0.2947  1.8646 -0.9589
18225TIP3    H276167   4.371   6.620  13.611  0.9450  1.4669 -0.0094
18226TIP3   OH276168   5.327   4.607  11.898 -0.2807  0.0526  0.3108
18226TIP3    H176169   5.244   4.566  11.875 -0.2563 -0.2252  0.7150
18226TIP3    H276170   5.385   4.534  11.922  0.2060  0.2128 -0.3535
18227TIP3   OH276171   2.488   5.448  13.057  0.7344  0.5489  0.0672
18227TIP3    H176172   2.540   5.385  13.007  2.6198  1.6613  0.5244
18227TIP3    H276173   2.509   5.533  13.017  1.7521  1.3751  2.2106
18228TIP3   OH276174   0.246   2.473   1.017 -0.5012  0.0996 -0.0046
18228TIP3    H176175   0.274   2.526   1.091  1.9757 -0.4234 -0.4840
18228TIP3    H276176   0.190   2.405   1.056 -0.5111  0.7403  1.1386
18229TIP3   OH276177   6.277   0.057  16.816  0.3371 -0.3815 -0.4393
18229TIP3    H176178   6.343   0.027  16.753 -0.7841 -0.8922 -1.4211
18229TIP3    H276179   6.227  -0.022  16.837  1.1891 -0.4022  1.7790
18230TIP3   OH276180   5.632   5.350  10.321  0.4648  0.4940 -0.1337
18230TIP3    H176181   5.590   5.434  10.299  1.3117  1.2873  1.0823
18230TIP3    H276182   5.700   5.374  10.385  0.4587 -1.1748  0.5530
18231TIP3   OH276183   5.496   0.952  16.272 -0.1333 -0.0322 -0.1001
18231TIP3    H176184   5.433   0.944  16.343  0.3929 -0.8621  0.2821
18231TIP3    H276185   5.455   1.012  16.210 -1.1992 -0.3813  0.2551
18232TIP3   OH276186   4.392   4.802   6.527  0.4834 -0.3450  0.2460
18232TIP3    H176187   4.316   4.745   6.517  0.8240 -0.4781 -2.2294
18232TIP3    H276188   4.453   4.751   6.579  0.0085 -1.4515 -0.2410
18233TIP3   OH276189   0.933   4.326   4.031  0.5150  0.4406 -0.3380
18233TIP3    H176190   0.896   4.323   4.119 -1.3568 -1.5548 -1.1055
18233TIP3    H276191   1.002   4.259   4.032  1.6040  1.5276  0.0119
18234TIP3   OH276192   4.110   3.695   0.134  0.0451  0.3754  0.3892
18234TIP3    H176193   4.199   3.704   0.100 -0.3478  0.0260 -0.7834
18234TIP3    H276194   4.064   3.642   0.069 -0.9462  0.2850  1.1252
18235TIP3   OH276195   3.991   2.048   3.646 -0.1691  0.3198 -0.1194
18235TIP3    H176196   4.034   2.108   3.707 -0.3979 -1.0089  1.4099
18235TIP3    H276197   3.923   2.005   3.698 -1.2604  0.0728 -1.6628
18236TIP3   OH276198   0.963   1.402   1.220 -0.1343  0.0381 -0.5016
18236TIP3    H176199   1.002   1.457   1.152  0.9841  0.0268  0.1133
18236TIP3    H276200   0.922   1.330   1.172  0.8207 -0.0798 -1.1663
18237TIP3   OH276201   2.292   5.745   2.401  0.1095 -0.3477  0.4364
18237TIP3    H176202   2.373   5.696   2.412  0.3044 -0.1690 -0.1351
18237TIP3    H276203   2.288   5.764   2.307  0.2260  1.0261  0.6830
18238TIP3   OH276204   6.158   5.817  17.113  0.2969  0.3373 -0.1502
18238TIP3    H176205   6.141   5.725  17.133  1.4623  0.2604  0.5726
18238TIP3    H276206   6.115   5.866  17.183  0.9450  0.2558  0.3180
18239TIP3   OH276207   5.734   0.639  15.360 -0.5316 -0.4216 -0.4692
18239TIP3    H176208   5.706   0.550  15.377 -0.9601 -0.2989 -0.5000
18239TIP3    H276209   5.661   0.677  15.309 -1.0555  0.4029  0.8449
18240TIP3   OH276210   0.640   1.965  14.828  0.6369  0.0814 -0.0726
18240TIP3    H176211   0.594   2.032  14.878  0.1741  0.9717 -1.6016
18240TIP3    H276212   0.580   1.945  14.755  1.5452 -0.6767 -0.6332
18241TIP3   OH276213   4.123   6.106   5.917 -0.3522 -0.5337 -0.1689
18241TIP3    H176214   4.166   6.069   5.840  0.5945 -1.7122  0.8784
18241TIP3    H276215   4.112   6.032   5.976 -1.1796  0.3184  0.7889
18242TIP3   OH276216   1.441   1.795  12.360 -0.3273  0.5134  0.0013
18242TIP3    H176217   1.400   1.837  12.436  0.0921  0.4719  0.2515
18242TIP3    H276218   1.488   1.867  12.316 -2.1675  0.9761 -1.3393
18243TIP3   OH276219   4.610   4.611  13.323 -0.4124 -0.1990  0.1313
18243TIP3    H176220   4.673   4.556  13.370 -0.1839 -1.3301 -1.4115
18243TIP3    H276221   4.659   4.690  13.302  0.3569 -0.8272 -0.5395
18244TIP3   OH276222   3.176   2.861   1.692 -0.2200  0.1100 -0.5327
18244TIP3    H176223   3.108   2.841   1.627 -0.0818  0.8779 -0.9223
18244TIP3    H276224   3.238   2.789   1.683 -0.2431  0.1628 -1.2065
18245TIP3   OH276225   4.090   3.204   5.164 -0.2024  0.1970 -0.5311
18245TIP3    H176226   4.068   3.296   5.157  0.2333  0.1643 -2.9433
18245TIP3    H276227   4.005   3.159   5.164 -0.5822  0.5866  3.0933
18246TIP3   OH276228   0.585   0.781  12.631 -0.3186  0.1565 -0.2278
18246TIP3    H176229   0.619   0.699  12.594  2.1560  1.2101 -0.5291
18246TIP3    H276230   0.525   0.815  12.565 -1.9680 -1.7055  0.2268
18247TIP3   OH276231   2.136   4.086  16.396 -0.7114  0.0362  0.4015
18247TIP3    H176232   2.156   4.122  16.309 -1.2896 -1.1202 -0.2369
18247TIP3    H276233   2.131   3.991  16.382 -0.3396 -0.2085  1.8065
18248TIP3   OH276234   2.322   0.963  16.376 -0.0444 -0.1230  0.4726
18248TIP3    H176235   2.275   1.040  16.346 -0.0302  0.2094  1.2768
18248TIP3    H276236   2.402   0.960  16.323 -0.4029 -0.0179 -0.0745
18249TIP3   OH276237   3.047   1.618   3.656 -0.1408 -0.5655  0.0231
18249TIP3    H176238   3.061   1.702   3.699  0.7944 -0.5495 -0.3072
18249TIP3    H276239   3.038   1.640   3.563  0.9748 -0.9127 -0.1732
18250TIP3   OH276240   3.607   0.271   6.529  0.1820 -0.0606 -0.1992
18250TIP3    H176241   3.632   0.194   6.479 -0.1229 -0.7740  0.7290
18250TIP3    H276242   3.567   0.237   6.609  0.4653  1.0573  0.4459
18251TIP3   OH276243   4.464   1.621  12.062 -0.7094  0.6180 -0.0570
18251TIP3    H176244   4.495   1.560  12.129 -0.9842 -1.2158 -1.4863
18251TIP3    H276245   4.369   1.610  12.061 -0.7919  1.3344 -0.0943
18252TIP3   OH276246   0.184   5.753   1.340  0.5290  0.4910 -0.5474
18252TIP3    H176247   0.207   5.846   1.346  0.0299  0.7310 -1.9070
18252TIP3    H276248   0.187   5.734   1.246 -0.8556 -0.4909 -0.4260
18253TIP3   OH276249   3.555   5.781  14.885 -0.3935  0.2683 -0.0344
18253TIP3    H176250   3.505   5.862  14.877 -0.5022  0.0992 -1.1443
18253TIP3    H276251   3.496   5.712  14.853  0.3334 -0.0044 -0.8314
18254TIP3   OH276252   4.648   1.204   4.345  0.0236  0.0424 -0.1726
18254TIP3    H176253   4.630   1.112   4.327  0.8052  0.1187 -1.4059
18254TIP3    H276254   4.599   1.252   4.278 -1.0988  0.5922  0.9948
18255TIP3   OH276255   0.147   3.647  16.582 -0.2826  0.4007  0.1028
18255TIP3    H176256   0.240   3.642  16.558 -0.2136 -1.9519  0.5769
18255TIP3    H276257   0.145   3.622  16.674 -1.2749  1.8309  0.4868
18256TIP3   OH276258   0.670   2.921  16.520 -0.2059  0.6642  0.1050
18256TIP3    H176259   0.608   2.885  16.455 -0.2899  1.7762 -0.4506
18256TIP3    H276260   0.681   3.012  16.494  1.1906  0.6476  0.5818
18257TIP3   OH276261   2.656   2.055  12.434  0.5858  0.3304  0.1408
18257TIP3    H176262   2.663   2.136  12.484  1.2474 -0.0583  0.6986
18257TIP3    H276263   2.712   1.993  12.481 -0.9107 -0.8218  0.4675
18258TIP3   OH276264   5.581   5.430   1.503  0.4584 -0.1325 -0.5307
18258TIP3    H176265   5.615   5.341   1.505  0.1273 -0.2503  0.2536
18258TIP3    H276266   5.642   5.478   1.446  1.7791 -0.4094  0.5894
18259TIP3   OH276267   6.672   5.811   0.555 -0.2072  0.2659 -0.2416
18259TIP3    H176268   6.586   5.841   0.584 -0.1689  2.0178 -1.7962
18259TIP3    H276269   6.664   5.715   0.556 -1.9410  0.3682  0.2579
18260TIP3   OH276270   5.572   0.048  13.092 -0.2979 -0.4926 -0.2830
18260TIP3    H176271   5.505   0.115  13.104 -0.5064 -0.6124 -0.7448
18260TIP3    H276272   5.523  -0.032  13.075 -0.0773 -1.0160  1.3900
18261TIP3   OH276273   4.589   6.581  10.906 -0.1757 -0.2220 -0.4960
18261TIP3    H176274   4.510   6.528  10.914 -1.0571  1.1657  0.2303
18261TIP3    H276275   4.626   6.582  10.994 -0.4391  0.7700 -0.3901
18262TIP3   OH276276   4.377   1.708   1.201 -0.2942  0.3153  0.3027
18262TIP3    H176277   4.459   1.756   1.216 -0.2060 -0.2919  2.0116
18262TIP3    H276278   4.342   1.693   1.289 -2.1142  0.3205 -0.3819
18263TIP3   OH276279   3.446   3.243   6.228  0.3052 -0.2969 -0.0202
18263TIP3    H176280   3.460   3.221   6.320 -1.9615  1.3831  0.8272
18263TIP3    H276281   3.489   3.328   6.217  0.1359 -0.2541 -0.3576
18264TIP3   OH276282   5.977   1.448   3.832  0.1939 -0.5478  0.2612
18264TIP3    H176283   6.027   1.530   3.835 -0.2463 -0.2423 -0.5602
18264TIP3    H276284   5.944   1.438   3.922 -1.0808  1.0392  0.0301
18265TIP3   OH276285   0.081   6.611  14.886 -0.4526  0.0298  0.0330
18265TIP3    H176286   0.134   6.639  14.961 -0.2214  1.3867 -0.5978
18265TIP3    H276287   0.138   6.627  14.811 -0.6397 -1.4301 -0.4343
18266TIP3   OH276288   5.684   5.786   0.730 -0.4552  0.3309  0.1622
18266TIP3    H176289   5.667   5.763   0.821  1.5428  2.5078  1.1780
18266TIP3    H276290   5.683   5.882   0.728  0.6553  0.3730 -1.8714
18267TIP3   OH276291   2.263   0.951  14.639  0.1558 -0.2715 -0.2996
18267TIP3    H176292   2.187   0.894  14.623  1.7864 -2.4850 -0.5595
18267TIP3    H276293   2.279   0.993  14.555 -0.3021 -0.4048 -0.4576
18268TIP3   OH276294   2.220   2.672   1.999  0.4935  0.0884 -0.3478
18268TIP3    H176295   2.130   2.647   1.976  0.8353 -1.8160  0.2107
18268TIP3    H276296   2.212   2.712   2.085  0.1142  0.4305 -0.5387
18269TIP3   OH276297   1.236   4.081   6.614  0.0311  0.2043 -0.1528
18269TIP3    H176298   1.242   4.116   6.703 -2.3069 -0.7264  0.4631
18269TIP3    H276299   1.211   3.990   6.626 -2.4617  0.5723 -1.7111
18270TIP3   OH276300   3.352   1.908  16.692 -0.3182  0.1699 -0.0615
18270TIP3    H176301   3.307   1.936  16.772  0.0555  0.7866 -0.0601
18270TIP3    H276302   3.445   1.922  16.710 -0.2515  0.5839 -0.7049
18271TIP3   OH276303   1.204   5.679  11.376  0.2715 -0.4523 -0.3007
18271TIP3    H176304   1.216   5.704  11.284  0.8110  0.4045 -0.0041
18271TIP3    H276305   1.239   5.753  11.426  0.4418 -1.1283  0.5982
18272TIP3   OH276306   5.505   4.874   6.426  0.0912 -0.1997 -0.0327
18272TIP3    H176307   5.470   4.895   6.513  3.3229 -0.8304  1.5517
18272TIP3    H276308   5.530   4.959   6.390 -2.8234  0.2638 -1.2025
18273TIP3   OH276309   2.226   3.966   1.306 -0.2447 -0.4365  0.7508
18273TIP3    H176310   2.233   4.062   1.302 -1.5024 -0.3298  0.6274
18273TIP3    H276311   2.249   3.945   1.397 -0.4835  0.0368  0.9258
18274TIP3   OH276312   5.809   2.592  15.546 -0.1555 -0.4178  0.2649
18274TIP3    H176313   5.719   2.560  15.534 -1.4310  3.1840 -1.1119
18274TIP3    H276314   5.799   2.670  15.599  1.8952  1.0574 -1.3771
18275TIP3   OH276315   6.422   5.777   4.809 -0.2641 -0.5632  0.4379
18275TIP3    H176316   6.433   5.843   4.879  0.9668 -1.6776  1.3426
18275TIP3    H276317   6.463   5.698   4.844  1.7001 -0.7938 -2.1148
18276TIP3   OH276318   1.993   0.199  15.803  0.7288 -0.4927  0.0741
18276TIP3    H176319   1.919   0.147  15.833  1.3747 -1.4646  0.0209
18276TIP3    H276320   2.015   0.163  15.717  0.6600  0.4292 -0.3441
18277TIP3   OH276321   3.699   2.358  16.941  0.1373 -0.1367 -0.1955
18277TIP3    H176322   3.724   2.300  16.868  2.2880  0.3836  0.0762
18277TIP3    H276323   3.643   2.424  16.901  2.0988  0.7358 -1.6442
18278TIP3   OH276324   5.524   4.550  16.698  0.3928 -0.1633 -0.1809
18278TIP3    H176325   5.436   4.542  16.662 -0.4158  0.5313  1.5018
18278TIP3    H276326   5.565   4.619  16.646  1.8169 -3.6418 -4.2401
18279TIP3   OH276327   5.406   1.920   5.617  0.1420  0.3411  0.0085
18279TIP3    H176328   5.379   1.849   5.676 -0.4879  0.2041 -0.4351
18279TIP3    H276329   5.403   1.882   5.530  0.2317  0.7864 -0.1916
18280TIP3   OH276330   3.817   2.240  13.394 -0.5288 -0.2541  0.2776
18280TIP3    H176331   3.732   2.255  13.436 -0.2938  1.7500  0.1575
18280TIP3    H276332   3.815   2.297  13.317 -0.3115 -2.6177 -1.5840
18281TIP3   OH276333   2.693   4.996  12.007 -0.2377 -0.2005 -0.6659
18281TIP3    H176334   2.767   4.964  11.955  1.3163 -0.4517  1.5496
18281TIP3    H276335   2.618   4.949  11.972  0.7146 -0.3348 -2.6589
18282TIP3   OH276336   0.854   2.873   0.705  0.1757  0.4400  0.6922
18282TIP3    H176337   0.922   2.807   0.721  0.3991  0.6716  0.7102
18282TIP3    H276338   0.822   2.897   0.792  0.4027  0.6722  0.7143
18283TIP3   OH276339   3.688   5.097  14.112 -0.1198 -0.8602 -0.2051
18283TIP3    H176340   3.659   5.072  14.200 -1.1077 -0.0772 -0.2887
18283TIP3    H276341   3.668   5.021  14.058  0.3151 -1.2751  0.2014
18284TIP3   OH276342   6.504   1.084   0.050  0.2839  0.0170 -0.7984
18284TIP3    H176343   6.515   0.991   0.033  0.9272 -0.0776  0.0481
18284TIP3    H276344   6.512   1.092   0.145 -0.5122  0.8436 -0.7860
18285TIP3   OH276345   6.357   0.816   0.237  0.3196 -0.2088 -0.5036
18285TIP3    H176346   6.404   0.900   0.241 -1.7654  0.9717  1.7297
18285TIP3    H276347   6.389   0.767   0.313  0.2548 -0.7217 -0.8022
18286TIP3   OH276348   1.288   0.896  16.086 -0.7644  0.2356  0.3034
18286TIP3    H176349   1.220   0.846  16.130 -0.0407  0.8521  2.2161
18286TIP3    H276350   1.267   0.987  16.104  0.6341  0.4341  1.0844
18287TIP3   OH276351   2.156   1.420  13.807 -1.1346  0.2092  0.3771
18287TIP3    H176352   2.234   1.379  13.845 -0.2027  0.2839 -1.3596
18287TIP3    H276353   2.177   1.514  13.807 -1.2437  0.2349 -0.0410
18288TIP3   OH276354   2.331   5.245   2.589 -0.0161  0.4593  0.1345
18288TIP3    H176355   2.266   5.309   2.560  0.2249  0.1529 -1.1407
18288TIP3    H276356   2.299   5.216   2.674  0.4723  3.0899  1.3028
18289TIP3   OH276357   3.010   3.614  15.609  0.1395 -0.2203 -0.5029
18289TIP3    H176358   2.929   3.637  15.654  0.9627  0.0107  0.9197
18289TIP3    H276359   3.002   3.521  15.590  0.8569 -0.9935  2.5716
18290TIP3   OH276360   4.211   1.746   6.140  0.3773 -0.5318 -0.4115
18290TIP3    H176361   4.240   1.818   6.085  0.3427 -0.0796  0.1482
18290TIP3    H276362   4.248   1.765   6.226 -1.3809 -0.0443  0.2816
18291TIP3   OH276363   0.764   4.217   5.816 -0.0743 -0.0982 -0.0933
18291TIP3    H176364   0.790   4.200   5.907 -0.7307 -1.7425 -0.1880
18291TIP3    H276365   0.827   4.168   5.763  1.1406  1.9216 -0.6347
18292TIP3   OH276366   6.369   1.793   5.263 -0.2068 -0.6398 -0.1559
18292TIP3    H176367   6.399   1.731   5.197 -1.9645 -1.6403 -0.0540
18292TIP3    H276368   6.439   1.794   5.328  0.9798 -0.5841 -1.3948
18293TIP3   OH276369   3.069   0.758  14.972  0.1144 -0.1628  0.3360
18293TIP3    H176370   3.114   0.683  15.011 -0.3189  0.0461  1.2568
18293TIP3    H276371   3.092   0.754  14.879  0.0864 -1.4357  0.3716
18294TIP3   OH276372   5.945   2.740  12.376  0.0480 -0.1573  0.1153
18294TIP3    H176373   6.014   2.704  12.321  1.2872  1.7828  0.3001
18294TIP3    H276374   5.944   2.833  12.355  1.3666  0.9317  4.0772
18295TIP3   OH276375   3.981   5.841   6.373 -0.7018 -0.0758 -0.2418
18295TIP3    H176376   3.906   5.792   6.407 -2.1594  2.1152 -0.1513
18295TIP3    H276377   4.018   5.886   6.449 -2.3534  2.7220 -0.9607
18296TIP3   OH276378   5.594   5.186   1.161  0.2902 -0.0710  0.4926
18296TIP3    H176379   5.501   5.208   1.169  0.0805 -0.9559  0.6111
18296TIP3    H276380   5.639   5.258   1.205 -0.2050  1.4738 -1.3983
18297TIP3   OH276381   5.193   1.611  15.032  0.1615 -0.0288 -0.2934
18297TIP3    H176382   5.265   1.662  14.995  0.5917  0.7472  1.4792
18297TIP3    H276383   5.122   1.674  15.044 -1.0965 -0.9108 -2.5715
18298TIP3   OH276384   5.262   2.898  16.247 -0.0494 -0.2743 -0.0225
18298TIP3    H176385   5.166   2.900  16.244 -0.0820 -0.0819  0.8233
18298TIP3    H276386   5.289   2.929  16.161 -0.7454 -1.1941 -0.6000
18299TIP3   OH276387   1.306   1.172  16.133  0.3243 -0.1701  1.0347
18299TIP3    H176388   1.367   1.146  16.202 -1.2979  0.4162  2.7831
18299TIP3    H276389   1.347   1.247  16.091  2.8271 -2.3972 -0.8799
18300TIP3   OH276390   5.346   6.618   6.290 -0.0720 -0.1787 -0.1013
18300TIP3    H176391   5.283   6.690   6.296  0.2261  0.3429 -2.2955
18300TIP3    H276392   5.299   6.541   6.321 -1.2785  0.4979 -0.2038
18301TIP3   OH276393   6.121   0.183   5.675  0.3796 -0.0483 -0.0952
18301TIP3    H176394   6.125   0.139   5.590 -1.3568  0.4124 -0.4484
18301TIP3    H276395   6.065   0.126   5.728  1.5081 -0.3710  0.7982
18302TIP3   OH276396   4.604   6.139  16.636  0.4058  0.0485 -0.2702
18302TIP3    H176397   4.518   6.168  16.667  0.0785 -0.4064 -0.7300
18302TIP3    H276398   4.620   6.192  16.557 -0.5354 -1.4831 -1.5513
18303TIP3   OH276399   0.398   2.989  12.412 -0.3108  0.6385 -0.4196
18303TIP3    H176400   0.309   2.993  12.379 -1.0250  0.6474  1.4291
18303TIP3    H276401   0.390   3.000  12.507  1.6084  0.2016 -0.1587
18304TIP3   OH276402   1.876   5.616  14.932  0.2919 -0.5324 -0.8888
18304TIP3    H176403   1.800   5.674  14.923  0.9936  0.5035 -0.2071
18304TIP3    H276404   1.933   5.640  14.859  1.2742  0.7194  0.2542
18305TIP3   OH276405   2.579   5.776  12.303  0.3638  0.0241 -0.2770
18305TIP3    H176406   2.612   5.827  12.377 -0.5310 -0.5389  0.5180
18305TIP3    H276407   2.501   5.822  12.274 -0.2523 -0.6926  0.2217
18306TIP3   OH276408   5.853   2.593   0.809 -0.5275  0.6794 -0.3109
18306TIP3    H176409   5.909   2.658   0.767 -1.1634  1.2676 -0.2691
18306TIP3    H276410   5.769   2.601   0.764 -0.3930 -0.6995 -0.8759
18307TIP3   OH276411   3.432   3.027  15.305  0.4182 -0.6387  0.7021
18307TIP3    H176412   3.434   3.102  15.246 -2.6913 -0.3168  0.7957
18307TIP3    H276413   3.440   3.065  15.393  0.1107 -0.5461  0.6916
18308TIP3   OH276414   3.187   4.223  15.875  0.2834  0.1685  0.2450
18308TIP3    H176415   3.155   4.313  15.881 -0.3975 -0.1498  1.8586
18308TIP3    H276416   3.266   4.222  15.929 -0.7175 -0.6015  1.7537
18309TIP3   OH276417   2.954   5.442   6.677 -0.3243  0.3871  0.0491
18309TIP3    H176418   2.996   5.510   6.729 -1.2288  0.5857  0.5423
18309TIP3    H276419   2.980   5.360   6.720  2.9174  0.1387 -2.0481
18310TIP3   OH276420   2.995   0.240  13.036 -0.0197 -0.2250  0.4788
18310TIP3    H176421   3.011   0.222  13.129 -0.9805 -0.5848  0.5847
18310TIP3    H276422   3.065   0.302  13.012 -1.3591  2.1282  2.1782
18311TIP3   OH276423   1.564   0.056   1.488 -0.0624 -0.3129 -0.0053
18311TIP3    H176424   1.489   0.001   1.510 -1.3025  1.4858  0.5330
18311TIP3    H276425   1.614   0.061   1.569  0.1835 -0.8212 -0.1224
18312TIP3   OH276426   3.908   5.094   3.057 -0.0490  0.4116 -0.1813
18312TIP3    H176427   3.847   5.038   3.008  0.2487  0.8287 -1.0461
18312TIP3    H276428   3.955   5.034   3.115 -0.1686 -0.1441 -0.6523
18313TIP3   OH276429   6.339   2.216   1.402 -0.1474 -0.0506 -0.2062
18313TIP3    H176430   6.353   2.144   1.340  0.3646  0.4966 -0.7306
18313TIP3    H276431   6.397   2.286   1.372 -0.3411  0.4418  0.5384
18314TIP3   OH276432   4.563   3.711  12.448  0.4673  0.0429  0.3374
18314TIP3    H176433   4.623   3.640  12.470  1.0249  0.7169  1.0825
18314TIP3    H276434   4.519   3.732  12.531 -0.3770 -0.0491 -0.0744
18315TIP3   OH276435   5.049   6.509  12.937  0.6454 -0.2053 -0.0554
18315TIP3    H176436   4.977   6.561  12.903  1.1089  0.3360 -0.2328
18315TIP3    H276437   5.119   6.519  12.872  0.9090 -0.6527  0.1502
18316TIP3   OH276438   2.127   6.079   3.991  0.1222  0.5503  0.0913
18316TIP3    H176439   2.084   5.998   3.963 -0.2268  0.6675  0.2810
18316TIP3    H276440   2.202   6.088   3.932  0.0792  0.1647 -0.0234
18317TIP3   OH276441   6.040   4.676   5.305  0.0855  0.2087  0.0471
18317TIP3    H176442   6.061   4.621   5.380 -0.7436 -0.7226 -0.3762
18317TIP3    H276443   5.945   4.687   5.310  0.3630  2.9983  1.0525
18318TIP3   OH276444   6.759   4.871   5.531  0.3034 -0.1699  0.1428
18318TIP3    H176445   6.796   4.888   5.617 -1.7674 -1.1534  1.3119
18318TIP3    H276446   6.767   4.776   5.519  1.3086  0.0450 -1.1492
18319TIP3   OH276447   0.189   6.569  11.330  0.0564  0.3310  0.3790
18319TIP3    H176448   0.097   6.556  11.307  0.3571 -0.0143 -0.6638
18319TIP3    H276449   0.204   6.511  11.404 -0.3301 -0.3127 -0.0451
18320TIP3   OH276450   3.963   3.598  14.171 -0.6402  0.2194  0.5313
18320TIP3    H176451   4.020   3.546  14.115 -1.3956 -0.1884  0.1347
18320TIP3    H276452   3.943   3.676  14.119  0.4344  0.9133  1.0967
18321TIP3   OH276453   6.613   3.168   5.042  0.0170  0.0255 -0.5384
18321TIP3    H176454   6.659   3.086   5.025 -0.1231  0.3361 -2.7292
18321TIP3    H276455   6.520   3.146   5.034 -0.0071  0.4636 -1.5940
18322TIP3   OH276456   5.554   2.182  16.648 -0.5843 -0.1221 -0.3332
18322TIP3    H176457   5.470   2.148  16.618 -1.0623 -1.5840  2.3477
18322TIP3    H276458   5.533   2.230  16.728  1.1653 -1.1759  0.8373
18323TIP3   OH276459   6.288   5.395  15.562 -0.1325  0.3944 -0.0839
18323TIP3    H176460   6.375   5.403  15.599  0.2529  0.1312 -0.9176
18323TIP3    H276461   6.299   5.414  15.469 -0.6889 -1.2013 -0.5074
18324TIP3   OH276462   0.586   4.341  16.961 -0.2300 -0.2176 -0.1311
18324TIP3    H176463   0.598   4.393  17.041 -0.9699  0.4569 -0.4484
18324TIP3    H276464   0.535   4.397  16.903 -2.9225 -2.0569  0.2782
18325TIP3   OH276465   4.535   5.620   4.503 -0.8451 -0.1918  0.3012
18325TIP3    H176466   4.442   5.635   4.520 -1.0463  2.3168 -2.2614
18325TIP3    H276467   4.543   5.625   4.408  2.0593  0.8334  0.4875
18326TIP3   OH276468   5.978   4.355   6.078  0.2203  0.7439  0.1546
18326TIP3    H176469   6.046   4.328   6.141  1.8451  0.3960 -1.6530
18326TIP3    H276470   5.976   4.451   6.086  0.0751  0.6752  1.0441
18327TIP3   OH276471   4.831   4.872  11.075 -0.1025  0.2979 -0.2183
18327TIP3    H176472   4.736   4.863  11.069 -0.1442  0.1786  0.5286
18327TIP3    H276473   4.851   4.952  11.025 -0.6127  0.4244 -0.2214
18328TIP3   OH276474   2.071   6.299  11.372 -0.1631  0.6674  0.3303
18328TIP3    H176475   2.047   6.387  11.341  1.2720  1.7451  2.1222
18328TIP3    H276476   2.038   6.241  11.303 -0.4961  2.6350 -1.2896
18329TIP3   OH276477   0.138   3.710  11.402 -0.2816  0.0181 -0.1210
18329TIP3    H176478   0.155   3.745  11.315 -0.7952 -1.0605 -0.6699
18329TIP3    H276479   0.196   3.634  11.409  2.0796  1.8329  1.7021
18330TIP3   OH276480   6.337   0.243   4.474 -0.4570 -0.6748 -0.6091
18330TIP3    H176481   6.389   0.201   4.405 -0.6916 -0.8830 -0.6599
18330TIP3    H276482   6.359   0.195   4.553  3.2107  2.2581  0.4119
18331TIP3   OH276483   3.015   6.708   1.707 -0.1184 -0.2148 -0.0769
18331TIP3    H176484   3.084   6.658   1.663  1.1119  1.3449 -0.0064
18331TIP3    H276485   2.955   6.733   1.637 -3.1369 -5.0801  0.3075
18332TIP3   OH276486   3.772   3.432   4.470  0.3514 -0.0296  0.4447
18332TIP3    H176487   3.853   3.473   4.439  0.9436 -2.2327 -1.1779
18332TIP3    H276488   3.783   3.339   4.450 -2.2963 -0.5135  0.8617
18333TIP3   OH276489   5.670   4.293  10.934  0.1002 -0.7169  0.1449
18333TIP3    H176490   5.620   4.345  10.871  0.5618 -2.2136 -1.5554
18333TIP3    H276491   5.746   4.348  10.955 -0.0258 -0.2020 -0.6854
18334TIP3   OH276492   0.892   3.601  13.177  0.5443 -0.2639  1.6280
18334TIP3    H176493   0.822   3.665  13.186  0.5735 -0.0424  0.4215
18334TIP3    H276494   0.872   3.534  13.242 -1.5867 -0.9309  0.3674
18335TIP3   OH276495   0.403   5.021  15.840 -0.4270 -0.9090 -0.0937
18335TIP3    H176496   0.330   4.960  15.852  0.4561 -2.3531 -1.6746
18335TIP3    H276497   0.363   5.108  15.851 -2.4241 -1.6406 -1.0344
18336TIP3   OH276498   0.227   4.266   4.682  0.2270 -0.0569  0.0974
18336TIP3    H176499   0.135   4.290   4.688  0.8285  2.3868  0.6484
18336TIP3    H276500   0.230   4.175   4.712 -1.9100  0.0050  0.6594
18337TIP3   OH276501   4.494   4.579   6.244  0.6334  0.1868  0.5519
18337TIP3    H176502   4.461   4.489   6.251  2.0741 -0.3390  0.8381
18337TIP3    H276503   4.550   4.590   6.321  0.2309  1.4523  0.6874
18338TIP3   OH276504   6.103   1.024   4.585 -0.1748 -0.3499  0.0124
18338TIP3    H176505   6.031   1.060   4.534 -0.2849 -0.6391 -0.0408
18338TIP3    H276506   6.069   1.014   4.673 -0.8055 -2.1887 -0.3984
18339TIP3   OH276507   3.357   1.108  12.676  0.1240  0.8547  0.0515
18339TIP3    H176508   3.442   1.074  12.648 -1.7536 -2.1754 -2.6703
18339TIP3    H276509   3.351   1.194  12.635  1.5339  0.7695 -0.3853
18340TIP3   OH276510   4.519   1.272  13.337 -0.1573  0.3815 -0.4798
18340TIP3    H176511   4.443   1.215  13.350  0.2626 -0.4865 -1.5605
18340TIP3    H276512   4.543   1.258  13.245  1.4383  0.4465 -0.1113
18341TIP3   OH276513   6.451   3.540   2.529  0.0678  0.0922  0.2302
18341TIP3    H176514   6.388   3.597   2.574  0.7268  0.4470  0.7262
18341TIP3    H276515   6.481   3.479   2.597  1.1105  0.6622  0.2993
18342TIP3   OH276516   5.415   5.193  12.760 -0.0362  0.5494  0.1928
18342TIP3    H176517   5.336   5.176  12.710 -0.5314  2.6160  0.2058
18342TIP3    H276518   5.414   5.287  12.777  1.7210  0.4101  1.3886
18343TIP3   OH276519   6.283   5.327   5.057 -0.2147 -0.0127  0.0222
18343TIP3    H176520   6.350   5.259   5.050  0.9123  1.0002  0.6578
18343TIP3    H276521   6.284   5.352   5.149 -0.7653  0.7149 -0.1674
18344TIP3   OH276522   6.163   5.899  13.746  0.5530  0.3064  0.1695
18344TIP3    H176523   6.087   5.880  13.800  0.8192 -2.3086 -0.2291
18344TIP3    H276524   6.169   5.994  13.745 -0.1156  0.5325  3.7927
18345TIP3   OH276525   4.933   3.717  12.153  0.2222 -0.1462  0.0723
18345TIP3    H176526   4.880   3.773  12.209  1.4045  0.0684  1.0104
18345TIP3    H276527   5.005   3.687  12.209  0.9086 -0.7078 -1.0619
18346TIP3   OH276528   2.866   5.227  17.080 -0.1844 -0.0917 -0.1082
18346TIP3    H176529   2.933   5.182  17.132 -1.3973  1.3575  2.9919
18346TIP3    H276530   2.799   5.160  17.064  0.3065 -0.6218  0.0318
18347TIP3   OH276531   0.854   0.120   6.461 -0.1555 -0.2892 -0.0472
18347TIP3    H176532   0.806   0.038   6.467 -1.7908  0.4591 -1.6841
18347TIP3    H276533   0.833   0.166   6.543  0.0114 -1.0879  0.4546
18348TIP3   OH276534   6.203   5.992   0.666  0.1697  0.1017  0.0892
18348TIP3    H176535   6.113   5.971   0.643  0.5636 -1.1343 -0.3891
18348TIP3    H276536   6.239   6.031   0.586 -0.0866  1.1253  0.4577
18349TIP3   OH276537   2.334   4.124  13.364 -0.2904  0.2324 -0.0516
18349TIP3    H176538   2.317   4.158  13.452  0.4200  3.0550 -0.9052
18349TIP3    H276539   2.423   4.092  13.368 -0.7096 -0.9062  0.5765
18350TIP3   OH276540   2.366   1.531  15.776  0.0757  1.0752  0.7058
18350TIP3    H176541   2.280   1.565  15.802 -2.2335 -3.4501  0.0273
18350TIP3    H276542   2.390   1.471  15.846  2.4820  1.7744  0.5723
18351TIP3   OH276543   0.566   4.911  15.363  0.1918  0.9813  0.2755
18351TIP3    H176544   0.478   4.882  15.386 -0.4199  1.8115 -0.9172
18351TIP3    H276545   0.584   4.984  15.422  1.1916 -0.8325  2.3494
18352TIP3   OH276546   1.804   6.677   3.667  0.1539  0.3324 -0.3436
18352TIP3    H176547   1.738   6.664   3.599 -0.3320  0.0121  0.1787
18352TIP3    H276548   1.887   6.679   3.620 -0.2197  0.6553 -1.0013
18353TIP3   OH276549   3.216   0.349  11.563  0.5459  0.1894 -0.6934
18353TIP3    H176550   3.203   0.254  11.560 -2.7099  0.5157 -3.4110
18353TIP3    H276551   3.136   0.383  11.604  0.8126  1.7871 -1.4159
18354TIP3   OH276552   0.873   0.892   1.341 -0.1471  0.6647 -0.0543
18354TIP3    H176553   0.812   0.895   1.414 -0.2808  1.2798 -0.1888
18354TIP3    H276554   0.847   0.814   1.291  1.6784 -1.4098  2.0215
18355TIP3   OH276555   4.966   1.050  11.640  1.0112  0.3052 -0.1799
18355TIP3    H176556   4.972   1.078  11.549  1.5396 -1.1628 -0.6382
18355TIP3    H276557   4.979   1.130  11.692  1.8024  0.9759 -1.3857
18356TIP3   OH276558   1.226   2.006   5.330 -0.3188  0.0801 -0.0480
18356TIP3    H176559   1.150   1.957   5.297 -0.3887 -0.3120  0.6911
18356TIP3    H276560   1.220   1.999   5.425  0.1223  0.8528  0.0409
18357TIP3   OH276561   2.221   3.505  11.064  0.4610 -0.4206 -0.0681
18357TIP3    H176562   2.252   3.456  11.141 -0.4865 -0.2110  0.4584
18357TIP3    H276563   2.172   3.441  11.013 -2.6792  0.3326  1.6968
18358TIP3   OH276564   6.706   2.187  17.182  0.0243  0.3708  0.6174
18358TIP3    H176565   6.764   2.201  17.257 -0.8098 -0.9347  1.5528
18358TIP3    H276566   6.736   2.104  17.144 -1.1658 -0.3099  1.0985
18359TIP3   OH276567   5.250   1.337   4.767 -0.2090 -0.4211 -0.0070
18359TIP3    H176568   5.211   1.396   4.831 -2.7817 -2.3111  0.3345
18359TIP3    H276569   5.340   1.325   4.797  0.2010  2.6239  0.3143
18360TIP3   OH276570   4.299   1.828  13.319  0.0582 -0.4642 -0.1620
18360TIP3    H176571   4.386   1.850  13.353 -0.2526 -0.0888  0.4228
18360TIP3    H276572   4.274   1.905  13.268 -0.9297  0.4841  1.6821
18361TIP3   OH276573   5.584   1.531  14.309  0.3810  0.5889  0.5285
18361TIP3    H176574   5.585   1.600  14.242  0.2881 -0.2207 -0.3301
18361TIP3    H276575   5.672   1.495  14.308 -0.1271 -0.7392 -0.5943
18362TIP3   OH276576   2.905   3.666  13.917 -0.2354 -0.0249  0.1012
18362TIP3    H176577   2.826   3.642  13.869  0.3700  0.2529 -1.0694
18362TIP3    H276578   2.873   3.712  13.994 -1.2113  0.3307 -0.4946
18363TIP3   OH276579   1.330   4.045   3.489 -0.1808 -0.3157  0.3225
18363TIP3    H176580   1.345   3.958   3.451 -1.6389 -0.1828 -0.6127
18363TIP3    H276581   1.237   4.061   3.477 -0.1770  0.8529  1.6487
18364TIP3   OH276582   2.897   1.413   3.506  0.1506 -0.3957  0.7936
18364TIP3    H176583   2.866   1.474   3.574 -1.5969 -0.0196 -0.2853
18364TIP3    H276584   2.935   1.340   3.555  0.2956  0.5506  2.1511
18365TIP3   OH276585   0.666   6.503  17.179  0.4018  0.0835  0.1993
18365TIP3    H176586   0.746   6.517  17.230  0.1361  3.3402 -0.0671
18365TIP3    H276587   0.604   6.567  17.213 -0.5858  0.7378 -2.5399
18366TIP3   OH276588   6.605   0.731   5.099  0.9250  0.8737 -0.3477
18366TIP3    H176589   6.610   0.803   5.037 -1.2620  0.0154 -1.6566
18366TIP3    H276590   6.531   0.754   5.156  0.2534 -0.2666 -0.7342
18367TIP3   OH276591   0.278   1.006   1.904  0.7539 -0.0010 -0.5197
18367TIP3    H176592   0.234   1.085   1.870 -1.0637 -0.9615 -0.5362
18367TIP3    H276593   0.282   0.947   1.828  0.8177 -0.4476 -0.1723
18368TIP3   OH276594   4.371   1.353  11.951 -0.6807  0.6193 -0.7150
18368TIP3    H176595   4.397   1.265  11.925  0.8358  0.5439  0.8774
18368TIP3    H276596   4.346   1.344  12.043  0.1169  1.9375 -0.3413
18369TIP3   OH276597   1.328   5.006  13.854  0.3501 -0.2183 -0.5072
18369TIP3    H176598   1.293   4.922  13.825 -1.4427  0.3924 -0.2578
18369TIP3    H276599   1.260   5.070  13.831  0.5592  0.8234  1.4710
18370TIP3   OH276600   5.252   6.338  12.019 -0.0021  0.1694  0.7182
18370TIP3    H176601   5.290   6.415  12.063  1.2273 -0.6055  1.0710
18370TIP3    H276602   5.227   6.280  12.090 -1.0853  0.2909  0.4550
18371TIP3   OH276603   1.915   0.130  16.157 -0.7744 -0.3667  0.0583
18371TIP3    H176604   1.928   0.052  16.211 -1.7480 -0.2693  0.4433
18371TIP3    H276605   1.891   0.096  16.071  2.5382 -0.5860 -0.9154
18372TIP3   OH276606   4.648   3.417  13.605 -0.6177 -0.0394  0.5817
18372TIP3    H176607   4.666   3.413  13.699  0.8704  0.7052  0.3583
18372TIP3    H276608   4.553   3.421  13.599 -0.8705 -2.0828  1.9628
18373TIP3   OH276609   4.390   3.038  17.087 -0.1155 -0.1136 -0.1129
18373TIP3    H176610   4.414   3.010  17.175  0.0352 -1.6976 -0.6149
18373TIP3    H276611   4.381   3.133  17.093 -1.7779 -0.3254  1.9958
18374TIP3   OH276612   0.438   3.926   5.960 -0.0422  0.4330  0.0165
18374TIP3    H176613   0.476   3.870   5.892 -1.5244 -1.5733  0.7438
18374TIP3    H276614   0.352   3.889   5.977 -0.7551  2.4613  1.1819
18375TIP3   OH276615   5.543   0.096  12.348 -0.0039 -0.4009 -0.4620
18375TIP3    H176616   5.634   0.124  12.355  0.4133 -1.6032 -0.8727
18375TIP3    H276617   5.502   0.162  12.292  0.2217  0.9851  0.9290
18376TIP3   OH276618   4.538   5.092   3.320  0.1054  0.4943  0.3526
18376TIP3    H176619   4.529   5.173   3.371  0.4311  1.6186 -1.2623
18376TIP3    H276620   4.549   5.123   3.230  0.7960 -1.3569 -0.2373
18377TIP3   OH276621   3.033   5.027  15.982 -0.2973  0.0268  0.6579
18377TIP3    H176622   3.104   4.975  16.018  0.4392  1.3375  1.1457
18377TIP3    H276623   3.041   5.112  16.025 -0.9042  0.8485 -0.8023
18378TIP3   OH276624   3.600   1.782  13.562 -0.4450 -0.1044  0.1906
18378TIP3    H176625   3.622   1.863  13.608 -2.5249  1.0147 -0.6220
18378TIP3    H276626   3.679   1.757  13.516  0.3460  1.2524  0.7732
18379TIP3   OH276627   4.476   6.662   5.364  0.7721  0.0728  0.0495
18379TIP3    H176628   4.460   6.696   5.452  0.6392 -2.4554  1.0606
18379TIP3    H276629   4.571   6.655   5.357  0.7401 -2.2765  1.1017
18380TIP3   OH276630   6.439   2.038  12.355 -0.1988  0.1276 -0.3964
18380TIP3    H176631   6.519   2.091  12.348  0.4642 -0.9893 -1.4483
18380TIP3    H276632   6.405   2.060  12.442 -0.0182  2.3516 -0.8056
18381TIP3   OH276633   3.405   5.649  12.773 -0.5648 -0.3845 -0.1148
18381TIP3    H176634   3.311   5.642  12.790 -0.6727 -0.6996 -0.8368
18381TIP3    H276635   3.425   5.575  12.717 -0.2558  0.7487 -1.5492
18382TIP3   OH276636   1.032   4.104  11.292 -0.1729 -0.6568 -0.5360
18382TIP3    H176637   1.019   4.034  11.356 -1.2617  1.0153  1.1802
18382TIP3    H276638   1.096   4.162  11.332 -1.0349  0.5457 -0.8207
18383TIP3   OH276639   1.118   4.947   4.444 -0.5918  0.1408  0.0288
18383TIP3    H176640   1.137   4.910   4.357 -2.5030 -0.8405 -0.0233
18383TIP3    H276641   1.066   5.025   4.426  0.3497  0.8440  0.2736
18384TIP3   OH276642   1.809   6.679  14.910  0.1329  0.2970  0.2203
18384TIP3    H176643   1.904   6.666  14.914  0.0761  0.2246  1.7489
18384TIP3    H276644   1.784   6.705  14.999 -1.3342 -0.0350 -0.0666
18385TIP3   OH276645   5.968   2.173   4.867  0.1569 -0.0875  0.3846
18385TIP3    H176646   5.997   2.263   4.879  0.8299 -0.2590  0.0995
18385TIP3    H276647   5.895   2.162   4.929  0.6860  0.3606  1.0981
18386TIP3   OH276648   0.275   3.086  11.507  0.2399  0.5269  0.2712
18386TIP3    H176649   0.198   3.141  11.523  1.6199  2.5209  0.4457
18386TIP3    H276650   0.318   3.127  11.431  2.0946  0.6216  1.3174
18387TIP3   OH276651   4.365   2.649   0.784 -0.0691  0.2480 -0.2636
18387TIP3    H176652   4.358   2.598   0.703 -2.2718  0.4079 -0.2217
18387TIP3    H276653   4.308   2.724   0.771 -0.8630  0.0237  1.6047
18388TIP3   OH276654   3.292   0.321  15.395  0.0044 -0.6373 -0.4895
18388TIP3    H176655   3.273   0.341  15.487  0.8742  0.6671 -0.5743
18388TIP3    H276656   3.206   0.315  15.354 -0.3631  0.1493  0.1371
18389TIP3   OH276657   0.519   4.169   5.699 -0.3731 -0.5473 -0.0349
18389TIP3    H176658   0.457   4.136   5.765 -0.7437  0.9163  0.3869
18389TIP3    H276659   0.603   4.172   5.744 -0.4621 -0.3573  0.1228
18390TIP3   OH276660   0.417   2.201   1.475  0.0517  0.3117  0.1004
18390TIP3    H176661   0.353   2.228   1.542 -0.1356  0.7058 -0.2315
18390TIP3    H276662   0.461   2.125   1.513 -1.1448 -0.4439  0.0137
18391TIP3   OH276663   5.138   4.637   3.984 -0.1284  0.1059  0.2927
18391TIP3    H176664   5.114   4.560   3.933 -0.9425  0.7661 -0.3432
18391TIP3    H276665   5.213   4.674   3.938  0.2002 -0.2443  0.5422
18392TIP3   OH276666   4.061   5.072   4.486 -0.0071 -0.5528 -0.7739
18392TIP3    H176667   4.113   5.074   4.567 -1.5796  0.3345  0.2616
18392TIP3    H276668   4.101   5.140   4.431  0.2108 -0.1815 -0.1701
18393TIP3   OH276669   2.243   3.863   3.890 -0.2151 -0.2296  0.0038
18393TIP3    H176670   2.195   3.936   3.851  0.4915  0.0231 -0.4155
18393TIP3    H276671   2.311   3.843   3.826 -0.0744 -0.9151  0.3581
18394TIP3   OH276672   5.000   3.702  13.220 -0.0132 -0.8573 -0.0571
18394TIP3    H176673   5.075   3.691  13.280 -1.3556 -0.7439  1.7431
18394TIP3    H276674   4.924   3.707  13.278 -1.2015  1.4259 -1.6654
18395TIP3   OH276675   1.452   3.652   3.002  0.1276  0.2737  0.4130
18395TIP3    H176676   1.525   3.668   2.943  0.2045 -0.5679  0.2704
18395TIP3    H276677   1.445   3.731   3.055  0.2549  0.9153 -0.5191
18396TIP3   OH276678   6.651   1.422  16.856  0.9075 -0.2589  0.5891
18396TIP3    H176679   6.661   1.337  16.900  3.2778 -0.1798  0.3436
18396TIP3    H276680   6.629   1.399  16.765  0.2307 -0.5668  0.8297
18397TIP3   OH276681   2.973   6.511   6.034 -0.1020  0.0676  0.0944
18397TIP3    H176682   2.933   6.431   6.000 -1.2457  1.2110 -1.4068
18397TIP3    H276683   2.946   6.514   6.126 -0.7143 -0.8545 -0.0356
18398TIP3   OH276684   3.139   5.337   5.348  0.2325  0.0670 -0.0626
18398TIP3    H176685   3.214   5.280   5.328  0.9629  1.0036 -0.0741
18398TIP3    H276686   3.123   5.324   5.441 -1.4466 -2.2726 -0.5779
18399TIP3   OH276687   4.546   1.836  17.331 -0.4655 -0.3822  0.0236
18399TIP3    H176688   4.470   1.894  17.331  0.2762  0.8933  3.9733
18399TIP3    H276689   4.614   1.885  17.284 -1.6229 -1.0166 -2.4529
18400TIP3   OH276690   4.227   6.492  13.294 -0.0879 -0.1794  0.8785
18400TIP3    H176691   4.247   6.530  13.379 -0.4752  1.1819  0.3972
18400TIP3    H276692   4.137   6.461  13.302 -0.3200  0.4512  0.8189
18401TIP3   OH276693   4.716   5.735  15.746  0.3596 -0.4426  0.3220
18401TIP3    H176694   4.729   5.830  15.744  0.0208 -0.4000  0.0363
18401TIP3    H276695   4.622   5.723  15.735  0.6912 -0.8971 -4.6728
18402TIP3   OH276696   4.033   3.704   0.666 -0.0351  0.4097 -0.4851
18402TIP3    H176697   3.999   3.625   0.623  1.5295 -0.7798  0.3551
18402TIP3    H276698   4.092   3.743   0.602 -0.8380  0.9640 -0.9153
18403TIP3   OH276699   0.419   5.325   0.135  0.0776  0.2495  0.2442
18403TIP3    H176700   0.458   5.312   0.222 -0.9671 -0.0749  0.6781
18403TIP3    H276701   0.394   5.417   0.133 -1.0438 -0.0342  0.7823
18404TIP3   OH276702   4.395   0.608  10.271  0.6863 -0.0513  0.5805
18404TIP3    H176703   4.310   0.568  10.250  2.1865 -2.0550 -2.2195
18404TIP3    H276704   4.442   0.541  10.320  0.9123  0.8515  1.6564
18405TIP3   OH276705   2.764   6.715  11.108 -0.4463  0.0078 -0.5222
18405TIP3    H176706   2.858   6.719  11.089 -0.4496  0.1037 -0.5185
18405TIP3    H276707   2.722   6.744  11.028 -0.4023  2.9334  0.4137
18406TIP3   OH276708   5.258   4.062  12.314 -0.2785  0.0258  0.0879
18406TIP3    H176709   5.320   3.993  12.338 -0.4533  0.1198  0.8474
18406TIP3    H276710   5.310   4.142  12.309 -0.3681  0.1649  1.0448
18407TIP3   OH276711   3.514   4.913  11.490 -0.3620  0.3749  0.2315
18407TIP3    H176712   3.585   4.851  11.473  0.4812  1.0621  1.1759
18407TIP3    H276713   3.435   4.867  11.460  0.5855  0.0796 -2.0423
18408TIP3   OH276714   0.042   4.031  15.026  0.0597  0.3568 -0.4350
18408TIP3    H176715   0.085   3.951  15.057 -0.5076  0.5871  1.0447
18408TIP3    H276716  -0.051   4.008  15.021 -0.1963  1.0870  0.6446
18409TIP3   OH276717   6.688   2.637   3.544  0.3824 -0.2530  0.1252
18409TIP3    H176718   6.599   2.668   3.558  0.4090  0.8234 -1.8191
18409TIP3    H276719   6.723   2.626   3.632 -1.4942 -0.2266  0.9267
18410TIP3   OH276720   1.190   0.231  15.484  0.2185  0.1054 -0.0272
18410TIP3    H176721   1.189   0.322  15.456 -2.6378  0.5127  1.0626
18410TIP3    H276722   1.229   0.232  15.571  0.8640  0.1627 -0.3142
18411TIP3   OH276723   6.394   1.463   3.797 -0.0906  0.3336 -0.2774
18411TIP3    H176724   6.364   1.500   3.714  2.1274 -1.6241 -2.1018
18411TIP3    H276725   6.356   1.375   3.799 -0.9464  0.6910  1.3603
18412TIP3   OH276726   3.356   6.570   0.348  0.1703  0.2387  0.6363
18412TIP3    H176727   3.423   6.591   0.414  1.5810  0.1574 -0.7229
18412TIP3    H276728   3.403   6.569   0.265 -1.8081  1.5337 -0.5696
18413TIP3   OH276729   4.665   0.912  14.200  0.0513  0.6834  0.4524
18413TIP3    H176730   4.648   0.903  14.294 -1.3609 -0.3458  0.1316
18413TIP3    H276731   4.604   0.982  14.172  1.0255  1.5429  0.4207
18414TIP3   OH276732   0.386   3.648   0.663 -0.3339  0.3259 -0.1387
18414TIP3    H176733   0.470   3.629   0.622  0.1801  0.3688  0.8866
18414TIP3    H276734   0.321   3.611   0.602  0.4748 -1.0980 -0.1862
18415TIP3   OH276735   5.025   5.774   0.893  0.0174  0.5203  0.5712
18415TIP3    H176736   4.979   5.854   0.920  0.5118  0.8334  0.4943
18415TIP3    H276737   5.110   5.779   0.937  0.1050  0.1052  0.4520
18416TIP3   OH276738   6.255   3.641   3.344  0.3823  0.0030  0.1963
18416TIP3    H176739   6.277   3.560   3.389  1.5100 -0.7506 -1.5759
18416TIP3    H276740   6.295   3.710   3.396 -0.9461 -0.4899  1.9558
18417TIP3   OH276741   3.154   0.561   5.319  0.0302  0.0796  0.4543
18417TIP3    H176742   3.125   0.637   5.269 -1.2403 -0.4065  0.4156
18417TIP3    H276743   3.182   0.597   5.403  2.3034  0.9176 -0.5539
18418TIP3   OH276744   6.134   1.224   0.814 -0.5057  0.5288 -0.4943
18418TIP3    H176745   6.144   1.260   0.725  0.7749 -0.1070 -0.6341
18418TIP3    H276746   6.205   1.264   0.864 -0.8808  0.4468  0.1178
18419TIP3   OH276747   5.097   0.283   6.107  0.4805 -0.5210  0.2206
18419TIP3    H176748   5.100   0.194   6.143 -1.4871 -0.4362  0.7020
18419TIP3    H276749   5.044   0.333   6.169 -1.3198  0.1179 -1.7249
18420TIP3   OH276750   4.084   6.360   2.527  0.1508 -0.4751 -0.6479
18420TIP3    H176751   4.065   6.299   2.456  0.2139 -0.2293 -0.8745
18420TIP3    H276752   4.015   6.343   2.592  1.1309 -1.9717  0.0558
18421TIP3   OH276753   6.439   0.403  12.045  0.5108 -0.4737 -0.5696
18421TIP3    H176754   6.419   0.488  12.084 -0.7251 -0.8500 -0.3484
18421TIP3    H276755   6.509   0.368  12.100 -0.3985 -0.4822  0.6188
18422TIP3   OH276756   3.558   3.304  13.559 -0.6711 -0.0509 -0.0243
18422TIP3    H176757   3.571   3.248  13.483 -0.3779  0.4722 -0.3698
18422TIP3    H276758   3.538   3.244  13.630  1.1878 -0.7517 -0.0214
18423TIP3   OH276759   3.914   5.439   2.250  0.6446  0.4816 -0.4303
18423TIP3    H176760   3.921   5.476   2.162  1.2757 -0.2303 -0.6880
18423TIP3    H276761   3.998   5.397   2.265 -0.6570 -2.5597 -0.9272
18424TIP3   OH276762   0.962   3.353   2.856 -0.1144 -0.4431  0.1139
18424TIP3    H176763   0.984   3.435   2.900 -1.2450  0.4360 -0.9193
18424TIP3    H276764   0.969   3.372   2.762  1.6396 -2.1102 -0.1711
18425TIP3   OH276765   0.415   4.756  11.609 -0.2661 -0.3914 -0.0329
18425TIP3    H176766   0.484   4.822  11.600 -0.4104  0.1116  2.0190
18425TIP3    H276767   0.459   4.673  11.592  0.2634  0.0982 -1.1577
18426TIP3   OH276768   3.927   0.834   6.294  0.0635  0.9538  0.0470
18426TIP3    H176769   3.998   0.809   6.234  0.6083  1.0865  0.6305
18426TIP3    H276770   3.920   0.929   6.285  1.2694  1.1929  1.4062
18427TIP3   OH276771   2.126   1.914   4.011  0.1231 -0.5682 -0.9244
18427TIP3    H176772   2.154   2.005   4.025  1.3390 -1.0394 -0.0987
18427TIP3    H276773   2.035   1.912   4.043  0.4642  0.1039  0.1527
18428TIP3   OH276774   0.808   6.646  14.142 -0.9063  0.5607 -0.5327
18428TIP3    H176775   0.892   6.630  14.184 -1.3477 -0.7666 -0.0792
18428TIP3    H276776   0.825   6.717  14.080  1.1542 -1.1826 -2.1647
18429TIP3   OH276777   0.279   3.423  10.704  0.3566 -0.2660  0.5520
18429TIP3    H176778   0.262   3.329  10.711 -0.4088 -0.0995  1.0437
18429TIP3    H276779   0.201   3.458  10.661  1.1493 -0.0105 -0.7366
18430TIP3   OH276780   4.024   1.641   3.953 -0.7909 -0.2177 -0.2367
18430TIP3    H176781   4.044   1.608   3.866 -0.2426  0.6315 -0.4435
18430TIP3    H276782   3.959   1.710   3.939 -2.0445 -1.2771  0.2030
18431TIP3   OH276783   2.356   2.007  13.240 -0.5199 -0.1505  0.2175
18431TIP3    H176784   2.323   1.976  13.156 -0.8982  0.9344 -0.0543
18431TIP3    H276785   2.298   1.968  13.305 -0.5115 -0.6242 -0.0563
18432TIP3   OH276786   1.148   5.715   2.598 -0.4620  0.4802  0.2455
18432TIP3    H176787   1.076   5.774   2.621 -0.5425  0.0520  1.1307
18432TIP3    H276788   1.175   5.677   2.681 -0.2823 -0.6008 -0.2917
18433TIP3   OH276789   0.423   5.417   3.122 -0.6389 -0.0305  0.4324
18433TIP3    H176790   0.407   5.502   3.161  0.9476 -0.1451  1.4344
18433TIP3    H276791   0.443   5.436   3.030  2.2939  1.0565  1.1648
18434TIP3   OH276792   3.319   6.758   5.124 -0.1004 -0.4721 -0.2305
18434TIP3    H176793   3.399   6.794   5.163 -1.1108 -0.1924  1.7041
18434TIP3    H276794   3.351   6.693   5.061  1.6524 -0.6448  0.7566
18435TIP3   OH276795   1.727   1.865  14.199  0.3489  0.0877  0.7906
18435TIP3    H176796   1.717   1.954  14.231  1.4939 -0.7488  3.7594
18435TIP3    H276797   1.818   1.859  14.171  1.0471 -0.7884  3.0569
18436TIP3   OH276798   6.800   2.846  14.590  0.5158 -0.0276  0.2870
18436TIP3    H176799   6.724   2.905  14.590 -0.6512 -1.4523 -0.7559
18436TIP3    H276800   6.835   2.852  14.501  0.7336 -0.4714  0.3418
18437TIP3   OH276801   6.702   5.628  15.875 -0.1769 -0.2608  0.3641
18437TIP3    H176802   6.669   5.680  15.949  1.1073  0.7910  0.2370
18437TIP3    H276803   6.737   5.693  15.814  0.1208 -1.2032 -0.4948
18438TIP3   OH276804   4.480   6.611   0.236  0.4542 -0.3058 -0.2020
18438TIP3    H176805   4.544   6.549   0.272 -0.9097 -1.5579  0.1834
18438TIP3    H276806   4.530   6.691   0.223  2.0809 -1.1926  0.1664
18439TIP3   OH276807   3.512   0.353   3.302  0.0601 -0.2145  0.0630
18439TIP3    H176808   3.542   0.436   3.338  0.5917  0.8075 -2.4988
18439TIP3    H276809   3.592   0.302   3.290 -0.0574 -0.3643 -0.0888
18440TIP3   OH276810   2.630   4.331   1.119 -0.1433  0.1873  0.0321
18440TIP3    H176811   2.632   4.239   1.145 -0.1156  0.0439 -0.4554
18440TIP3    H276812   2.649   4.329   1.025 -0.6817  0.6504 -0.0870
18441TIP3   OH276813   5.048   0.773   4.535 -0.6807  0.1581 -0.0921
18441TIP3    H176814   5.117   0.771   4.602 -1.6828 -2.0073  0.9789
18441TIP3    H276815   5.064   0.854   4.487  3.1706 -0.6424 -0.5160
18442TIP3   OH276816   2.366   1.298   1.843  0.2857 -0.0971 -0.1546
18442TIP3    H176817   2.395   1.263   1.759 -0.9221  2.1449 -1.6260
18442TIP3    H276818   2.416   1.379   1.853 -1.0017  0.6752  0.2605
18443TIP3   OH276819   2.873   0.153   3.450  0.4231 -0.2670 -0.3060
18443TIP3    H176820   2.892   0.193   3.365  1.5587 -1.0426 -0.4518
18443TIP3    H276821   2.913   0.212   3.514 -0.7361  0.5013 -0.2621
18444TIP3   OH276822   4.588   1.277  12.163  0.0899 -0.0346 -0.4794
18444TIP3    H176823   4.643   1.229  12.224  0.8944 -2.4405 -2.8822
18444TIP3    H276824   4.506   1.227  12.158 -0.2798  0.5771 -0.7872
18445TIP3   OH276825   6.784   5.649  14.505  0.2990 -0.2054 -0.0650
18445TIP3    H176826   6.776   5.602  14.422 -0.2666  0.8122 -0.6143
18445TIP3    H276827   6.703   5.631  14.551  0.6813 -0.9004  0.3416
18446TIP3   OH276828   3.895   6.050   1.235 -0.6176  0.3016  0.6755
18446TIP3    H176829   3.956   5.977   1.221  0.2886  0.8651  1.5376
18446TIP3    H276830   3.905   6.105   1.157 -0.5213  0.0381  0.5043
18447TIP3   OH276831   0.684   2.161  15.325  0.0593  0.4357 -0.0993
18447TIP3    H176832   0.714   2.071  15.338 -1.5208  0.0506  1.2359
18447TIP3    H276833   0.764   2.213  15.324  0.8856 -0.7494  1.3034
18448TIP3   OH276834   6.140   6.673   1.309  0.2322 -0.2776 -0.4546
18448TIP3    H176835   6.070   6.610   1.322  1.7080 -1.7439  0.8379
18448TIP3    H276836   6.220   6.621   1.312  1.4277  1.4444 -1.0353
18449TIP3   OH276837   4.441   3.188   4.415 -0.2135 -0.0458 -0.2912
18449TIP3    H176838   4.475   3.251   4.352 -0.0076  0.4441  0.3006
18449TIP3    H276839   4.402   3.242   4.484 -1.0857 -0.5821 -0.3441
18450TIP3   OH276840   1.103   2.857   6.437  0.2784 -0.5845 -0.3262
18450TIP3    H176841   1.072   2.893   6.520  1.0399  1.4064 -0.8598
18450TIP3    H276842   1.031   2.800   6.408  0.1729 -1.6718  1.8572
18451TIP3   OH276843   0.601   2.467   3.648  0.0333 -0.1709 -0.1026
18451TIP3    H176844   0.693   2.489   3.661 -0.1757  1.3045 -0.8554
18451TIP3    H276845   0.559   2.551   3.627 -1.7379 -0.5658  1.5178
18452TIP3   OH276846   1.452   0.158   6.229 -0.1730  0.2586 -0.1076
18452TIP3    H176847   1.505   0.108   6.166 -2.6126 -0.8602 -1.4380
18452TIP3    H276848   1.449   0.102   6.307 -0.1140 -0.0946 -0.3536
18453TIP3   OH276849   1.414   0.211   2.634 -0.3148 -0.5333  0.4301
18453TIP3    H176850   1.400   0.118   2.653  1.0300 -1.2007 -1.6107
18453TIP3    H276851   1.356   0.229   2.561  0.4312 -0.1319 -0.0667
18454TIP3   OH276852   5.042   3.950  12.688  0.1699  0.0096  0.5757
18454TIP3    H176853   4.946   3.942  12.689  0.2059 -0.4045  0.9660
18454TIP3    H276854   5.073   3.860  12.701  0.6110  0.2730  1.3704
18455TIP3   OH276855   0.240   3.660   2.768  0.1497  0.2497 -0.4202
18455TIP3    H176856   0.324   3.639   2.727  2.7761  4.8435  1.7501
18455TIP3    H276857   0.255   3.646   2.861 -1.0757  2.0281  0.1034
18456TIP3   OH276858   0.226   6.380  15.496  0.5819 -0.2134  0.5761
18456TIP3    H176859   0.191   6.395  15.409 -0.0661  0.1324  0.8896
18456TIP3    H276860   0.151   6.388  15.555  1.0299 -0.2989  1.1808
18457TIP3   OH276861   2.806   3.552  12.310 -0.0334 -0.2290  0.1382
18457TIP3    H176862   2.820   3.483  12.245  0.8326 -0.8693  0.9874
18457TIP3    H276863   2.713   3.575  12.301 -0.1510 -0.9768 -0.6544
18458TIP3   OH276864   1.372   6.798   0.249  0.1078 -0.3584 -0.1905
18458TIP3    H176865   1.290   6.755   0.272 -1.0515  2.1564  0.8411
18458TIP3    H276866   1.423   6.797   0.331 -0.3469  0.9721  0.1409
18459TIP3   OH276867   5.324   5.462   1.653 -0.2055  0.2857 -0.6109
18459TIP3    H176868   5.408   5.492   1.620  0.5225 -1.6457 -0.6661
18459TIP3    H276869   5.341   5.372   1.682 -2.0730  0.1230  0.0973
18460TIP3   OH276870   6.710   3.577   1.488 -0.0903  0.0226  1.0588
18460TIP3    H176871   6.715   3.616   1.401 -1.8199  0.2647  1.0241
18460TIP3    H276872   6.793   3.599   1.530 -0.2276  2.0987  0.3459
18461TIP3   OH276873   3.709   0.436   5.873 -0.6579 -0.7989 -0.6471
18461TIP3    H176874   3.693   0.430   5.968 -0.6546  0.1592 -0.5773
18461TIP3    H276875   3.800   0.408   5.863 -0.1031  0.7331 -0.1409
18462TIP3   OH276876   2.896   3.700  17.154 -0.4429  0.1978  0.1533
18462TIP3    H176877   2.878   3.793  17.162  0.2542  0.4065 -0.5928
18462TIP3    H276878   2.982   3.695  17.112 -0.0140 -0.7805  1.0981
18463TIP3   OH276879   6.077   3.788   4.366 -0.0426  0.0225 -0.4358
18463TIP3    H176880   6.149   3.839   4.404 -0.9508  1.9856 -1.2242
18463TIP3    H276881   6.044   3.736   4.440 -1.2423  3.1381  1.4282
18464TIP3   OH276882   5.901   1.540   3.572  1.1747 -0.0304  0.0665
18464TIP3    H176883   5.855   1.474   3.520  1.5569 -0.1551 -0.1144
18464TIP3    H276884   5.892   1.511   3.663 -2.3393  1.8291  0.5285
18465TIP3   OH276885   3.293   6.799   2.800 -0.3351  0.1790 -1.0841
18465TIP3    H176886   3.246   6.723   2.833 -0.1853  0.6094  0.1767
18465TIP3    H276887   3.306   6.781   2.707  0.2725 -1.6400 -0.6866
18466TIP3   OH276888   1.794   1.164  12.152 -0.0403  0.2849 -0.1880
18466TIP3    H176889   1.841   1.095  12.198  0.5557  0.7362 -0.1069
18466TIP3    H276890   1.809   1.145  12.059  0.9724  0.8622 -0.1603
18467TIP3   OH276891   6.621   3.392   6.924 -0.4656 -0.6671  0.2600
18467TIP3    H176892   6.613   3.457   6.993  0.8475 -0.7717  0.5388
18467TIP3    H276893   6.573   3.430   6.850 -0.0787  0.4382  0.5513
18468TIP3   OH276894   2.387   4.071   4.512  0.0768 -0.3692 -0.0628
18468TIP3    H176895   2.387   4.166   4.512 -2.2525 -0.3049  0.0780
18468TIP3    H276896   2.329   4.047   4.440  1.2024 -1.7187 -0.5618
18469TIP3   OH276897   4.802   6.740  15.908  0.6553  0.8017 -0.1030
18469TIP3    H176898   4.892   6.710  15.905  1.3744  2.7200  0.6388
18469TIP3    H276899   4.750   6.660  15.915  2.2808 -0.3370 -0.4642
18470TIP3   OH276900   0.055   4.470  11.338  0.4609  0.1125  0.1483
18470TIP3    H176901   0.016   4.531  11.275  0.4017  2.0404  1.9326
18470TIP3    H276902   0.126   4.427  11.290 -2.1431 -1.6547 -2.4583
18471TIP3   OH276903   4.417   6.188  16.363 -0.2730 -0.1119  0.1085
18471TIP3    H176904   4.463   6.104  16.362 -0.4469 -0.2726 -3.2066
18471TIP3    H276905   4.483   6.251  16.390  0.7818 -0.8962 -0.5737
18472TIP3   OH276906   4.115   2.236  15.732 -0.2008 -0.1026  0.9123
18472TIP3    H176907   4.110   2.146  15.701 -1.6696  0.5113 -0.7978
18472TIP3    H276908   4.187   2.275  15.683 -0.2919 -0.0548  0.8150
18473TIP3   OH276909   4.927   6.444   2.442 -0.6500  0.7572  0.2576
18473TIP3    H176910   4.931   6.525   2.493  0.6210  0.9409 -0.1115
18473TIP3    H276911   4.937   6.471   2.351 -1.0741  0.2609  0.0549
18474TIP3   OH276912   3.760   1.298   4.627  0.0999  0.2055  0.3253
18474TIP3    H176913   3.846   1.304   4.586  0.2621 -1.2350  0.4093
18474TIP3    H276914   3.702   1.268   4.557  0.2039 -1.4051  0.9029
18475TIP3   OH276915   6.714   2.705   3.277 -0.5114  0.4516  0.2370
18475TIP3    H176916   6.696   2.676   3.367 -0.3078  1.5100  0.6323
18475TIP3    H276917   6.646   2.769   3.258 -1.2276 -0.5840 -0.7928
18476TIP3   OH276918   0.150   6.066   6.271  0.1684 -0.1218  0.3845
18476TIP3    H176919   0.163   6.107   6.356 -0.7631  0.3497  0.3101
18476TIP3    H276920   0.169   5.973   6.286 -2.3106 -0.4903  1.7249
18477TIP3   OH276921   4.985   4.874  14.417  0.2663  0.1204  0.1840
18477TIP3    H176922   5.028   4.894  14.334  0.7281  1.8175  0.7876
18477TIP3    H276923   4.926   4.948  14.432 -0.9628 -0.9207  0.6332
18478TIP3   OH276924   0.006   3.139   5.365  0.0653 -0.5771 -0.7800
18478TIP3    H176925   0.064   3.105   5.297  0.7146 -0.8495 -0.0957
18478TIP3    H276926   0.011   3.075   5.436 -0.6507 -0.3241 -0.4930
18479TIP3   OH276927   1.507   6.645   5.534  0.7308 -0.6733 -0.4996
18479TIP3    H176928   1.558   6.652   5.615 -0.2919 -1.3414  0.2152
18479TIP3    H276929   1.492   6.736   5.508  1.4142 -0.4586 -0.1738
18480TIP3   OH276930   5.614   2.363  11.117 -0.7655 -0.1604  0.1436
18480TIP3    H176931   5.668   2.301  11.067  2.3477  1.0786  1.7215
18480TIP3    H276932   5.524   2.335  11.100  0.3714 -3.3275 -1.4615
18481TIP3   OH276933   6.470   1.360   2.178  0.0947 -0.1186  0.0453
18481TIP3    H176934   6.415   1.298   2.225  0.8363 -0.4947  0.4394
18481TIP3    H276935   6.493   1.426   2.244  0.2141 -0.0336 -0.0815
18482TIP3   OH276936   6.259   2.599  11.240 -0.3513  0.4117  0.3800
18482TIP3    H176937   6.232   2.568  11.154 -1.1178  1.4869  0.2170
18482TIP3    H276938   6.354   2.609  11.233 -0.4539  0.8817 -0.4771
18483TIP3   OH276939   5.240   1.018  11.456  0.0151  0.2222 -0.0181
18483TIP3    H176940   5.183   1.071  11.399 -0.9591  0.5713  1.2142
18483TIP3    H276941   5.283   1.083  11.513  1.4205 -0.0697 -0.7112
18484TIP3   OH276942   0.757   3.650   3.605  0.1208  0.1803 -0.1273
18484TIP3    H176943   0.731   3.731   3.648  1.2252  0.1190  0.7337
18484TIP3    H276944   0.682   3.591   3.616  0.5688 -0.0536  2.3937
18485TIP3   OH276945   4.764   1.258  14.273  0.1657 -0.7939  0.1595
18485TIP3    H176946   4.730   1.347  14.278  0.2567 -0.6622 -1.0919
18485TIP3    H276947   4.733   1.216  14.353 -1.0764 -0.0384  0.1078
18486TIP3   OH276948   3.324   3.961  16.727  0.1987 -0.6349  0.0292
18486TIP3    H176949   3.275   4.041  16.705  1.3509  0.2484  0.5141
18486TIP3    H276950   3.264   3.911  16.783 -0.9481 -0.6489 -1.1659
18487TIP3   OH276951   5.134   5.036   5.153 -0.4508 -0.3069 -0.1926
18487TIP3    H176952   5.187   5.115   5.161  0.5356 -1.1403  2.6165
18487TIP3    H276953   5.053   5.057   5.200  0.3069 -1.2509  1.6662
18488TIP3   OH276954   4.255   4.748   3.060  0.2742 -0.0351  0.3425
18488TIP3    H176955   4.324   4.814   3.051  0.2837  0.1008  1.2868
18488TIP3    H276956   4.244   4.738   3.154 -3.3064  2.3784  0.3479
18489TIP3   OH276957   3.338   4.663  14.855 -0.5234 -0.3360 -0.1948
18489TIP3    H176958   3.349   4.570  14.834 -0.7328 -0.0404 -1.6767
18489TIP3    H276959   3.311   4.703  14.773 -3.3821  0.5459  1.0665
18490TIP3   OH276960   2.620   4.151  16.915 -0.0827  0.2255 -0.0285
18490TIP3    H176961   2.685   4.217  16.888  0.2982  0.6959  1.9063
18490TIP3    H276962   2.666   4.068  16.908  0.2295  0.4045 -0.1369
18491TIP3   OH276963   3.569   3.622   2.360  0.7609  0.7223 -0.4570
18491TIP3    H176964   3.601   3.710   2.340  1.6333  0.3102 -0.9698
18491TIP3    H276965   3.599   3.606   2.450  2.5647  0.1349 -1.1160
18492TIP3   OH276966   6.780   4.208  16.813  0.2888 -0.1199 -0.3942
18492TIP3    H176967   6.714   4.264  16.772 -0.1593  0.0421  0.5161
18492TIP3    H276968   6.825   4.265  16.875  0.2422 -0.6150  0.1059
18493TIP3   OH276969   2.224   1.446   0.366 -0.1449 -0.0109  0.3401
18493TIP3    H176970   2.197   1.445   0.458  0.1010 -0.7260  0.4095
18493TIP3    H276971   2.319   1.443   0.369 -0.1527 -0.5716  0.0534
18494TIP3   OH276972   5.214   5.293   0.195  0.3594 -0.1886  0.5990
18494TIP3    H176973   5.206   5.199   0.180 -0.5874 -0.1238  0.6765
18494TIP3    H276974   5.244   5.328   0.111 -0.4865 -0.4044  0.1990
18495TIP3   OH276975   4.609   5.840  15.320  0.2977  0.0471 -0.0694
18495TIP3    H176976   4.635   5.793  15.241  2.1504 -1.2990  1.2524
18495TIP3    H276977   4.671   5.913  15.326 -0.3671  0.6401 -0.2800
18496TIP3   OH276978   0.737   0.565  12.541  0.1456 -0.3510 -0.1426
18496TIP3    H176979   0.765   0.476  12.559  0.2760 -0.4267 -0.6893
18496TIP3    H276980   0.744   0.573  12.446 -1.5323 -0.3231 -0.2868
18497TIP3   OH276981   1.195   5.763  10.574  0.0794  0.7647  0.3728
18497TIP3    H176982   1.134   5.733  10.642 -0.3415  1.6185  0.3837
18497TIP3    H276983   1.194   5.692  10.509  0.0315  0.2084  0.9715
18498TIP3   OH276984   3.803   2.030   2.914  0.3433  0.0305 -0.4738
18498TIP3    H176985   3.894   2.046   2.937  0.1840  0.3316 -0.0452
18498TIP3    H276986   3.753   2.052   2.993 -0.2064  1.0072 -1.0722
18499TIP3   OH276987   4.452   0.953  15.087 -0.3269 -0.0365  0.7714
18499TIP3    H176988   4.455   1.046  15.114  0.2509  0.0816  0.3189
18499TIP3    H276989   4.529   0.915  15.129 -1.8144 -0.8893  2.9556
18500TIP3   OH276990   4.101   0.632  15.038  0.6329 -0.1709 -0.6589
18500TIP3    H176991   4.175   0.688  15.018 -0.1098  1.2473  0.3367
18500TIP3    H276992   4.024   0.682  15.007  0.0141 -1.0256 -0.5319
18501TIP3   OH276993   3.049   1.199  11.665  0.2093  0.3157 -0.3629
18501TIP3    H176994   3.003   1.246  11.595 -3.1378 -0.3233  1.2039
18501TIP3    H276995   3.041   1.255  11.742  2.7198  0.4333 -0.0990
18502TIP3   OH276996   1.560   2.572   3.614 -0.0560 -0.3559 -0.2946
18502TIP3    H176997   1.616   2.595   3.689 -0.0142 -1.4613  0.0308
18502TIP3    H276998   1.613   2.591   3.537  0.3937 -0.4489 -0.0107
18503TIP3   OH276999   5.476   3.827  17.109  0.0449 -0.2572 -0.5293
18503TIP3    H177000   5.458   3.733  17.117 -1.4121  0.1258  1.6968
18503TIP3    H277001   5.438   3.852  17.025 -2.0829 -1.1910  0.0839
18504TIP3   OH277002   3.752   0.498   3.036 -0.1733  0.1157 -0.1158
18504TIP3    H177003   3.748   0.586   3.074  1.6534  0.6896 -1.1215
18504TIP3    H277004   3.837   0.464   3.064 -1.6670 -2.2121  1.9743
18505TIP3   OH277005   4.714   4.319  15.711  0.0730  0.0281  0.1113
18505TIP3    H177006   4.640   4.380  15.716 -1.4382 -1.7712  0.4000
18505TIP3    H277007   4.745   4.314  15.801 -1.1943 -1.2433  0.5084
18506TIP3   OH277008   1.198   2.933  10.974  0.4326 -0.3220  0.3190
18506TIP3    H177009   1.235   3.017  10.946  1.6921  0.0785  2.9381
18506TIP3    H277010   1.107   2.937  10.947  0.4581  1.9163  0.3888
18507TIP3   OH277011   4.103   4.906   6.164 -0.2399  0.2938  0.0765
18507TIP3    H177012   4.195   4.891   6.143 -0.4295 -1.2569  0.2017
18507TIP3    H277013   4.067   4.950   6.087  0.5025  0.4647 -0.1721
18508TIP3   OH277014   6.279   6.586  11.357 -0.0249 -0.4406  0.0738
18508TIP3    H177015   6.278   6.667  11.408  0.3816 -0.8056  0.6738
18508TIP3    H277016   6.292   6.517  11.422  0.0827 -0.9528 -0.4799
18509TIP3   OH277017   0.639   4.848  12.305 -0.3587 -0.0040 -0.0096
18509TIP3    H177018   0.588   4.874  12.228 -0.0434  0.7179  0.0204
18509TIP3    H277019   0.574   4.838  12.374 -1.1177 -3.6895 -1.0326
18510TIP3   OH277020   0.003   0.129   0.980 -0.1259  0.9354 -0.0261
18510TIP3    H177021  -0.051   0.104   0.905  0.7559  1.6455 -0.9315
18510TIP3    H277022  -0.034   0.212   1.010 -1.5402 -0.1543  1.4496
18511TIP3   OH277023   5.103   2.814   5.682 -0.5571 -0.0186  0.5499
18511TIP3    H177024   5.154   2.894   5.692 -2.3459  0.9193  2.9737
18511TIP3    H277025   5.169   2.744   5.682  0.9393  1.3295 -0.1083
18512TIP3   OH277026   6.284   0.354   4.032  0.0512  0.3434 -0.3360
18512TIP3    H177027   6.343   0.392   4.097  0.3175  0.9453 -0.9200
18512TIP3    H277028   6.306   0.260   4.033 -0.3958  0.2367  0.8863
18513TIP3   OH277029   1.548   6.357  16.613  0.1340  0.0887  0.3519
18513TIP3    H177030   1.594   6.304  16.678 -0.3096  0.7394  1.2095
18513TIP3    H277031   1.616   6.411  16.573  0.5084 -0.7495 -0.1793
18514TIP3   OH277032   1.771   3.810  13.050 -0.2882  0.3703  0.0111
18514TIP3    H177033   1.754   3.719  13.074  0.5954  0.0096 -0.6604
18514TIP3    H277034   1.851   3.833  13.097  0.2043  0.3809 -0.8202
18515TIP3   OH277035   3.659   5.425  12.888  0.2784  0.0242 -0.1947
18515TIP3    H177036   3.669   5.421  12.983  1.5860  1.7848 -0.2226
18515TIP3    H277037   3.566   5.405  12.873 -0.0349  0.0945  1.4672
18516TIP3   OH277038   4.045   6.040   2.610  0.1834  0.0227  0.5351
18516TIP3    H177039   3.990   6.090   2.550  0.3869  1.5988  1.5927
18516TIP3    H277040   4.045   5.951   2.574  0.1218  0.8404 -1.6436
18517TIP3   OH277041   3.579   5.715  13.694  0.0071  0.1278 -0.3734
18517TIP3    H177042   3.606   5.709  13.786  0.1561 -1.2158 -0.4890
18517TIP3    H277043   3.516   5.644  13.683 -1.0252  1.1135 -0.9846
18518TIP3   OH277044   0.010   5.276  16.542  0.3600  0.3579 -0.0920
18518TIP3    H177045  -0.044   5.350  16.569  0.3481 -0.6625  3.0272
18518TIP3    H277046   0.100   5.307  16.553  0.3650  0.3755 -0.1830
18519TIP3   OH277047   0.884   2.481   3.564 -0.2060 -0.1368 -0.0690
18519TIP3    H177048   0.815   2.441   3.511 -0.7213  0.2257  0.3171
18519TIP3    H277049   0.956   2.418   3.561 -1.3018 -1.5505  1.2364
18520TIP3   OH277050   5.221   3.697  15.205  0.0536  0.0627 -0.5806
18520TIP3    H177051   5.246   3.665  15.291  0.4205  0.9108 -0.3617
18520TIP3    H277052   5.144   3.752  15.222  0.1529  0.2667 -0.7812
18521TIP3   OH277053   2.892   3.252   0.812  0.3918 -0.3543  0.1939
18521TIP3    H177054   2.946   3.268   0.734  2.2280 -1.9625  1.0414
18521TIP3    H277055   2.910   3.161   0.835 -0.7842 -0.1698  1.9907
18522TIP3   OH277056   4.494   5.059   1.107  0.2653  0.3347 -0.1594
18522TIP3    H177057   4.526   5.106   1.029  0.5875  1.4573  0.6219
18522TIP3    H277058   4.465   4.974   1.073 -0.0348  0.9655 -1.5879
18523TIP3   OH277059   4.242   2.509   4.437 -0.1637 -0.6322  0.0048
18523TIP3    H177060   4.260   2.542   4.349  0.9679  0.9091  0.7585
18523TIP3    H277061   4.148   2.492   4.438 -0.4381  0.6644 -1.0932
18524TIP3   OH277062   1.133   3.699  13.626 -0.2922 -0.1762 -0.3780
18524TIP3    H177063   1.192   3.760  13.670 -1.6097  1.6407 -1.0143
18524TIP3    H277064   1.146   3.616  13.672  1.0058  0.7490  1.0267
18525TIP3   OH277065   2.177   0.160   4.954 -0.4972  0.7501 -0.3894
18525TIP3    H177066   2.180   0.255   4.954 -1.1787  0.8081 -1.8096
18525TIP3    H277067   2.134   0.136   5.036 -0.0048  1.6385  0.1356
18526TIP3   OH277068   3.277   1.219  13.894  0.6157 -0.4082  0.7333
18526TIP3    H177069   3.334   1.241  13.820  0.4744  1.0653  1.0374
18526TIP3    H277070   3.241   1.134  13.872  0.9102 -0.1826 -0.6906
18527TIP3   OH277071   2.988   6.390   4.198 -0.0813  1.0685 -0.1787
18527TIP3    H177072   3.081   6.400   4.177  0.4096  0.5053  1.5367
18527TIP3    H277073   2.969   6.459   4.261 -0.3126  0.0601  0.9074
18528TIP3   OH277074   2.425   1.076  14.005 -0.5160  0.0683  0.0826
18528TIP3    H177075   2.411   1.124  14.087  0.5072 -0.5266  0.6182
18528TIP3    H277076   2.461   1.140  13.945 -0.7674  0.3767  0.2551
18529TIP3   OH277077   3.025   0.340   3.611 -0.3183  0.3803  0.0471
18529TIP3    H177078   2.982   0.406   3.666 -1.2684 -0.3988  0.2597
18529TIP3    H277079   3.094   0.389   3.565 -1.1630  1.5719 -0.0058
18530TIP3   OH277080   4.369   5.481  16.803  0.0627  0.1966 -0.3418
18530TIP3    H177081   4.464   5.467  16.799 -0.0142 -0.4679  0.0731
18530TIP3    H277082   4.351   5.539  16.729  0.4394 -1.7156 -2.0063
18531TIP3   OH277083   4.860   3.153   3.449 -0.4349 -0.2038 -0.2428
18531TIP3    H177084   4.823   3.190   3.530  0.9781  0.7098  0.0246
18531TIP3    H277085   4.810   3.194   3.379 -1.6671 -0.9900  0.1598
18532TIP3   OH277086   4.628   3.874  14.253 -0.2849 -0.0951 -0.4768
18532TIP3    H177087   4.714   3.860  14.214  1.1375  1.2496  1.9371
18532TIP3    H277088   4.633   3.833  14.339 -2.4079 -0.7506 -0.6061
18533TIP3   OH277089   3.081   1.537   6.150 -0.5951 -1.0173 -0.0613
18533TIP3    H177090   3.151   1.480   6.181  1.3534  0.7822 -0.8646
18533TIP3    H277091   3.127   1.612   6.112 -2.9022 -0.7397 -2.6504
18534TIP3   OH277092   5.896   2.163  11.880  0.0725 -0.0787 -0.7210
18534TIP3    H177093   5.936   2.244  11.847  0.1698 -1.0320 -3.1886
18534TIP3    H277094   5.814   2.191  11.919  0.8665  1.3735 -0.0184
18535TIP3   OH277095   0.468   6.265  15.504  0.5188 -0.0060 -0.8705
18535TIP3    H177096   0.427   6.198  15.558  1.0720 -0.5290 -1.0764
18535TIP3    H277097   0.398   6.327  15.483  0.0102 -0.4980 -0.6356
18536TIP3   OH277098   1.672   3.861  12.168  0.1744 -0.0544 -0.8829
18536TIP3    H177099   1.651   3.923  12.237 -0.7924 -0.6706 -0.6072
18536TIP3    H277100   1.748   3.812  12.202 -0.2596 -0.3173 -0.2769
18537TIP3   OH277101   0.347   5.030  14.738  0.1877 -0.2926  0.4055
18537TIP3    H177102   0.254   5.009  14.726 -0.1766  2.0182 -1.7591
18537TIP3    H277103   0.353   5.124  14.717  2.7389  0.0888  2.3596
18538TIP3   OH277104   4.936   2.544   0.540 -0.1064 -0.0944  0.3406
18538TIP3    H177105   4.879   2.470   0.522 -0.1411 -0.0700  0.3500
18538TIP3    H277106   4.876   2.615   0.563 -0.0472 -0.1816  0.7601
18539TIP3   OH277107   5.186   4.578  12.343 -0.5189  0.3489  0.5824
18539TIP3    H177108   5.190   4.594  12.438 -0.0845 -0.2092  0.6627
18539TIP3    H277109   5.235   4.650  12.304  1.0033 -0.4634  0.9078
18540TIP3   OH277110   1.210   3.795  15.416 -0.3363 -0.0244 -0.3528
18540TIP3    H177111   1.245   3.745  15.489 -0.3636 -0.4295 -0.6185
18540TIP3    H277112   1.237   3.747  15.338 -0.1970  0.4754 -0.6156
18541TIP3   OH277113   2.114   1.656  12.749 -0.0043  0.5687  0.5258
18541TIP3    H177114   2.162   1.646  12.666  1.2839  1.0523  1.1855
18541TIP3    H277115   2.077   1.744  12.745 -1.8460 -0.1854 -0.4562
18542TIP3   OH277116   4.000   1.854  11.228 -0.1259  0.3313 -0.9313
18542TIP3    H177117   3.939   1.875  11.299 -2.0527 -3.3074 -1.2871
18542TIP3    H277118   3.953   1.880  11.149  0.3573  0.8016 -1.0680
18543TIP3   OH277119   6.071   3.128  16.719 -0.1976  0.0306 -0.4991
18543TIP3    H177120   5.998   3.183  16.745  0.0457 -0.1305  0.5667
18543TIP3    H277121   6.031   3.056  16.671 -0.5127  1.1616 -2.0124
18544TIP3   OH277122   0.592   6.203  12.008  0.2727  0.2048  0.3507
18544TIP3    H177123   0.522   6.267  12.018  0.0177 -0.1162  0.6293
18544TIP3    H277124   0.669   6.254  11.982  0.3334  0.7447  1.5440
18545TIP3   OH277125   6.372   4.321  16.426 -0.1737 -0.3412  0.3764
18545TIP3    H177126   6.423   4.251  16.467 -0.2366 -0.6649 -0.0830
18545TIP3    H277127   6.417   4.401  16.450  1.2505 -0.6846 -0.9757
18546TIP3   OH277128   3.927   6.249  13.991 -0.7701 -0.3822 -0.4744
18546TIP3    H177129   3.870   6.297  14.051 -0.7846  0.2025 -0.9471
18546TIP3    H277130   3.875   6.172  13.966 -0.7459 -0.6558  0.2886
18547TIP3   OH277131   6.210   3.074   4.500 -0.4209 -0.3446  0.0469
18547TIP3    H177132   6.134   3.064   4.442 -0.5068 -1.2052  0.2948
18547TIP3    H277133   6.223   2.987   4.537 -1.0363  0.4072  2.1700
18548TIP3   OH277134   4.590   1.679   2.884 -0.6964  1.0435  0.5076
18548TIP3    H177135   4.523   1.741   2.858 -1.0829  1.2303  1.8463
18548TIP3    H277136   4.636   1.722   2.956  1.0397  1.0212 -0.5305
18549TIP3   OH277137   4.159   5.348   1.451  0.0070  0.6105  0.2428
18549TIP3    H177138   4.193   5.434   1.475 -0.3549  0.7888  0.1214
18549TIP3    H277139   4.225   5.312   1.392  0.1827  0.7831  0.3315
18550TIP3   OH277140   2.829   5.214   3.378  0.2063 -0.6602  0.1742
18550TIP3    H177141   2.890   5.164   3.432  1.9331 -2.2870 -2.9587
18550TIP3    H277142   2.819   5.162   3.299  0.6953  3.0596 -2.6247
18551TIP3   OH277143   1.482   1.786   2.972 -0.2243 -0.3691 -0.6107
18551TIP3    H177144   1.501   1.811   3.062  1.3811  0.0514 -1.0343
18551TIP3    H277145   1.467   1.691   2.976  2.7685 -0.9111 -0.2829
18552TIP3   OH277146   6.710   2.089   0.642  0.9358  0.6143 -0.4289
18552TIP3    H177147   6.655   2.146   0.698 -1.9473 -1.7244 -0.6196
18552TIP3    H277148   6.773   2.051   0.703 -0.6521 -0.1070  0.8577
18553TIP3   OH277149   5.232   2.875  16.573 -0.1419  0.0321 -0.1401
18553TIP3    H177150   5.222   2.868  16.668 -2.8725 -0.9069 -0.4024
18553TIP3    H277151   5.280   2.956  16.559 -0.5941  0.7305  2.0159
18554TIP3   OH277152   0.273   5.917   3.971 -0.6722  0.3385 -0.6606
18554TIP3    H177153   0.216   5.841   3.975 -1.5098  0.9511 -0.5302
18554TIP3    H277154   0.342   5.893   3.910  1.3362 -1.9986  2.2366
18555TIP3   OH277155   4.702   2.384  10.456 -0.2331 -0.4219  0.0681
18555TIP3    H177156   4.787   2.387  10.499 -1.0648  1.3585  1.7439
18555TIP3    H277157   4.660   2.467  10.480 -1.9654 -0.6900 -1.7392
18556TIP3   OH277158   2.076   2.658  12.184  0.0342  0.0380 -0.1624
18556TIP3    H177159   2.031   2.604  12.249 -0.1212  0.1729 -0.1565
18556TIP3    H277160   2.021   2.652  12.106 -0.1523  0.4418 -0.0651
18557TIP3   OH277161   4.510   3.529   2.719 -0.0734 -0.2542 -0.1603
18557TIP3    H177162   4.425   3.494   2.744  0.0302 -0.8681 -0.6346
18557TIP3    H277163   4.558   3.537   2.802  0.2555 -2.2267 -0.1029
18558TIP3   OH277164   1.724   1.904  13.006 -0.5654  1.0204 -0.6117
18558TIP3    H177165   1.664   1.850  12.954  0.3261  0.4943 -1.1259
18558TIP3    H277166   1.804   1.852  13.012 -0.0182  1.8770 -0.2833
18559TIP3   OH277167   3.777   4.978   4.499 -0.4508  0.4079 -0.0602
18559TIP3    H177168   3.727   5.027   4.565  0.2739  0.1572  0.6909
18559TIP3    H277169   3.858   5.028   4.489 -0.4725  0.3328 -0.6279
18560TIP3   OH277170   1.652   3.566  11.972  0.2103 -0.0144 -0.2572
18560TIP3    H177171   1.580   3.525  11.926 -0.2407 -0.0749  0.4774
18560TIP3    H277172   1.619   3.579  12.062  0.1672  2.3193 -0.5290
18561TIP3   OH277173   0.066   0.347  15.498  0.4907  0.0328 -0.5298
18561TIP3    H177174   0.077   0.423  15.440 -0.1752  1.0632  0.6332
18561TIP3    H277175  -0.029   0.333  15.500  0.4753  0.2425  0.5711
18562TIP3   OH277176   1.820   6.578   1.121 -0.2145  0.3985 -0.1864
18562TIP3    H177177   1.768   6.621   1.189 -1.3679 -0.5183 -0.4440
18562TIP3    H277178   1.806   6.484   1.135  1.7459  0.0859 -0.0143
18563TIP3   OH277179   0.719   4.003  12.382 -0.4800  0.2689  0.3970
18563TIP3    H177180   0.724   3.953  12.463 -2.6154 -2.5860 -1.0500
18563TIP3    H277181   0.779   3.959  12.322  0.7595  2.0905  0.2065
18564TIP3   OH277182   4.983   1.863   4.990  0.6135 -0.3770  0.3166
18564TIP3    H177183   4.925   1.894   4.921 -0.4603 -3.2836 -0.2067
18564TIP3    H277184   5.053   1.817   4.943  0.6344 -1.1792  1.1310
18565TIP3   OH277185   6.275   5.585   2.287  0.0895 -0.2131 -0.4372
18565TIP3    H177186   6.204   5.646   2.306  0.3501 -0.2147  0.5843
18565TIP3    H277187   6.355   5.630   2.316  0.3365 -0.8343 -0.1240
18566TIP3   OH277188   6.683   0.429   3.022  0.2706  0.2302  0.1930
18566TIP3    H177189   6.717   0.518   3.007  1.1674 -0.2104 -0.4688
18566TIP3    H277190   6.601   0.443   3.069 -0.3709  1.4991 -1.2038
18567TIP3   OH277191   2.662   5.520  15.315 -0.1625 -0.2660 -0.2349
18567TIP3    H177192   2.575   5.491  15.289 -1.3554 -0.0912  3.0912
18567TIP3    H277193   2.706   5.441  15.347  0.5820 -0.1847 -1.0198
18568TIP3   OH277194   1.370   0.739   4.611  0.1002 -0.3718  0.4532
18568TIP3    H177195   1.440   0.790   4.652 -0.4694  0.0852  0.8861
18568TIP3    H277196   1.290   0.784   4.638 -0.3744 -1.0841  0.2467
18569TIP3   OH277197   5.452   3.827   5.361  0.0386 -0.3524 -0.2341
18569TIP3    H177198   5.519   3.864   5.418  0.2829  0.0602 -0.7798
18569TIP3    H277199   5.373   3.877   5.382  0.1442 -0.1555 -0.3058
18570TIP3   OH277200   6.338   0.795   6.000 -0.5063 -0.2486  0.2468
18570TIP3    H177201   6.312   0.828   6.086  0.3328 -0.5454  0.6268
18570TIP3    H277202   6.352   0.873   5.947  0.7964  0.0189  0.9361
18571TIP3   OH277203   4.997   3.073  14.182 -0.3531 -0.0163 -0.2083
18571TIP3    H177204   4.997   2.988  14.137 -0.5288 -0.2532  0.2354
18571TIP3    H277205   5.029   3.135  14.116  1.8960 -0.7654  0.0700
18572TIP3   OH277206   5.615   3.629  11.784  0.4218  0.1798 -0.1923
18572TIP3    H177207   5.698   3.625  11.831 -0.0770  0.8610  0.7953
18572TIP3    H277208   5.554   3.668  11.847 -0.5001  0.2478 -1.0992
18573TIP3   OH277209   4.581   5.803   3.386  0.1726 -0.5974 -0.3227
18573TIP3    H177210   4.487   5.795   3.369 -0.0575 -1.5200  1.2440
18573TIP3    H277211   4.591   5.888   3.429 -0.0684 -0.8796  0.2916
18574TIP3   OH277212   1.833   2.361   1.991 -0.2048 -0.1223 -0.4294
18574TIP3    H177213   1.885   2.404   2.059 -1.4386 -1.0345  1.1798
18574TIP3    H277214   1.862   2.269   1.993  0.9691  0.1562 -2.3990
18575TIP3   OH277215   0.271   3.372   4.998  0.3085  0.3726  0.1282
18575TIP3    H177216   0.182   3.404   4.981  0.0539  0.1160  0.9510
18575TIP3    H277217   0.318   3.388   4.916  0.0783  2.4483  0.3655
18576TIP3   OH277218   1.347   0.780   1.008 -0.0631  0.3536 -0.1941
18576TIP3    H177219   1.311   0.692   1.018  1.2379 -0.2297 -0.5143
18576TIP3    H277220   1.441   0.770   1.022  0.0125  1.8454  0.6673
18577TIP3   OH277221   4.258   5.605   1.174 -0.2361  0.1284  0.5150
18577TIP3    H177222   4.345   5.566   1.179 -0.8279 -1.2813  0.1392
18577TIP3    H277223   4.211   5.551   1.111 -1.4770  0.7117  0.9153
18578TIP3   OH277224   5.732   1.940   6.072 -0.2580  0.0913 -0.1292
18578TIP3    H177225   5.715   2.032   6.092  0.8408  0.0730  1.0457
18578TIP3    H277226   5.742   1.938   5.977 -2.4563  0.7780 -0.4211
18579TIP3   OH277227   6.447   1.435   4.404  0.0829 -0.4187  0.2522
18579TIP3    H177228   6.504   1.370   4.444  0.7280  0.3854  0.6770
18579TIP3    H277229   6.369   1.387   4.379  0.0316 -1.1085  1.6826
18580TIP3   OH277230   4.975   4.398  13.993  0.0757  0.0089  0.1807
18580TIP3    H177231   4.973   4.328  13.927  0.7418  0.1162  0.0446
18580TIP3    H277232   4.929   4.471  13.953  0.7455  0.1788 -0.2933
18581TIP3   OH277233   2.669   2.451   1.911  0.2059 -0.4634 -0.1619
18581TIP3    H177234   2.656   2.423   1.820  0.0319 -1.0995  0.0528
18581TIP3    H277235   2.681   2.545   1.906 -2.6131 -0.0541 -0.5753
18582TIP3   OH277236   5.009   5.737  15.721  0.0400 -0.1570 -0.3442
18582TIP3    H177237   5.103   5.718  15.722  0.0342 -0.2012  0.3260
18582TIP3    H277238   4.986   5.742  15.814 -0.4529  0.6800 -0.5110
18583TIP3   OH277239   4.388   6.771  12.122 -0.1751  0.1641  0.0982
18583TIP3    H177240   4.299   6.750  12.152  0.1280 -1.1123  0.1618
18583TIP3    H277241   4.392   6.735  12.034  0.6583 -0.9230  0.5521
18584TIP3   OH277242   6.380   2.466   1.606 -0.0257 -0.0161 -0.1856
18584TIP3    H177243   6.404   2.444   1.515 -3.6675 -0.4604 -1.1993
18584TIP3    H277244   6.351   2.557   1.601 -1.5725 -0.4683  0.1814
18585TIP3   OH277245   4.245   4.133  13.407  0.0391  0.0809  0.2672
18585TIP3    H177246   4.327   4.181  13.405 -1.0084  1.9503 -1.2958
18585TIP3    H277247   4.214   4.141  13.497  0.7355  0.8754  0.4467
18586TIP3   OH277248   5.472   4.377   5.279  0.3146  0.6496  0.0067
18586TIP3    H177249   5.447   4.469   5.269 -0.9639  0.1559 -2.0147
18586TIP3    H277250   5.388   4.330   5.276  0.7260 -0.4913  3.2212
18587TIP3   OH277251   6.484   0.640  13.892 -0.1113  0.5463  0.4581
18587TIP3    H177252   6.492   0.648  13.987 -1.5429 -0.6863  0.7110
18587TIP3    H277253   6.532   0.561  13.870  0.5482  1.0407  0.0900
18588TIP3   OH277254   1.607   5.395  13.003  0.1181  0.3041  0.1170
18588TIP3    H177255   1.665   5.322  12.982  1.2880  0.9787  0.8813
18588TIP3    H277256   1.566   5.418  12.919  1.4345  0.2040 -0.5733
18589TIP3   OH277257   5.749   0.135   1.306  0.9767  0.3671  0.2482
18589TIP3    H177258   5.660   0.101   1.318  0.4647  1.3766 -0.4912
18589TIP3    H277259   5.799   0.060   1.274 -0.1578  0.2795 -1.4830
18590TIP3   OH277260   4.261   6.252   6.580  0.0320 -0.0219  0.0115
18590TIP3    H177261   4.329   6.307   6.619 -1.1030  0.0081  2.0876
18590TIP3    H277262   4.288   6.162   6.597  0.4472 -0.0694 -0.8274
18591TIP3   OH277263   5.785   1.966   3.664 -1.1373 -0.1681  0.4572
18591TIP3    H177264   5.774   1.947   3.571  0.4630 -0.5610  0.3178
18591TIP3    H277265   5.806   2.059   3.667  1.2633 -0.6251  0.1348
18592TIP3   OH277266   4.499   4.381  15.155  0.6821 -0.2461  0.3170
18592TIP3    H177267   4.536   4.419  15.235  0.5946 -0.2493  0.3583
18592TIP3    H277268   4.414   4.423  15.146  0.0484 -1.3283  1.0320
18593TIP3   OH277269   4.417   6.656   4.490  0.1660 -0.4163 -0.2591
18593TIP3    H177270   4.373   6.741   4.486  0.8372 -0.0416  0.1789
18593TIP3    H277271   4.507   6.676   4.512  0.2350 -1.2800  0.3176
18594TIP3   OH277272   0.507   3.978   3.019 -0.1425 -0.3986 -0.1106
18594TIP3    H177273   0.472   4.058   3.058  0.7836 -0.5784  1.1429
18594TIP3    H277274   0.506   3.995   2.925 -1.9183  0.2557 -0.0118
18595TIP3   OH277275   0.342   6.260  15.050  0.2145  0.3978 -0.0924
18595TIP3    H177276   0.301   6.176  15.027 -0.6865  0.7840  0.0742
18595TIP3    H277277   0.360   6.301  14.965  2.1202 -0.6222 -0.2384
18596TIP3   OH277278   2.841   2.849  16.663  0.1293 -0.1653  0.0846
18596TIP3    H177279   2.753   2.861  16.627 -0.2504 -1.0659  0.6762
18596TIP3    H277280   2.858   2.755  16.655  0.0094 -0.4180  2.2472
18597TIP3   OH277281   1.779   0.973   1.870 -0.1211 -0.5727  0.0315
18597TIP3    H177282   1.835   1.050   1.872  0.3837 -0.8151 -2.3279
18597TIP3    H277283   1.704   0.999   1.816  0.7641 -2.1251 -2.0644
18598TIP3   OH277284   1.158   0.847   6.445  0.2381  0.3859  0.1746
18598TIP3    H177285   1.192   0.757   6.451 -0.4727  0.1053  0.1269
18598TIP3    H277286   1.067   0.836   6.416  0.6894  1.2176 -1.6695
18599TIP3   OH277287   2.243   2.508  13.591  0.1192 -0.0792 -0.1795
18599TIP3    H177288   2.155   2.480  13.566 -0.2984  0.5457  0.5373
18599TIP3    H277289   2.245   2.602  13.570  0.2876  0.1150  0.6734
18600TIP3   OH277290   4.580   2.551   1.670 -0.8437  0.2283 -0.0936
18600TIP3    H177291   4.655   2.493   1.661 -1.7073 -0.9372 -0.0818
18600TIP3    H277292   4.546   2.561   1.581 -0.9889  0.3122 -0.0300
18601TIP3   OH277293   5.780   4.132  15.967  0.1267 -0.3889 -0.2261
18601TIP3    H177294   5.749   4.199  15.906 -0.5843  0.2596  0.8184
18601TIP3    H277295   5.712   4.126  16.033  0.4752 -1.7172  0.0423
18602TIP3   OH277296   4.212   1.446   1.630  0.0978 -0.0471  0.1297
18602TIP3    H177297   4.122   1.466   1.605 -0.7321 -0.4166  2.5157
18602TIP3    H277298   4.206   1.421   1.722  2.7111  0.3040  0.4730
18603TIP3   OH277299   3.459   3.969   2.408 -0.2228 -1.4183 -0.2007
18603TIP3    H177300   3.543   3.942   2.443  0.3902 -0.9822 -1.2953
18603TIP3    H277301   3.455   3.930   2.321 -0.1508  0.3823 -1.0546
18604TIP3   OH277302   4.371   1.584  12.440 -0.3881  0.3211 -0.0674
18604TIP3    H177303   4.453   1.581  12.390  0.4052  1.1711  1.1010
18604TIP3    H277304   4.398   1.617  12.526 -1.9648  0.5588  0.3573
18605TIP3   OH277305   4.158   0.949   3.726 -1.0632  0.8336  0.5259
18605TIP3    H177306   4.207   0.872   3.697 -1.4819  0.1174  1.6771
18605TIP3    H277307   4.067   0.930   3.706 -1.2057  0.8847  1.0978
18606TIP3   OH277308   3.268   5.108  15.526  0.3187 -0.0821 -0.2369
18606TIP3    H177309   3.340   5.123  15.588  0.5529  0.0238 -0.5303
18606TIP3    H277310   3.309   5.060  15.453  0.1416  0.1604 -0.4992
18607TIP3   OH277311   3.145   3.841  16.891  0.3077 -0.8029  0.2865
18607TIP3    H177312   3.106   3.765  16.849 -1.1090  0.5770 -1.0409
18607TIP3    H277313   3.140   3.822  16.984 -0.1854 -2.2430 -0.0059
18608TIP3   OH277314   6.473   5.535  14.163 -0.0509 -0.1368 -0.0728
18608TIP3    H177315   6.413   5.572  14.227 -0.0225 -1.1972  0.5894
18608TIP3    H277316   6.540   5.603  14.149  0.7291 -0.4103  2.0689
18609TIP3   OH277317   4.636   0.111  14.322 -0.1633 -0.0833  0.0337
18609TIP3    H177318   4.577   0.080  14.253 -0.9238 -0.1672  0.6968
18609TIP3    H277319   4.714   0.057  14.313 -1.5208 -2.4160  1.2943
18610TIP3   OH277320   4.783   2.315   0.511 -0.4078 -0.8892  0.2721
18610TIP3    H177321   4.820   2.227   0.515 -0.8909 -1.1231 -0.1725
18610TIP3    H277322   4.690   2.301   0.493  0.0894 -0.2981 -3.7160
18611TIP3   OH277323   2.321   4.435   6.810  0.0579  0.0250 -0.3541
18611TIP3    H177324   2.308   4.356   6.863  2.1519 -1.5208 -2.0046
18611TIP3    H277325   2.249   4.493   6.837 -0.9466 -1.9850  1.6807
18612TIP3   OH277326   1.834   6.391   4.255 -0.6634 -0.2258  0.3580
18612TIP3    H177327   1.906   6.451   4.236 -0.6901  0.0883  1.1754
18612TIP3    H277328   1.839   6.324   4.187 -1.4060  1.3664 -1.3499
18613TIP3   OH277329   2.213   2.677  13.825  0.1167  0.1739 -0.2730
18613TIP3    H177330   2.118   2.672  13.820 -0.0088 -0.1462  1.5365
18613TIP3    H277331   2.234   2.642  13.912  1.9631 -0.6837 -0.9986
18614TIP3   OH277332   0.628   3.185   3.790  0.0323  0.3895 -0.4369
18614TIP3    H177333   0.578   3.193   3.708  1.0671  0.4241 -1.0852
18614TIP3    H277334   0.701   3.246   3.779 -0.2052  0.9255  0.8272
18615TIP3   OH277335   4.820   0.747  14.587  0.1486  0.2452 -0.7698
18615TIP3    H177336   4.870   0.821  14.620  1.6738 -1.0884  0.0843
18615TIP3    H277337   4.862   0.670  14.627 -2.5023 -0.9881 -0.1275
18616TIP3   OH277338   1.054   0.223   5.174  0.0400  0.6826 -0.1075
18616TIP3    H177339   0.961   0.208   5.157 -0.2370  0.7853  1.2204
18616TIP3    H277340   1.080   0.151   5.232  0.5249  1.2349  0.3759
18617TIP3   OH277341   4.743   1.400   6.255  0.3191 -0.5972  0.3323
18617TIP3    H177342   4.838   1.403   6.246  0.2755 -1.9644 -1.0555
18617TIP3    H277343   4.727   1.327   6.315  0.1293 -1.1204 -0.3397
18618TIP3   OH277344   6.798   5.134   5.425  0.5909 -0.0485 -0.1576
18618TIP3    H177345   6.830   5.157   5.513 -0.3371  1.1517 -0.0993
18618TIP3    H277346   6.782   5.040   5.430  0.2523  0.0448  1.0858
18619TIP3   OH277347   3.570   0.133   1.150  0.3492  0.1099  0.1377
18619TIP3    H177348   3.607   0.151   1.063  1.5117 -1.7006  0.1974
18619TIP3    H277349   3.536   0.044   1.143  1.8127 -0.6447  1.9181
18620TIP3   OH277350   0.016   3.310  15.249 -0.7092 -0.0772 -0.1184
18620TIP3    H177351   0.043   3.372  15.181  0.1693 -0.5932 -0.2576
18620TIP3    H277352   0.034   3.224  15.211 -0.4281 -0.3743  0.6807
18621TIP3   OH277353   0.999   5.863  13.729 -0.4321  0.1487  0.1781
18621TIP3    H177354   0.924   5.819  13.690 -0.8422  2.0796 -1.3977
18621TIP3    H277355   0.962   5.911  13.804 -0.3726 -0.4472  0.6006
18622TIP3   OH277356   4.339   1.780  11.258  0.0770 -0.1424  0.0709
18622TIP3    H177357   4.273   1.713  11.244 -0.0685 -0.1512  0.7481
18622TIP3    H277358   4.418   1.747  11.215  0.7951 -2.0126  2.5763
18623TIP3   OH277359   6.540   5.432  15.744  0.0641 -0.8053 -0.1055
18623TIP3    H177360   6.466   5.435  15.805  1.2698  0.0105  1.3889
18623TIP3    H277361   6.600   5.499  15.775  0.0677  0.7977 -3.1588
18624TIP3   OH277362   0.381   4.291   4.454 -0.1345  0.4426 -0.2054
18624TIP3    H177363   0.338   4.299   4.539 -0.6788  0.5980 -0.4952
18624TIP3    H277364   0.317   4.323   4.391 -0.5812 -1.7025 -0.9149
18625TIP3   OH277365   5.756   6.739   5.733 -0.1512 -0.3173  0.2910
18625TIP3    H177366   5.837   6.784   5.756 -0.4415  0.8973 -0.9008
18625TIP3    H277367   5.691   6.776   5.793 -0.0149 -0.6007  0.6175
18626TIP3   OH277368   1.884   5.445   0.769  0.1540 -0.0940  0.0628
18626TIP3    H177369   1.944   5.378   0.801 -0.1814 -1.5717 -2.1482
18626TIP3    H277370   1.896   5.444   0.674 -1.4609  1.4309 -0.2083
18627TIP3   OH277371   0.184   5.320  12.891  0.4951  0.2845  0.3506
18627TIP3    H177372   0.229   5.292  12.970  0.4172  0.4418  0.4515
18627TIP3    H277373   0.246   5.303  12.820  0.7242  0.5232  0.4914
18628TIP3   OH277374   2.787   0.768   1.829 -0.4915 -1.0926  0.6609
18628TIP3    H177375   2.744   0.759   1.915 -0.9011 -1.2521  0.4421
18628TIP3    H277376   2.719   0.743   1.766 -0.8957  1.1073  0.1569
18629TIP3   OH277377   1.693   2.581  17.064  0.3516 -0.2538 -0.1690
18629TIP3    H177378   1.660   2.556  16.978 -0.8618  0.2620  0.1297
18629TIP3    H277379   1.693   2.677  17.062 -0.3691 -0.2239  0.6462
18630TIP3   OH277380   1.550   5.309  11.674  0.0744 -0.2377 -0.0673
18630TIP3    H177381   1.486   5.242  11.650 -0.1537 -0.3871  0.8887
18630TIP3    H277382   1.630   5.260  11.692  0.7322  0.0220 -2.0540
18631TIP3   OH277383   4.970   1.143  16.320 -0.7075  0.5502 -0.5351
18631TIP3    H177384   4.943   1.215  16.377  1.4230  0.2839  0.9240
18631TIP3    H277385   4.974   1.067  16.378 -2.0200 -0.5842 -1.8523
18632TIP3   OH277386   1.891   6.380  17.238  0.0614 -0.2478 -0.0419
18632TIP3    H177387   1.811   6.360  17.287 -0.6627  1.1984 -0.5641
18632TIP3    H277388   1.900   6.476  17.245  1.5373 -0.3333 -0.3226
18633TIP3   OH277389   0.216   6.133   3.198 -0.7182  0.1481  0.4578
18633TIP3    H177390   0.303   6.164   3.175 -1.6210  2.1738 -0.4251
18633TIP3    H277391   0.229   6.040   3.219  1.7292  0.5446  1.0032
18634TIP3   OH277392   2.621   2.173   4.500 -0.0156  0.0679 -0.0820
18634TIP3    H177393   2.655   2.262   4.500  0.1600  0.0004  0.2582
18634TIP3    H277394   2.698   2.117   4.506 -0.0840 -0.1285 -0.8819
18635TIP3   OH277395   2.487   6.119  12.387  0.0907  0.1660 -0.2099
18635TIP3    H177396   2.470   6.078  12.302  1.3548 -0.1179 -0.3481
18635TIP3    H277397   2.516   6.047  12.443  0.1627  0.5032  0.1949
18636TIP3   OH277398   5.036   0.334   5.116  0.4445 -0.2328 -0.2283
18636TIP3    H177399   4.973   0.405   5.102 -0.5013 -0.9246  0.4479
18636TIP3    H277400   5.002   0.261   5.065  2.8827  0.5194 -3.2838
18637TIP3   OH277401   2.286   2.306  13.200 -0.0459  0.4319  0.0475
18637TIP3    H177402   2.311   2.217  13.173 -1.6891  0.4060 -1.5698
18637TIP3    H277403   2.368   2.356  13.196  0.5908 -0.6188 -0.6279
18638TIP3   OH277404   3.920   5.936  11.018  0.2693  0.0281  0.2667
18638TIP3    H177405   3.880   5.872  10.959  0.8360  0.5023 -0.6597
18638TIP3    H277406   3.926   5.891  11.102 -0.6665 -0.6206  0.0027
18639TIP3   OH277407   3.789   5.502  11.121 -0.0618  0.1780 -0.3709
18639TIP3    H177408   3.741   5.449  11.056 -1.2012 -0.2172  0.7508
18639TIP3    H277409   3.721   5.555  11.163  0.6859  0.5537  0.3787
18640TIP3   OH277410   4.835   4.519   3.101 -0.4266  0.7216  0.1796
18640TIP3    H177411   4.791   4.599   3.129  1.2634  1.7025  0.1895
18640TIP3    H277412   4.890   4.495   3.176  0.9312  0.9721 -0.6995
18641TIP3   OH277413   3.236   5.900   6.889  0.2218  0.1090 -0.4773
18641TIP3    H177414   3.324   5.916   6.922  1.0180 -0.9433 -1.9488
18641TIP3    H277415   3.248   5.877   6.797 -1.6761  0.7632 -0.9455
18642TIP3   OH277416   3.846   1.083  12.095 -0.5134  0.9213  0.1429
18642TIP3    H177417   3.766   1.097  12.146  1.0943  1.4233  2.7249
18642TIP3    H277418   3.887   1.170  12.090 -0.1019  0.6738 -1.1362
18643TIP3   OH277419   5.966   5.216  13.715 -0.3448  0.3825  0.0745
18643TIP3    H177420   6.037   5.155  13.695 -0.3905  0.3535 -0.0022
18643TIP3    H277421   6.003   5.275  13.781  0.0769  0.9612 -0.6562
18644TIP3   OH277422   3.201   3.940   2.548 -0.3138 -0.1769  0.1461
18644TIP3    H177423   3.290   3.975   2.555 -0.6120  0.6416  0.0075
18644TIP3    H277424   3.185   3.934   2.454 -0.7078  0.4981  0.1636
18645TIP3   OH277425   6.014   3.659   4.623  0.3814  0.1987  0.6862
18645TIP3    H177426   6.093   3.628   4.667  1.2587  2.3669  0.7470
18645TIP3    H277427   5.961   3.696   4.693 -1.5598 -2.6760  0.9238
18646TIP3   OH277428   3.498   0.871   2.972  0.0413 -0.3593 -0.4340
18646TIP3    H177429   3.408   0.837   2.972 -0.3711  0.6748 -0.9924
18646TIP3    H277430   3.543   0.819   2.905 -0.6708  0.3950 -1.5258
18647TIP3   OH277431   0.647   0.376  11.025  0.0886  0.0784 -0.3983
18647TIP3    H177432   0.693   0.426  11.093  1.4955 -1.3035 -0.2689
18647TIP3    H277433   0.715   0.350  10.963 -1.2788  1.9974 -2.8795
18648TIP3   OH277434   6.545   2.068  14.046 -0.1783  0.1453 -0.2703
18648TIP3    H177435   6.595   2.104  13.973  1.5141 -1.0805  0.1941
18648TIP3    H277436   6.551   2.134  14.115 -0.2841  0.5585 -0.6567
18649TIP3   OH277437   0.241   3.337  16.371  0.1746  0.1038 -0.7182
18649TIP3    H177438   0.324   3.294  16.350  0.6935 -0.4979  2.1393
18649TIP3    H277439   0.188   3.268  16.411 -1.4749  0.6624 -1.8566
18650TIP3   OH277440   2.705   6.173   4.521  0.0625 -0.2448  0.3244
18650TIP3    H177441   2.645   6.246   4.517  1.7525  1.1724 -1.0689
18650TIP3    H277442   2.730   6.166   4.613 -0.0721  0.9839  0.4603
18651TIP3   OH277443   5.847   3.837   4.236  0.3445 -0.0115  0.1846
18651TIP3    H177444   5.926   3.854   4.288 -0.4661 -0.0911  1.4791
18651TIP3    H277445   5.872   3.860   4.147  2.1642 -1.0301  0.3826
18652TIP3   OH277446   0.593   1.347  16.133 -0.2628  0.2987 -0.1635
18652TIP3    H177447   0.515   1.399  16.151  0.4299  1.0686  0.7075
18652TIP3    H277448   0.637   1.393  16.062 -0.8564 -0.4470 -1.0522
18653TIP3   OH277449   3.623   5.994   0.891 -0.3689  0.4160  0.6503
18653TIP3    H177450   3.717   5.989   0.870 -0.1430  0.9064  1.4827
18653TIP3    H277451   3.596   5.903   0.902 -0.4764  0.1383 -1.5683
18654TIP3   OH277452   2.344   5.125  11.960  0.7000  0.0870  0.4424
18654TIP3    H177453   2.354   5.159  11.871 -1.0064 -1.7214 -0.4929
18654TIP3    H277454   2.353   5.203  12.016  2.0868  1.2210 -1.2359
18655TIP3   OH277455   4.315   1.646   3.440 -0.1286 -0.0465 -0.4399
18655TIP3    H177456   4.361   1.680   3.364 -0.8152  1.2117 -0.3260
18655TIP3    H277457   4.307   1.721   3.499 -2.6445 -0.0814 -0.6317
18656TIP3   OH277458   2.590   0.454  12.533  0.6585  0.1303 -0.0509
18656TIP3    H177459   2.538   0.408  12.467 -0.2066 -0.6628  1.1419
18656TIP3    H277460   2.665   0.489  12.484 -0.8950  1.2086 -1.7981
18657TIP3   OH277461   5.224   1.747  12.523  0.2626  0.1195  0.5018
18657TIP3    H177462   5.281   1.695  12.580 -0.2276 -0.4044  0.5285
18657TIP3    H277463   5.275   1.756  12.442  0.0696 -1.0800  0.2133
18658TIP3   OH277464   3.150   5.763  17.343  0.3531 -0.2998  0.3687
18658TIP3    H177465   3.082   5.736  17.281  0.0848 -0.9177  0.9143
18658TIP3    H277466   3.135   5.856  17.357  0.2582 -0.2161 -0.3017
18659TIP3   OH277467   6.017   2.075  15.862 -0.0816 -0.1561  0.3679
18659TIP3    H177468   6.057   2.076  15.949  1.6287 -1.1514 -0.3684
18659TIP3    H277469   6.029   1.986  15.830 -0.1311  0.3427 -1.1428
18660TIP3   OH277470   5.508   5.648  15.677  0.7739  0.3398 -0.5461
18660TIP3    H177471   5.565   5.701  15.734 -0.3285  0.4811  0.4773
18660TIP3    H277472   5.475   5.579  15.734  0.2745 -0.0088 -1.2432
18661TIP3   OH277473   5.099   2.593   0.133  0.1589 -0.4975  0.2834
18661TIP3    H177474   5.037   2.653   0.092 -0.3144 -0.0107  1.6657
18661TIP3    H277475   5.123   2.532   0.063 -0.7267  0.2046 -0.6667
18662TIP3   OH277476   6.314   6.555   5.575 -0.0336  0.1903 -0.5702
18662TIP3    H177477   6.290   6.567   5.667 -1.6937  1.9178 -1.1579
18662TIP3    H277478   6.230   6.551   5.529  0.7530  1.8272 -2.2672
18663TIP3   OH277479   6.605   3.784   2.282  0.5736  0.2371 -0.0501
18663TIP3    H177480   6.656   3.801   2.361  1.6919 -0.5426 -0.5767
18663TIP3    H277481   6.606   3.868   2.235  0.8365  0.4008  0.2423
18664TIP3   OH277482   1.895   4.486  12.023  0.4206  0.5370  0.2897
18664TIP3    H177483   1.936   4.572  12.013  2.0987 -0.1992  0.5196
18664TIP3    H277484   1.918   4.458  12.112 -1.2340  0.3893  0.7050
18665TIP3   OH277485   5.333   5.973  11.036  0.2293 -0.0632  0.0563
18665TIP3    H177486   5.362   5.939  10.951  0.3196 -0.0684  0.0901
18665TIP3    H277487   5.283   5.901  11.075  1.8889 -0.8032  0.9007
18666TIP3   OH277488   4.041   3.904   3.855  0.2337  0.4462  0.1651
18666TIP3    H177489   4.006   3.826   3.811  0.6541 -0.1280  0.8396
18666TIP3    H277490   4.129   3.915   3.818  1.0042 -0.6502  1.5620
18667TIP3   OH277491   3.147   2.306  16.901  0.5197  0.2298 -0.3332
18667TIP3    H177492   3.118   2.395  16.918 -0.1141  0.1065 -0.7393
18667TIP3    H277493   3.212   2.288  16.969 -1.5671 -0.0807  1.7144
18668TIP3   OH277494   4.089   5.934  17.164 -0.0361  0.3680  0.4318
18668TIP3    H177495   4.154   5.870  17.133  0.5616  1.2389 -0.1624
18668TIP3    H277496   4.007   5.884  17.168  0.2828 -0.2894 -0.6411
18669TIP3   OH277497   5.069   5.145  13.755 -0.0714  0.1094 -0.0060
18669TIP3    H177498   4.974   5.152  13.768  0.0482  0.6794  0.6136
18669TIP3    H277499   5.107   5.171  13.839  0.5871 -2.7763  0.6979
18670TIP3   OH277500   1.591   5.180  14.188 -0.0372 -0.0733 -0.5771
18670TIP3    H177501   1.521   5.233  14.150 -1.4970  0.3396  2.3808
18670TIP3    H277502   1.662   5.242  14.204 -1.2364  0.8248  1.6399
18671TIP3   OH277503   1.299   0.213  15.806  0.6255 -0.0259 -0.1808
18671TIP3    H177504   1.355   0.160  15.750  1.2998  0.4283  0.0465
18671TIP3    H277505   1.338   0.206  15.893 -0.1140 -0.3112  0.1310
18672TIP3   OH277506   3.278   5.336   2.718  0.0494  0.6999 -0.0040
18672TIP3    H177507   3.207   5.282   2.753  0.3931  0.4687  0.3545
18672TIP3    H277508   3.357   5.283   2.733  0.1414  0.2819 -1.7529
18673TIP3   OH277509   1.593   4.840   2.324 -0.2588  0.4298  0.1780
18673TIP3    H177510   1.600   4.921   2.272 -0.1603 -0.6881 -1.6560
18673TIP3    H277511   1.551   4.867   2.405 -0.5991  2.2581 -0.5495
18674TIP3   OH277512   5.994   5.456   4.626 -0.1636 -0.4773  0.6671
18674TIP3    H177513   6.041   5.380   4.591 -0.2896 -0.7505  1.0781
18674TIP3    H277514   6.062   5.521   4.641  0.1875 -1.0865  1.8302
18675TIP3   OH277515   1.440   3.017  15.176 -0.1156  0.5768 -0.3191
18675TIP3    H177516   1.368   3.080  15.172 -1.2741 -0.7210 -0.4211
18675TIP3    H277517   1.507   3.061  15.230 -1.4806  1.3108  0.8423
18676TIP3   OH277518   1.751   6.204   2.361  0.6861 -0.8800 -0.0253
18676TIP3    H177519   1.844   6.221   2.375  0.9125 -2.5900  0.8400
18676TIP3    H277520   1.732   6.129   2.418 -1.4199 -0.0593  0.4409
18677TIP3   OH277521   0.198   5.478   6.386 -0.2320 -0.1558  0.1637
18677TIP3    H177522   0.260   5.517   6.324  1.2425 -0.5991  1.2934
18677TIP3    H277523   0.179   5.549   6.448 -0.7456 -0.0648 -0.0940
18678TIP3   OH277524   0.778   3.121  17.250  0.0144  0.2129  0.8151
18678TIP3    H177525   0.752   3.170  17.172 -0.4467 -0.5578  0.4662
18678TIP3    H277526   0.841   3.177  17.294  0.0805  0.7796  0.0236
18679TIP3   OH277527   2.507   0.322  13.654 -0.0833 -0.1755  0.0230
18679TIP3    H177528   2.571   0.331  13.583  1.8268 -0.4020  1.6196
18679TIP3    H277529   2.523   0.235  13.690 -3.0872 -1.2951 -1.0980
18680TIP3   OH277530   6.753   3.305   1.795  0.3501  0.2871 -0.3923
18680TIP3    H177531   6.821   3.370   1.779  1.0034 -0.1974  0.3648
18680TIP3    H277532   6.752   3.251   1.716  0.1622  0.8919 -0.8093
18681TIP3   OH277533   1.947   3.646  11.605  0.0698 -0.2482 -0.0021
18681TIP3    H177534   2.015   3.645  11.537  0.0224  0.0906 -0.0540
18681TIP3    H277535   1.865   3.644  11.557  0.0399 -0.6672  0.0618
18682TIP3   OH277536   5.117   4.296   2.420  0.2077 -0.4293  0.4190
18682TIP3    H177537   5.160   4.301   2.335  1.2689 -2.0256  0.8325
18682TIP3    H277538   5.121   4.204   2.445 -1.1800 -0.2037  1.6614
18683TIP3   OH277539   1.665   4.451   0.083 -0.5444  0.8148 -0.3631
18683TIP3    H177540   1.697   4.541   0.074  0.1253  0.7048  0.7443
18683TIP3    H277541   1.708   4.403   0.012 -0.4880  1.2564 -0.6325
18684TIP3   OH277542   1.978   2.968   1.723  0.0000 -0.0662  0.2079
18684TIP3    H177543   1.904   2.908   1.732  0.1254 -0.1922  0.4178
18684TIP3    H277544   2.041   2.921   1.668  0.4643 -0.4856  1.0792
18685TIP3   OH277545   3.623   3.472  14.454 -0.3453 -0.1886  0.0036
18685TIP3    H177546   3.669   3.520  14.385  0.6922  0.5464  1.1432
18685TIP3    H277547   3.684   3.402  14.479 -0.1765  0.2669  0.9433
18686TIP3   OH277548   6.517   5.283  14.929  0.5648 -0.1866  0.2231
18686TIP3    H177549   6.447   5.301  14.991 -0.1377 -1.6393 -0.1051
18686TIP3    H277550   6.579   5.355  14.941  0.0636 -0.0105  2.0214
18687TIP3   OH277551   0.931   0.807   6.312 -0.4796  0.1273 -0.6441
18687TIP3    H177552   0.910   0.747   6.240  0.2214  0.9642 -1.5843
18687TIP3    H277553   0.881   0.887   6.292 -2.1874 -0.4187  1.1164
18688TIP3   OH277554   2.554   5.098  16.214  0.3014 -0.8320 -0.1753
18688TIP3    H177555   2.502   5.044  16.154  0.6286 -0.0384 -1.2081
18688TIP3    H277556   2.492   5.130  16.279 -0.4948 -0.0690 -1.2737
18689TIP3   OH277557   4.840   6.111   1.247 -0.1228 -0.2930 -0.1997
18689TIP3    H177558   4.822   6.018   1.262  0.4084 -0.4706 -0.6414
18689TIP3    H277559   4.900   6.135   1.317 -0.6758 -0.1407  0.2328
18690TIP3   OH277560   1.610   0.052   3.269 -0.4768  0.0360  0.0935
18690TIP3    H177561   1.693   0.083   3.235 -0.0392 -0.4799  0.6661
18690TIP3    H277562   1.561   0.025   3.192  0.1882 -0.3623 -0.2007
18691TIP3   OH277563   0.203   3.822   6.102  0.0242  0.1075  0.2188
18691TIP3    H177564   0.159   3.848   6.021  0.7672  0.2729 -0.1424
18691TIP3    H277565   0.134   3.820   6.168 -0.9102 -1.6218 -0.7571
18692TIP3   OH277566   4.550   0.787  16.343  0.1322  0.1860  0.2685
18692TIP3    H177567   4.466   0.801  16.385  1.3447  3.6987  1.9036
18692TIP3    H277568   4.608   0.757  16.413  0.6162 -0.7263 -0.4951
18693TIP3   OH277569   6.573   1.864  17.261 -0.6693  0.5997 -0.3484
18693TIP3    H177570   6.511   1.803  17.219 -2.3485  2.6007 -0.9664
18693TIP3    H277571   6.519   1.912  17.324  0.8706  0.6637  0.9710
18694TIP3   OH277572   2.585   1.571   1.279 -0.1680 -0.3402 -0.3526
18694TIP3    H177573   2.620   1.586   1.367  1.0965  0.4735 -0.9696
18694TIP3    H277574   2.549   1.482   1.283  0.6899 -0.6700  0.7346
18695TIP3   OH277575   2.033   4.930   4.730  0.0295  0.0730  0.0126
18695TIP3    H177576   1.944   4.901   4.708 -0.5495  1.9555 -0.3342
18695TIP3    H277577   2.021   4.995   4.799  1.0694  0.7789 -0.4382
18696TIP3   OH277578   1.958   4.648  14.327  0.1658  0.1266  0.3731
18696TIP3    H177579   1.922   4.735  14.312 -0.4317 -0.2031 -0.1456
18696TIP3    H277580   1.902   4.589  14.276  0.1932 -0.6331  1.1751
18697TIP3   OH277581   2.221   6.760   2.502 -0.2468  0.6517  1.1274
18697TIP3    H177582   2.204   6.774   2.595  1.4425  0.8235  1.4297
18697TIP3    H277583   2.315   6.771   2.492 -0.3162  0.0903 -0.5152
18698TIP3   OH277584   2.561   0.132  13.153  0.2675 -0.1220  0.2664
18698TIP3    H177585   2.544   0.199  13.220 -0.4645  0.7195 -0.7276
18698TIP3    H277586   2.622   0.174  13.093 -0.2195 -0.3289 -0.3818
18699TIP3   OH277587   2.789   6.718  16.967  0.1874 -0.1392 -0.3905
18699TIP3    H177588   2.881   6.721  16.942 -0.1364  0.1776 -1.6700
18699TIP3    H277589   2.750   6.654  16.907 -0.7030  0.8777 -0.9403
18700TIP3   OH277590   4.219   6.216  13.637  0.1189 -0.1289  0.0544
18700TIP3    H177591   4.244   6.231  13.545  0.6472 -0.3327  0.1617
18700TIP3    H277592   4.272   6.279  13.686 -1.3451  1.1316  0.1056
18701TIP3   OH277593   4.184   6.270   2.136  0.2101 -0.2310  0.0333
18701TIP3    H177594   4.182   6.269   2.040 -0.7062  1.1689  0.0106
18701TIP3    H277595   4.268   6.231   2.159 -0.3902 -2.4445 -1.2783
18702TIP3   OH277596   6.537   0.775  11.983 -0.3912  0.3583 -0.2297
18702TIP3    H177597   6.566   0.846  12.040 -0.4274 -0.5675  0.9953
18702TIP3    H277598   6.499   0.711  12.043  1.9400 -1.8687 -0.9426
18703TIP3   OH277599   2.843   2.008  16.377 -0.3279  0.0119 -0.0089
18703TIP3    H177600   2.843   2.098  16.344  0.5194  0.0734  0.1240
18703TIP3    H277601   2.933   1.978  16.362 -0.3826 -0.5249  0.7123
18704TIP3   OH277602   4.328   5.439  14.683 -0.1521 -0.0256 -0.1511
18704TIP3    H177603   4.384   5.457  14.758  0.9462  0.6866 -1.1106
18704TIP3    H277604   4.380   5.464  14.607 -1.7723  0.6827 -1.0897
18705TIP3   OH277605   1.079   3.388   2.191  0.7871  0.0461  0.3448
18705TIP3    H177606   1.070   3.314   2.251  2.6882 -0.0808  0.5487
18705TIP3    H277607   1.140   3.447   2.235  3.6041 -0.8282 -2.0576
18706TIP3   OH277608   4.677   2.326  15.119  0.1409 -0.0328  0.2580
18706TIP3    H177609   4.677   2.262  15.048 -1.1530 -0.7766  0.8939
18706TIP3    H277610   4.679   2.273  15.199  0.5693  0.7713  0.7974
18707TIP3   OH277611   0.122   2.801  12.620  0.1517  0.1591  0.2651
18707TIP3    H177612   0.194   2.846  12.664  1.1863  0.4981 -1.6504
18707TIP3    H277613   0.045   2.855  12.639  0.3458 -0.2201  2.3572
18708TIP3   OH277614   3.947   5.372   3.525 -0.6187  0.2014 -0.7871
18708TIP3    H177615   3.943   5.428   3.448 -0.2886 -0.6477 -1.4494
18708TIP3    H277616   3.931   5.284   3.491  1.2940 -0.4411 -0.1816
18709TIP3   OH277617   1.798   5.478   1.080 -0.1332  0.7918 -0.7881
18709TIP3    H177618   1.814   5.568   1.053  0.7985  0.6879 -0.6277
18709TIP3    H277619   1.825   5.425   1.004  2.1710  0.5174  0.1467
18710TIP3   OH277620   2.851   2.661   0.009  0.0823  0.4544  0.0058
18710TIP3    H177621   2.864   2.686  -0.082  1.9903  0.6275  0.2823
18710TIP3    H277622   2.887   2.573   0.015 -0.9620  0.0354  0.3948
18711TIP3   OH277623   4.122   6.579   4.608  0.0810 -0.2465  0.0757
18711TIP3    H177624   4.027   6.566   4.614 -0.2006  1.8222  1.0211
18711TIP3    H277625   4.132   6.673   4.595  2.0495  0.0085  2.6747
18712TIP3   OH277626   1.487   2.935   5.520 -0.3050 -0.2079 -0.3200
18712TIP3    H177627   1.551   3.000   5.493  0.3195 -0.6510  0.0479
18712TIP3    H277628   1.455   2.966   5.605 -0.9056  0.2337 -0.6988
18713TIP3   OH277629   4.449   0.595   2.904  0.0939 -0.3479 -0.3189
18713TIP3    H177630   4.386   0.647   2.954 -0.8833 -0.7955 -1.0370
18713TIP3    H277631   4.479   0.654   2.835  0.0928 -0.2839 -0.2652
18714TIP3   OH277632   4.203   1.010   0.519  0.1439 -0.0363 -0.2788
18714TIP3    H177633   4.294   1.027   0.495  0.6626 -2.4838 -0.3115
18714TIP3    H277634   4.208   0.985   0.612 -0.4133 -0.6957 -0.4218
18715TIP3   OH277635   6.804   0.656   2.953  0.2351 -0.1315 -0.5090
18715TIP3    H177636   6.898   0.649   2.933  0.2860  1.0017 -0.7182
18715TIP3    H277637   6.788   0.750   2.961 -0.3956 -0.3923  1.9119
18716TIP3   OH277638   0.616   4.464   3.997  0.0674  0.1677  0.0798
18716TIP3    H177639   0.607   4.554   4.027  2.1336  0.0202  1.3911
18716TIP3    H277640   0.534   4.422   4.022 -2.0557  2.1926 -2.9085
18717TIP3   OH277641   4.204   0.218  16.035 -0.0349 -0.7383  0.0589
18717TIP3    H177642   4.195   0.177  16.120 -0.1289  1.8558  1.4067
18717TIP3    H277643   4.137   0.287  16.034  1.5049  0.8480 -1.0978
18718TIP3   OH277644   0.401   1.092  11.302  0.1929 -0.2909 -0.3724
18718TIP3    H177645   0.418   1.124  11.213  0.4262 -1.2635 -0.6803
18718TIP3    H277646   0.371   1.002  11.291 -1.1965  0.0311  0.4440
18719TIP3   OH277647   1.629   4.724  16.215  0.0821 -0.0252  0.2077
18719TIP3    H177648   1.623   4.783  16.140 -0.9434  0.3924  0.5906
18719TIP3    H277649   1.656   4.781  16.287 -0.5112 -0.0916  0.4913
18720TIP3   OH277650   1.289   3.577   4.632 -0.0320  0.0258  0.2520
18720TIP3    H177651   1.310   3.488   4.662  0.5553  0.5464  1.4337
18720TIP3    H277652   1.276   3.627   4.712 -3.2619  0.3943 -0.3906
18721TIP3   OH277653   2.110   5.851   0.462 -0.0981 -0.2072 -0.1111
18721TIP3    H177654   2.089   5.782   0.399 -1.2290 -0.1697  0.2162
18721TIP3    H277655   2.081   5.931   0.420  1.0283  0.0737 -0.4021
18722TIP3   OH277656   0.507   1.695   0.338  0.4353  0.8859 -0.4486
18722TIP3    H177657   0.594   1.709   0.376  0.6060 -0.0864 -0.4405
18722TIP3    H277658   0.519   1.623   0.276 -0.7156 -0.6189  0.9635
18723TIP3   OH277659   2.578   3.943   2.469  0.3159  0.1864  0.4317
18723TIP3    H177660   2.579   3.932   2.374 -0.4203 -2.1948  0.6257
18723TIP3    H277661   2.617   3.862   2.502 -0.3148  0.5536  2.1501
18724TIP3   OH277662   3.977   2.439  15.885 -0.3725  0.0091 -0.4298
18724TIP3    H177663   4.003   2.513  15.830  0.2367 -0.7984 -1.2672
18724TIP3    H277664   3.968   2.366  15.823 -1.5529 -0.4852  0.2873
18725TIP3   OH277665   2.220   3.328  16.372 -0.0377 -0.2277 -0.2685
18725TIP3    H177666   2.136   3.317  16.329 -0.4000  0.5163  0.2395
18725TIP3    H277667   2.210   3.283  16.456 -0.2885  0.7705  0.2435
18726TIP3   OH277668   2.411   4.549  16.036  0.4054 -0.2743  0.2806
18726TIP3    H177669   2.379   4.607  16.105  0.3562  0.0327  0.0017
18726TIP3    H277670   2.435   4.609  15.964 -3.2640 -0.7816 -1.5564
18727TIP3   OH277671   0.136   3.805   4.726 -0.1823  0.3583 -0.3495
18727TIP3    H177672   0.103   3.884   4.683 -0.1003  0.2666 -0.5849
18727TIP3    H277673   0.097   3.806   4.813  2.3735  2.4203  0.9063
18728TIP3   OH277674   6.045   5.028   5.934  0.1134 -0.5067 -0.1514
18728TIP3    H177675   6.125   4.977   5.942  0.3993 -0.2167 -1.0056
18728TIP3    H277676   5.979   4.979   5.983  0.7620 -0.8533  0.3806
18729TIP3   OH277677   0.227   4.509   4.029  0.4223  0.1421 -0.3053
18729TIP3    H177678   0.282   4.444   3.984  0.4733 -0.7482  0.9685
18729TIP3    H277679   0.275   4.528   4.110 -0.1737  0.8873 -0.1186
18730TIP3   OH277680   1.902   6.398   3.597  0.1825 -0.0458 -0.5985
18730TIP3    H177681   1.953   6.478   3.586 -0.8407  0.9590  1.4211
18730TIP3    H277682   1.862   6.382   3.511  2.3226  0.1655 -1.7120
18731TIP3   OH277683   5.001   0.385   4.760 -0.1334  0.3766  0.2588
18731TIP3    H177684   5.013   0.459   4.820 -0.9241  0.4276  0.3647
18731TIP3    H277685   4.983   0.311   4.818 -1.4903  0.5439  0.0741
18732TIP3   OH277686   5.502   2.193   0.382 -0.4808  0.2346 -0.0624
18732TIP3    H177687   5.549   2.120   0.422  0.2183 -0.2747 -1.7175
18732TIP3    H277688   5.429   2.152   0.336 -0.6826  0.6887 -0.1532
18733TIP3   OH277689   4.777   4.115  14.588  0.0362  0.3803  0.6013
18733TIP3    H177690   4.870   4.101  14.568 -0.1005  0.2301  0.0548
18733TIP3    H277691   4.737   4.134  14.503 -0.3113  1.1632  0.9265
18734TIP3   OH277692   0.734   5.527   1.578  0.0247  0.5687  0.2076
18734TIP3    H177693   0.745   5.535   1.673 -1.0262  0.6664  0.3339
18734TIP3    H277694   0.712   5.435   1.564  1.0367  0.3560 -0.0431
18735TIP3   OH277695   4.555   1.421  16.588 -0.1908  0.6557  0.7235
18735TIP3    H177696   4.604   1.503  16.595  0.7573  0.1659  0.0570
18735TIP3    H277697   4.612   1.356  16.631 -0.3886  0.1279  0.1934
18736TIP3   OH277698   5.592   5.665  12.126 -0.0659 -0.4337 -0.3072
18736TIP3    H177699   5.542   5.722  12.069 -0.8629 -2.2987 -1.5852
18736TIP3    H277700   5.553   5.677  12.213 -0.2164  0.8938 -0.5395
18737TIP3   OH277701   1.506   6.159  11.796  0.4076  0.6238  0.8084
18737TIP3    H177702   1.411   6.155  11.812 -0.0967  0.7963 -1.7178
18737TIP3    H277703   1.517   6.231  11.734  1.5569 -2.0895 -2.4120
18738TIP3   OH277704   6.148   6.574  17.125 -0.0576 -0.0058 -0.4349
18738TIP3    H177705   6.081   6.510  17.150 -0.8706 -0.2255 -2.9842
18738TIP3    H277706   6.222   6.520  17.096 -0.7254  0.1349 -2.5387
18739TIP3   OH277707   2.125   1.068   4.495 -0.4093 -0.1362  0.1896
18739TIP3    H177708   2.194   1.119   4.538  1.1254 -1.4772 -0.5712
18739TIP3    H277709   2.107   1.114   4.414 -3.1097  2.2461  1.9192
18740TIP3   OH277710   3.109   3.184  16.365 -0.0520 -0.3458 -0.1448
18740TIP3    H177711   3.146   3.251  16.308 -2.6545 -0.0612 -1.6575
18740TIP3    H277712   3.121   3.102  16.316  0.1423 -0.5044  0.1659
18741TIP3   OH277713   4.004   1.804  11.686 -0.1521 -0.4013  0.0618
18741TIP3    H177714   4.023   1.841  11.772 -1.0253 -1.6934  0.8510
18741TIP3    H277715   4.085   1.814  11.637  0.1975  0.8280  0.8508
18742TIP3   OH277716   6.770   0.718  13.401  0.4375  0.3701 -0.6035
18742TIP3    H177717   6.682   0.698  13.431  0.8119  0.2802  0.4768
18742TIP3    H277718   6.790   0.651  13.335 -0.0151 -0.0528 -0.3071
18743TIP3   OH277719   3.344   5.591  11.367 -0.2567 -0.0004 -0.0759
18743TIP3    H177720   3.388   5.551  11.292 -0.3313  0.1698 -0.2115
18743TIP3    H277721   3.405   5.578  11.440 -0.6701 -1.1473  0.0788
18744TIP3   OH277722   1.470   4.224   2.548 -0.1378  0.4034 -0.5616
18744TIP3    H177723   1.434   4.232   2.636 -1.6874 -2.2740 -0.8232
18744TIP3    H277724   1.554   4.268   2.551 -0.5136  1.0762  2.0142
18745TIP3   OH277725   1.339   6.252   3.632 -0.1785  0.1442  0.2870
18745TIP3    H177726   1.327   6.180   3.570  1.6825  0.7689 -0.8792
18745TIP3    H277727   1.271   6.315   3.607 -1.1813 -0.7423  0.6789
18746TIP3   OH277728   3.592   3.436  13.161  0.0934  0.3550 -0.0698
18746TIP3    H177729   3.544   3.357  13.187  0.9400 -0.0831  0.2071
18746TIP3    H277730   3.589   3.492  13.238  2.4415 -0.8648  1.0280
18747TIP3   OH277731   2.406   2.172  13.717 -0.5238 -0.0965  0.1836
18747TIP3    H177732   2.311   2.175  13.718 -0.5467 -0.2436 -0.6779
18747TIP3    H277733   2.429   2.170  13.624  0.3702  1.5581  0.3210
18748TIP3   OH277734   5.473   5.105   3.602  0.0675 -0.1875 -0.0030
18748TIP3    H177735   5.403   5.072   3.658  0.5540 -0.8846  0.2058
18748TIP3    H277736   5.447   5.079   3.513  0.4126 -1.1034  0.1499
18749TIP3   OH277737   4.015   0.752  12.643  0.7746  0.0614 -0.2616
18749TIP3    H177738   4.083   0.684  12.645  2.1460  1.2505 -2.3035
18749TIP3    H277739   3.988   0.761  12.734  3.3281 -0.5140  0.6543
18750TIP3   OH277740   1.368   2.757  15.255 -0.2359  0.3351  0.1347
18750TIP3    H177741   1.377   2.851  15.239  0.6834  0.3784  0.7657
18750TIP3    H277742   1.414   2.743  15.338  1.1683 -0.9463 -0.8067
18751TIP3   OH277743   3.242   2.779   3.987 -0.3616  0.1453 -0.3931
18751TIP3    H177744   3.312   2.765   3.924  0.0962 -2.5685  0.5735
18751TIP3    H277745   3.193   2.853   3.953  3.9015  3.4195 -0.2442
18752TIP3   OH277746   6.179   3.491  12.463 -0.2366 -0.4046 -0.2315
18752TIP3    H177747   6.217   3.414  12.505 -0.9015 -1.0419 -0.7614
18752TIP3    H277748   6.088   3.466  12.447 -0.3373  0.3249 -0.8261
18753TIP3   OH277749   1.430   1.062  10.659  0.0199  0.0767  0.4274
18753TIP3    H177750   1.440   0.969  10.639  2.6423 -0.2516  2.6097
18753TIP3    H277751   1.499   1.105  10.610 -0.9727  0.8711 -0.3108
18754TIP3   OH277752   4.329   4.175  16.680  0.2342 -0.8273  0.0348
18754TIP3    H177753   4.359   4.098  16.632 -0.4716  0.0068 -1.8587
18754TIP3    H277754   4.236   4.159  16.695  0.4861 -1.1619  1.3494
18755TIP3   OH277755   1.262   2.385   0.940  0.1062  0.5175  0.5607
18755TIP3    H177756   1.185   2.338   0.973 -1.1756  0.0389 -2.6982
18755TIP3    H277757   1.312   2.319   0.892 -0.6154  1.9165 -2.3322
18756TIP3   OH277758   1.853   4.617   4.934  0.5042 -0.1589 -0.2866
18756TIP3    H177759   1.944   4.587   4.936 -0.1281 -2.2281  0.2255
18756TIP3    H277760   1.820   4.587   4.849 -0.1120 -0.8474  0.1808
18757TIP3   OH277761   0.825   3.333  10.408 -0.0834 -0.9995 -0.4302
18757TIP3    H177762   0.793   3.278  10.336  0.1811 -1.3220 -0.2989
18757TIP3    H277763   0.909   3.296  10.432  0.8724  0.4241 -1.4132
18758TIP3   OH277764   1.035   1.183   3.554  0.0825  0.2657 -0.3058
18758TIP3    H177765   1.084   1.261   3.581  0.3799  0.3952 -1.1767
18758TIP3    H277766   0.951   1.216   3.523  0.2973  0.2686 -0.8937
18759TIP3   OH277767   0.117   4.667  16.695  0.2358  0.0289 -0.1421
18759TIP3    H177768   0.117   4.668  16.600  1.0411  0.3133 -0.1477
18759TIP3    H277769   0.153   4.752  16.720 -1.3218  0.5574  0.4414
18760TIP3   OH277770   0.446   2.928  15.325  0.0499  0.6291 -0.0807
18760TIP3    H177771   0.395   2.850  15.346 -4.1834  2.4970 -2.0905
18760TIP3    H277772   0.454   2.975  15.408 -0.7634 -0.1946  0.4815
18761TIP3   OH277773   5.608   4.273  14.496 -0.5164  0.2134  0.0442
18761TIP3    H177774   5.697   4.279  14.462  0.1553 -1.7446  1.2441
18761TIP3    H277775   5.559   4.228  14.427 -1.1432  2.9253 -1.4238
18762TIP3   OH277776   4.457   3.518  17.031 -0.1959  0.0831 -0.1244
18762TIP3    H177777   4.472   3.610  17.053 -0.3112 -0.2288  1.4120
18762TIP3    H277778   4.479   3.511  16.938  0.7651  1.4540 -0.0272
18763TIP3   OH277779   3.848   6.036  14.665 -0.2847  0.0602 -0.1996
18763TIP3    H177780   3.858   6.076  14.752  0.3454  0.7529 -0.5782
18763TIP3    H277781   3.792   5.960  14.680 -0.3155  0.2620  0.7884
18764TIP3   OH277782   3.690   6.155  16.145  0.3772 -0.3049 -0.3951
18764TIP3    H177783   3.715   6.111  16.226  2.0154 -1.2794 -1.3732
18764TIP3    H277784   3.697   6.248  16.165  2.5956 -0.5121  0.1252
18765TIP3   OH277785   5.235   0.150  13.954  0.2370 -0.2018  0.0710
18765TIP3    H177786   5.253   0.059  13.973 -1.2703 -0.7254 -0.8265
18765TIP3    H277787   5.154   0.170  14.002  0.1810  0.4452 -0.2726
18766TIP3   OH277788   0.465   6.232   3.159 -0.6360  0.2258  0.4165
18766TIP3    H177789   0.505   6.304   3.110 -1.8528  0.1132 -0.7858
18766TIP3    H277790   0.540   6.188   3.201  0.2570  1.3506  0.0685
18767TIP3   OH277791   4.400   3.626   3.761 -0.0027  0.0101  0.4160
18767TIP3    H177792   4.403   3.539   3.721 -0.4884  0.4475 -0.6238
18767TIP3    H277793   4.384   3.610   3.854 -0.7342 -0.9960  0.1314
18768TIP3   OH277794   6.684   0.353  11.421  0.0549 -0.5420  0.2430
18768TIP3    H177795   6.690   0.259  11.437  2.4421 -1.2682 -3.5659
18768TIP3    H277796   6.769   0.388  11.446 -0.6571  0.5660  1.2117
18769TIP3   OH277797   5.391   2.805   3.409 -0.9103 -0.2518 -0.3595
18769TIP3    H177798   5.340   2.882   3.434  0.1735  0.9086 -1.5624
18769TIP3    H277799   5.405   2.758   3.491 -1.5808  0.8321  0.4085
18770TIP3   OH277800   2.812   4.699  16.972  0.1426  0.0493 -0.1877
18770TIP3    H177801   2.857   4.615  16.961 -0.4323 -0.2337 -0.3918
18770TIP3    H277802   2.766   4.712  16.889 -0.7570 -0.0261  0.2958
18771TIP3   OH277803   0.019   3.505  10.614  0.1154  0.0204 -0.8005
18771TIP3    H177804  -0.030   3.496  10.533  1.1625  0.7908 -1.5526
18771TIP3    H277805  -0.040   3.550  10.674 -0.7461 -0.7603 -1.0485
18772TIP3   OH277806   2.091   2.647  16.761 -0.2922 -0.4031  0.2986
18772TIP3    H177807   2.183   2.672  16.760 -0.3426 -0.2010  0.5627
18772TIP3    H277808   2.078   2.605  16.846 -0.7441  0.7181  0.7969
18773TIP3   OH277809   6.681   1.834  13.466 -0.3244 -0.5580 -0.2556
18773TIP3    H177810   6.721   1.844  13.379 -0.3987  0.6824 -0.1710
18773TIP3    H277811   6.615   1.903  13.469  1.8049  1.5497  1.9563
18774TIP3   OH277812   4.506   3.778  12.960  0.1778  0.0657 -0.3439
18774TIP3    H177813   4.442   3.719  12.999 -0.1732  0.7860  0.2045
18774TIP3    H277814   4.540   3.828  13.034  1.6996 -0.5981 -0.5633
18775TIP3   OH277815   0.394   3.755   3.909  0.2622 -0.4011  0.8644
18775TIP3    H177816   0.389   3.677   3.964 -0.4828 -1.1436 -0.2248
18775TIP3    H277817   0.345   3.733   3.831  2.6989  0.0066 -0.8973
18776TIP3   OH277818   4.559   4.202  11.667 -0.0322 -0.1714  0.0624
18776TIP3    H177819   4.467   4.226  11.657 -0.0789  0.5756  1.8150
18776TIP3    H277820   4.602   4.237  11.589 -1.2340 -0.6335 -0.8368
18777TIP3   OH277821   5.448   1.185  15.371 -0.0486  0.3419  0.5100
18777TIP3    H177822   5.491   1.112  15.328 -1.1177 -0.7937  1.3036
18777TIP3    H277823   5.514   1.255  15.373  0.7124 -0.3092 -0.9940
18778TIP3   OH277824   0.484   3.378   2.380  0.2284  0.5176 -0.5133
18778TIP3    H177825   0.430   3.300   2.372  0.3713  0.2403  0.9680
18778TIP3    H277826   0.574   3.345   2.388  0.2780  0.8069  0.2431
18779TIP3   OH277827   4.956   4.804  17.273 -0.6230 -0.2751 -0.2164
18779TIP3    H177828   5.034   4.750  17.284 -1.1027 -0.6233  1.9096
18779TIP3    H277829   4.942   4.844  17.358 -3.1367 -0.7543 -0.3158
18780TIP3   OH277830   1.623   5.865   2.843  0.1758  0.3119  0.0258
18780TIP3    H177831   1.661   5.916   2.771 -3.2798  0.6566 -1.7673
18780TIP3    H277832   1.661   5.778   2.834  1.7562  1.0303 -0.5410
18781TIP3   OH277833   0.398   2.345  11.558  0.3394 -0.8433 -0.5055
18781TIP3    H177834   0.418   2.296  11.637  2.0841  0.9263  0.2267
18781TIP3    H277835   0.469   2.409  11.550 -1.2300  0.8642 -1.9561
18782TIP3   OH277836   1.538   5.512  13.246 -0.0807 -0.1148 -0.0297
18782TIP3    H177837   1.537   5.453  13.321 -1.3129  0.9350  0.8292
18782TIP3    H277838   1.567   5.458  13.172  0.2378 -1.4018  1.0081
18783TIP3   OH277839   2.114   4.976  12.655  0.1978  0.2248 -0.3951
18783TIP3    H177840   2.097   4.907  12.591  0.2366 -1.2332  1.1074
18783TIP3    H277841   2.047   5.042  12.638  0.6255  0.2015 -2.3541
18784TIP3   OH277842   4.432   4.898  11.312  0.3057  0.6278 -0.0732
18784TIP3    H177843   4.398   4.908  11.223  0.9014 -0.6584 -0.4654
18784TIP3    H277844   4.487   4.976  11.325  2.6560 -0.5805 -2.0070
18785TIP3   OH277845   2.271   3.022   0.105  0.3847 -0.3740 -0.3675
18785TIP3    H177846   2.317   3.064   0.032 -1.3231 -0.4406 -1.5633
18785TIP3    H277847   2.222   3.094   0.146  0.4123 -0.5482 -0.0293
18786TIP3   OH277848   5.413   5.781   1.849 -0.0148 -0.4727 -0.4943
18786TIP3    H177849   5.495   5.754   1.808  0.2079  0.2697 -0.5379
18786TIP3    H277850   5.415   5.739   1.935  0.9730  0.5090 -0.0222
18787TIP3   OH277851   1.927   5.658  16.265 -0.0195  0.2760 -0.4580
18787TIP3    H177852   1.942   5.581  16.210  1.8755 -2.2040  3.1264
18787TIP3    H277853   1.838   5.648  16.298  0.8115 -1.5338  1.4140
18788TIP3   OH277854   0.313   3.864  15.374  0.5398 -0.0411 -0.4439
18788TIP3    H177855   0.327   3.957  15.397  0.1401  0.3066 -1.5609
18788TIP3    H277856   0.219   3.852  15.378  0.5583 -0.2877 -0.7434
18789TIP3   OH277857   1.708   2.316   4.276 -0.0006 -0.5185 -0.7904
18789TIP3    H177858   1.801   2.299   4.292  0.3283  1.6544 -0.1022
18789TIP3    H277859   1.678   2.364   4.353 -1.9600 -1.9083 -0.6053
18790TIP3   OH277860   1.703   6.308  15.716 -0.2250 -0.4084 -0.2872
18790TIP3    H177861   1.682   6.368  15.788  1.8466 -0.4402  0.3984
18790TIP3    H277862   1.774   6.253  15.750 -0.0128 -1.2145 -1.9542
18791TIP3   OH277863   3.335   2.067   0.963  0.4306  0.2769  0.6078
18791TIP3    H177864   3.283   2.093   0.887  0.3234  1.3697  1.0400
18791TIP3    H277865   3.281   2.002   1.007  0.4421 -0.2811 -0.1807
18792TIP3   OH277866   6.182   4.412   0.249  0.4022 -0.1174  0.0168
18792TIP3    H177867   6.110   4.349   0.255 -0.3727  0.5156 -1.9535
18792TIP3    H277868   6.141   4.497   0.263  1.2062  0.0995  1.2460
18793TIP3   OH277869   2.584   2.135   3.558 -0.0866 -0.0874  0.1655
18793TIP3    H177870   2.582   2.180   3.642  0.2143  1.8226 -0.8031
18793TIP3    H277871   2.515   2.176   3.506 -0.9725 -1.9469 -0.2279
18794TIP3   OH277872   4.667   4.329  12.098  0.3134 -0.7275  0.0758
18794TIP3    H177873   4.630   4.415  12.078  2.7249  0.7242  1.3244
18794TIP3    H277874   4.700   4.338  12.188  3.3503 -1.8846 -0.8053
18795TIP3   OH277875   3.898   6.201   3.718  0.4009  0.0825  0.2990
18795TIP3    H177876   3.928   6.118   3.681  1.9358  1.1858 -1.0905
18795TIP3    H277877   3.835   6.235   3.653  0.9950  0.7260  0.0424
18796TIP3   OH277878   1.368   3.827  11.224  0.4554  0.1197  0.1800
18796TIP3    H177879   1.407   3.791  11.145  0.6360  1.1056 -0.1864
18796TIP3    H277880   1.297   3.883  11.193 -0.1855 -0.3497  0.7667
18797TIP3   OH277881   1.301   4.945  14.451  0.1472 -0.0269  0.0072
18797TIP3    H177882   1.297   5.039  14.432 -0.5227 -0.0868 -0.1812
18797TIP3    H277883   1.294   4.940  14.546  0.3636  0.1231  0.0326
18798TIP3   OH277884   3.849   3.631  11.932 -0.7091  0.4189 -0.1615
18798TIP3    H177885   3.904   3.703  11.962 -1.3372  0.7593  0.1806
18798TIP3    H277886   3.889   3.553  11.972 -1.5267  0.8570  1.5962
18799TIP3   OH277887   3.735   5.004   5.576  0.3852 -0.3690  0.5730
18799TIP3    H177888   3.754   5.077   5.635 -1.6459  0.4446  0.2964
18799TIP3    H277889   3.816   4.953   5.574  1.8828  1.8597  0.7901
18800TIP3   OH277890   5.193   5.219  16.074 -0.0965  0.0335 -0.4762
18800TIP3    H177891   5.153   5.141  16.113 -0.9301  0.4476 -0.4789
18800TIP3    H277892   5.212   5.276  16.148 -1.2066  0.6028 -0.6093
18801TIP3   OH277893   2.122   6.656   4.945  0.1504 -0.1672 -0.3445
18801TIP3    H177894   2.192   6.720   4.932 -0.3333  0.6443  0.8875
18801TIP3    H277895   2.078   6.685   5.025 -0.1183 -2.0120  0.2096
18802TIP3   OH277896   2.111   5.126   1.237 -0.4469  0.1281  0.0801
18802TIP3    H177897   2.183   5.086   1.286 -1.7767  0.6821  2.6483
18802TIP3    H277898   2.077   5.194   1.295 -1.6324  1.4153 -1.9908
18803TIP3   OH277899   5.398   4.674  12.834 -0.0439  0.7745  0.2280
18803TIP3    H177900   5.493   4.688  12.840  0.0241  0.4905 -0.1581
18803TIP3    H277901   5.360   4.745  12.885  0.3783  0.9266  0.3316
18804TIP3   OH277902   6.627   2.813   5.217  0.1945  0.1451 -0.0623
18804TIP3    H177903   6.651   2.759   5.293 -0.6511 -1.3798 -0.8264
18804TIP3    H277904   6.566   2.878   5.252  0.4936  0.0092  0.7223
18805TIP3   OH277905   4.864   6.393   1.242 -0.4064 -0.0846 -0.2172
18805TIP3    H177906   4.931   6.431   1.185 -1.7741  2.0601 -0.4742
18805TIP3    H277907   4.855   6.303   1.210  0.6339  0.3016 -1.7354
18806TIP3   OH277908   5.818   1.200  12.461  0.7753 -0.0409 -0.1939
18806TIP3    H177909   5.882   1.133  12.439  0.0737 -0.4682 -0.9396
18806TIP3    H277910   5.810   1.254  12.383  0.2276  0.0141 -0.1090
18807TIP3   OH277911   3.574   5.901   5.141  0.0059  0.3147  0.1227
18807TIP3    H177912   3.602   5.990   5.161  1.9560 -0.1178 -0.4752
18807TIP3    H277913   3.479   5.907   5.133  0.0424  2.2229  0.6153
18808TIP3   OH277914   4.761   5.397   4.674  0.2086 -0.3937 -0.2664
18808TIP3    H177915   4.787   5.382   4.764  1.5116  3.5881  0.1785
18808TIP3    H277916   4.672   5.433   4.680 -0.2469 -1.3871 -0.7406
18809TIP3   OH277917   3.311   3.312  13.314  0.4338 -0.0084  0.4011
18809TIP3    H177918   3.303   3.403  13.286 -1.7464 -0.2700 -0.0059
18809TIP3    H277919   3.320   3.317  13.409 -1.1208  0.6322  0.5520
18810TIP3   OH277920   2.839   0.329  14.816  0.6551 -0.1080  0.2920
18810TIP3    H177921   2.776   0.359  14.881  1.5767 -2.4505  2.4325
18810TIP3    H277922   2.797   0.254  14.773  0.6396  0.5076 -0.8097
18811TIP3   OH277923   3.085   1.993  11.327  0.1654  0.5657  0.3852
18811TIP3    H177924   3.092   2.088  11.328 -1.1278  0.6733  0.6231
18811TIP3    H277925   3.010   1.975  11.270  0.9145 -0.3610 -0.3545
18812TIP3   OH277926   4.513   6.056  15.868  0.6121 -0.1427  0.3741
18812TIP3    H177927   4.586   6.031  15.811 -0.0291 -0.3797 -0.3546
18812TIP3    H277928   4.475   5.972  15.895  0.2453 -0.0054  0.2765
18813TIP3   OH277929   5.134   0.640   3.960 -0.5393  0.3341 -0.2245
18813TIP3    H177930   5.183   0.614   4.038 -2.7523 -1.5985  0.6637
18813TIP3    H277931   5.100   0.727   3.980 -1.1824 -0.1883  1.0874
18814TIP3   OH277932   0.601   6.096   3.656 -0.1712 -0.5116  0.7422
18814TIP3    H177933   0.622   6.004   3.667 -0.3259 -0.5816  0.4649
18814TIP3    H277934   0.598   6.131   3.745  0.4863 -0.6381  0.8173
18815TIP3   OH277935   1.291   5.387   4.612  0.0939  0.6335  0.0592
18815TIP3    H177936   1.200   5.398   4.584  0.0590  1.4534  0.4560
18815TIP3    H277937   1.285   5.373   4.706  0.1774 -2.6229 -0.3166
18816TIP3   OH277938   1.588   4.434   1.953 -0.2596  0.2995 -0.2335
18816TIP3    H177939   1.670   4.452   1.999  0.0712 -2.2132  0.2901
18816TIP3    H277940   1.520   4.474   2.007  0.5090  1.8855 -0.3600
18817TIP3   OH277941   4.564   2.789   3.495  0.2278  0.1953  0.7261
18817TIP3    H177942   4.477   2.782   3.534 -0.4860  1.1985 -0.6146
18817TIP3    H277943   4.564   2.724   3.424  0.2190  0.8405  0.1244
18818TIP3   OH277944   2.257   6.108  16.718  0.6988  0.0773  0.6504
18818TIP3    H177945   2.294   6.019  16.712 -0.7101 -0.4230 -2.6471
18818TIP3    H277946   2.165   6.094  16.742  0.1408  0.4600 -1.0995
18819TIP3   OH277947   1.510   0.173   4.733 -0.0340  0.5292  0.3016
18819TIP3    H177948   1.473   0.177   4.645 -1.1728  1.0632  0.7970
18819TIP3    H277949   1.519   0.265   4.760  1.6941  0.4325  0.1969
18820TIP3   OH277950   3.242   3.261   7.046 -0.2440 -0.1687 -0.3287
18820TIP3    H177951   3.260   3.170   7.068  0.6213  0.1402  0.3032
18820TIP3    H277952   3.305   3.282   6.977  0.9848  0.5369  0.9722
18821TIP3   OH277953   2.766   5.166   4.870 -0.2746 -0.2252 -0.2388
18821TIP3    H177954   2.753   5.123   4.955 -2.0773  0.8623  0.0965
18821TIP3    H277955   2.860   5.164   4.856  0.0267 -0.7475  1.6216
18822TIP3   OH277956   3.354   2.780  14.110  0.7139 -0.5709  0.2964
18822TIP3    H177957   3.380   2.824  14.028  0.2917 -1.6445 -0.4348
18822TIP3    H277958   3.348   2.687  14.086 -3.4903 -0.5095  0.4561
18823TIP3   OH277959   6.767   5.704   3.242 -0.0982 -0.0867  0.5549
18823TIP3    H177960   6.747   5.740   3.328  2.8658  1.6300  0.6445
18823TIP3    H277961   6.729   5.767   3.180  0.6000  0.4662  0.6745
18824TIP3   OH277962   0.041   5.532   1.923  0.2187 -0.4793  0.3489
18824TIP3    H177963   0.098   5.457   1.904 -0.3139 -0.7654 -0.1603
18824TIP3    H277964   0.091   5.608   1.893  1.0715 -0.5434  1.5425
18825TIP3   OH277965   4.880   4.318  16.443  0.0196 -0.1298  0.1695
18825TIP3    H177966   4.826   4.248  16.406  1.9683 -1.6311 -0.0160
18825TIP3    H277967   4.850   4.326  16.534 -1.9043  0.6010 -0.4751
18826TIP3   OH277968   3.569   1.480  16.448  0.2392  0.1555  0.1952
18826TIP3    H177969   3.556   1.515  16.537  0.4341 -0.1319  0.3383
18826TIP3    H277970   3.663   1.489  16.433  0.4161 -1.0201  0.5355
18827TIP3   OH277971   2.422   3.032  12.141  0.4972  0.0657 -0.4626
18827TIP3    H177972   2.353   2.966  12.142  0.9023 -0.3646  0.5420
18827TIP3    H277973   2.385   3.105  12.092 -0.4517 -0.3842 -0.4381
18828TIP3   OH277974   6.594   2.954   6.172 -0.1246 -0.1035 -0.4671
18828TIP3    H177975   6.569   3.045   6.187  0.9504 -0.0034  0.9349
18828TIP3    H277976   6.547   2.905   6.239 -0.3153 -0.5234 -0.9025
18829TIP3   OH277977   5.833   1.088   3.201  0.3653  0.0683 -0.2255
18829TIP3    H177978   5.908   1.059   3.253 -0.5757 -1.8689  0.1573
18829TIP3    H277979   5.814   1.013   3.144 -0.4026  1.0716 -1.3170
18830TIP3   OH277980   0.451   1.895   4.281 -0.0215  0.6282 -0.2629
18830TIP3    H177981   0.410   1.921   4.198 -0.7399  1.2991  0.2859
18830TIP3    H277982   0.445   1.800   4.282  1.1217  0.5090 -1.5404
18831TIP3   OH277983   4.555   0.302   3.299  0.1492  0.0803 -0.2953
18831TIP3    H177984   4.558   0.396   3.316 -0.4999 -0.1840  1.5470
18831TIP3    H277985   4.604   0.263   3.372 -1.0750 -1.0799 -0.0522
18832TIP3   OH277986   6.188   0.569   0.110 -0.3318 -0.0014 -0.0142
18832TIP3    H177987   6.117   0.556   0.172  1.2653 -0.1644  1.9151
18832TIP3    H277988   6.247   0.630   0.154  1.4975 -1.0948 -0.7907
18833TIP3   OH277989   6.192   6.132  12.262 -0.0074  0.3237 -0.3625
18833TIP3    H177990   6.164   6.041  12.262  2.0070 -0.3934  1.9063
18833TIP3    H277991   6.139   6.173  12.193 -2.6962 -1.9721  0.1503
18834TIP3   OH277992   5.221   6.072   0.900  0.3494  0.3974  0.0708
18834TIP3    H177993   5.263   5.992   0.869 -0.4140 -0.3940  1.0085
18834TIP3    H277994   5.179   6.109   0.822  1.0033  0.0748 -0.4377
18835TIP3   OH277995   0.717   1.344  10.875  0.4282 -0.1518  0.1770
18835TIP3    H177996   0.681   1.256  10.869 -1.9540  0.8592 -1.8514
18835TIP3    H277997   0.802   1.338  10.832  0.8341 -1.6776  1.1184
18836TIP3   OH277998   6.573   3.458  13.722 -0.6630  0.3905  0.2812
18836TIP3    H177999   6.608   3.409  13.648 -0.3095  1.2561 -0.1390
18836TIP3    H278000   6.502   3.511  13.685 -0.1417  1.2275  0.4404
18837TIP3   OH278001   2.090   4.328   5.200  0.0338  0.5203  0.5277
18837TIP3    H178002   2.137   4.394   5.252 -1.4033  1.2830  0.8912
18837TIP3    H278003   1.998   4.340   5.222 -0.7370  1.2680 -2.6296
18838TIP3   OH278004   0.255   4.707  14.240  0.0998 -0.2594  0.0493
18838TIP3    H178005   0.171   4.672  14.209  0.9635 -1.4961 -0.9729
18838TIP3    H278006   0.232   4.756  14.320 -1.5493 -0.7978 -0.0512
18839TIP3   OH278007   3.720   5.096  13.436 -0.3075  0.5630  0.1067
18839TIP3    H178008   3.766   5.102  13.353 -0.3254 -1.4842 -0.0910
18839TIP3    H278009   3.639   5.145  13.422 -0.1805  0.4825 -0.9746
18840TIP3   OH278010   2.564   6.176   1.106  0.3105 -0.4359  0.0605
18840TIP3    H178011   2.631   6.238   1.137 -1.0441  1.3883 -0.5004
18840TIP3    H278012   2.536   6.130   1.185  0.1282  0.9099  0.8089
18841TIP3   OH278013   2.798   2.798   3.831 -0.1873  0.1533  0.1621
18841TIP3    H178014   2.727   2.806   3.767  1.5887 -0.6704 -2.0393
18841TIP3    H278015   2.834   2.710   3.816  0.9755  0.3509  1.5806
18842TIP3   OH278016   5.944   6.710   0.623  0.3878 -0.0974  0.4199
18842TIP3    H178017   5.870   6.770   0.629 -0.5451 -1.2801  1.3275
18842TIP3    H278018   6.018   6.760   0.655 -0.2075  0.8174  0.3996
18843TIP3   OH278019   2.471   0.222   4.919 -0.3320  0.4280  0.0888
18843TIP3    H178020   2.382   0.215   4.953 -0.3428 -1.5838 -0.2252
18843TIP3    H278021   2.494   0.132   4.893  0.5227  1.4073 -3.0157
18844TIP3   OH278022   4.606   2.721   4.241 -0.2773  0.4289 -0.7906
18844TIP3    H178023   4.548   2.657   4.202  1.2396 -1.1255 -0.6205
18844TIP3    H278024   4.692   2.704   4.202  0.4976  1.3298  0.4000
18845TIP3   OH278025   1.231   4.947   3.543 -0.1204  0.6299  0.1011
18845TIP3    H178026   1.192   4.900   3.469  0.1708  3.3642 -1.9501
18845TIP3    H278027   1.325   4.929   3.535 -0.0147  1.4393 -0.6457
18846TIP3   OH278028   2.667   2.148  16.561  0.0785  0.3411 -0.4463
18846TIP3    H178029   2.595   2.084  16.564 -0.5555  1.0417 -0.3003
18846TIP3    H278030   2.746   2.095  16.562 -0.4151 -0.4133  0.6214
18847TIP3   OH278031   4.121   6.653   4.059 -0.1082 -0.6198  0.2221
18847TIP3    H178032   4.115   6.578   4.119 -1.2673 -0.2753  0.5661
18847TIP3    H278033   4.114   6.730   4.116  1.4680 -0.2268 -0.0872
18848TIP3   OH278034   5.605   0.331  16.687  0.3110 -0.0637  0.6586
18848TIP3    H178035   5.607   0.236  16.702  1.6560 -0.4162 -1.3121
18848TIP3    H278036   5.679   0.365  16.738 -1.2559  0.2800  2.8786
18849TIP3   OH278037   1.528   1.150   4.237 -0.4661 -0.0899 -0.2800
18849TIP3    H178038   1.548   1.059   4.259  1.4429  0.4373  0.3438
18849TIP3    H278039   1.466   1.144   4.164  1.5830 -1.9052 -1.9876
18850TIP3   OH278040   0.995   0.320  15.020 -0.1563  0.1481  0.2349
18850TIP3    H178041   1.071   0.351  14.970  0.0315  0.3599  0.6488
18850TIP3    H278042   0.957   0.399  15.058 -0.6265  0.0520 -0.0176
18851TIP3   OH278043   2.302   3.321  13.149 -0.1671  0.6308 -0.4198
18851TIP3    H178044   2.342   3.380  13.213  1.3885  0.2317 -0.9941
18851TIP3    H278045   2.333   3.234  13.174  0.3796  0.4644 -1.6444
18852TIP3   OH278046   1.257   1.032  10.943  0.3597 -0.5236 -0.0822
18852TIP3    H178047   1.202   0.956  10.925  0.1358 -0.3067 -0.3248
18852TIP3    H278048   1.255   1.041  11.038  0.8347 -1.1494 -0.0061
18853TIP3   OH278049   0.963   3.240   1.385  0.1675 -0.5127  0.2201
18853TIP3    H178050   0.948   3.333   1.369 -0.2003 -0.6105 -0.0135
18853TIP3    H278051   0.902   3.195   1.326 -0.6183 -0.8881  1.2908
18854TIP3   OH278052   4.069   6.610   0.695  0.1710 -0.0841  0.0331
18854TIP3    H178053   4.154   6.581   0.661 -0.6698 -0.4332 -1.9229
18854TIP3    H278054   4.013   6.616   0.618 -2.0423 -1.4196  1.3976
18855TIP3   OH278055   5.503   1.247  13.130  0.4891 -0.2859  0.0479
18855TIP3    H178056   5.477   1.208  13.213  1.5000  0.3995  0.6968
18855TIP3    H278057   5.568   1.187  13.094 -1.3598 -1.6348 -1.2467
18856TIP3   OH278058   5.248   0.925  14.023 -0.0825 -0.8304 -0.1841
18856TIP3    H178059   5.195   0.872  13.963 -0.6736  0.4587 -0.8407
18856TIP3    H278060   5.211   1.013  14.017  0.2554 -0.5289  1.6249
18857TIP3   OH278061   3.295   3.511   2.308 -0.3076  0.8053  0.1302
18857TIP3    H178062   3.278   3.472   2.394 -2.0514  2.4474  0.6020
18857TIP3    H278063   3.387   3.535   2.310 -0.3796  1.0590  1.6815
18858TIP3   OH278064   5.930   0.882   1.800 -0.7111  0.1539 -0.2367
18858TIP3    H178065   5.900   0.935   1.875  0.8558 -0.1770  0.6659
18858TIP3    H278066   5.933   0.943   1.727  0.4457  1.1849  0.6386
18859TIP3   OH278067   4.896   5.891   4.707  0.0168  0.4431 -0.1610
18859TIP3    H178068   4.943   5.962   4.664  0.1360  0.5632  0.1618
18859TIP3    H278069   4.917   5.813   4.655  1.1753  0.3624  0.3974
18860TIP3   OH278070   2.426   2.485   4.025 -0.3783  0.1776  0.0400
18860TIP3    H178071   2.493   2.427   4.062  0.0116  0.2152 -0.6004
18860TIP3    H278072   2.369   2.506   4.100 -0.7880 -1.3800  0.2015
18861TIP3   OH278073   1.846   0.347   1.157 -0.3391  0.5848  0.4585
18861TIP3    H178074   1.843   0.339   1.062 -0.6283 -0.2061  0.5238
18861TIP3    H278075   1.813   0.435   1.175 -0.1125  0.8068 -0.1785
18862TIP3   OH278076   1.016   5.171  16.734 -0.2687  0.3364 -0.8418
18862TIP3    H178077   1.015   5.106  16.664  1.4248  1.3574 -1.9036
18862TIP3    H278078   0.987   5.124  16.812  0.7409 -1.6603 -1.5960
18863TIP3   OH278079   5.597   5.620   2.501 -0.5552 -0.4993 -0.8057
18863TIP3    H178080   5.562   5.546   2.450  2.1139 -1.2517 -1.7170
18863TIP3    H278081   5.669   5.653   2.448  0.6383  0.4276  1.2691
18864TIP3   OH278082   2.618   2.088  11.830  0.1083  0.1251 -0.5954
18864TIP3    H178083   2.564   2.019  11.871  0.4089  1.3010  2.0141
18864TIP3    H278084   2.672   2.041  11.767 -0.7973 -1.7984 -0.0433
18865TIP3   OH278085   2.828   1.860  11.906 -0.4710  0.1930  0.5062
18865TIP3    H178086   2.823   1.881  12.000  0.8523  2.8770  0.0810
18865TIP3    H278087   2.904   1.908  11.875 -1.0574 -0.3805 -2.0391
18866TIP3   OH278088   2.026   2.018  14.038 -0.3473 -0.5789 -0.0772
18866TIP3    H178089   2.050   1.946  13.981  3.6987 -0.7422  1.5132
18866TIP3    H278090   2.109   2.060  14.060 -2.3063  3.4892  0.5736
18867TIP3   OH278091   3.111   4.247  12.968  0.5426  0.1053  0.3650
18867TIP3    H178092   3.052   4.218  13.038  0.1958  0.3148  0.1650
18867TIP3    H278093   3.083   4.337  12.948  1.3330  0.4312  0.6917
18868TIP3   OH278094   1.878   2.983  14.736 -0.4013 -0.0975  0.5058
18868TIP3    H178095   1.802   2.928  14.719 -0.4636  0.2121 -0.2549
18868TIP3    H278096   1.843   3.057  14.786 -0.5470 -0.0971  0.4029
18869TIP3   OH278097   0.937   3.392   1.775 -0.5311  1.2318  0.3761
18869TIP3    H178098   0.957   3.328   1.844 -0.4281  0.4070 -0.3997
18869TIP3    H278099   0.962   3.476   1.812  0.1678  0.7197  1.0961
18870TIP3   OH278100   2.339   3.035   3.688  0.3923 -0.7190 -0.0815
18870TIP3    H178101   2.321   2.976   3.761 -0.6220 -0.3675 -0.0387
18870TIP3    H278102   2.404   2.988   3.635 -0.8918 -2.1692 -0.4259
18871TIP3   OH278103   3.091   5.450   3.851  0.2222 -0.6462 -0.1160
18871TIP3    H178104   3.149   5.526   3.848  0.4769 -0.8698 -1.7656
18871TIP3    H278105   3.009   5.485   3.888 -0.1400  0.8005 -2.1196
18872TIP3   OH278106   0.224   5.903   4.411  0.5816  0.2225 -0.4448
18872TIP3    H178107   0.153   5.840   4.396 -0.0671  0.5643  1.0168
18872TIP3    H278108   0.212   5.969   4.343 -2.2555  1.7473  1.3532
18873TIP3   OH278109   4.548   3.166   4.945 -0.3130  0.4631  0.0331
18873TIP3    H178110   4.479   3.116   4.989 -0.1389  2.0859  2.3402
18873TIP3    H278111   4.629   3.138   4.988 -0.1293  2.0863  0.7872
18874TIP3   OH278112   1.900   4.537   0.843  0.1850 -0.4006 -0.1608
18874TIP3    H178113   1.991   4.545   0.816 -0.2214  1.9826 -0.9775
18874TIP3    H278114   1.903   4.475   0.917  2.7751  1.2854  1.2861
18875TIP3   OH278115   5.265   1.229  16.660  0.0562 -0.1315 -0.0189
18875TIP3    H178116   5.356   1.223  16.688  0.5077  0.3103 -1.3031
18875TIP3    H278117   5.244   1.323  16.666 -0.0631 -0.1287 -0.4529
18876TIP3   OH278118   2.481   3.713   1.539  0.8794  0.5102  0.6882
18876TIP3    H178119   2.529   3.747   1.615 -1.0448  0.9465  1.7761
18876TIP3    H278120   2.548   3.700   1.472  2.4603  1.3112  2.0437
18877TIP3   OH278121   1.192   4.066  14.753  0.0648  0.3741  0.1177
18877TIP3    H178122   1.203   4.144  14.699  0.8238  1.3197  1.5899
18877TIP3    H278123   1.133   4.010  14.702  2.1549  0.3895 -2.5560
18878TIP3   OH278124   2.399   3.552   4.850  0.5261 -0.1996 -0.3916
18878TIP3    H178125   2.315   3.561   4.807 -0.9155  1.4826  2.4835
18878TIP3    H278126   2.397   3.464   4.888  0.1573 -0.2357 -0.4926
18879TIP3   OH278127   4.781   0.829   6.085  0.1295  0.0876 -0.1846
18879TIP3    H178128   4.709   0.874   6.130 -1.4888 -1.8086 -0.7200
18879TIP3    H278129   4.793   0.748   6.134  1.3907  0.0095 -0.5823
18880TIP3   OH278130   6.267   4.131   1.196 -1.0302 -0.5705 -0.2389
18880TIP3    H178131   6.194   4.071   1.210 -0.8864 -0.4688  1.0212
18880TIP3    H278132   6.284   4.170   1.282  0.3257 -0.3786 -0.5636
18881TIP3   OH278133   3.285   2.305   0.594  0.2558 -0.1422 -0.0312
18881TIP3    H178134   3.230   2.377   0.626 -0.8282 -1.2100  0.5912
18881TIP3    H278135   3.371   2.321   0.634  0.3261  1.3129 -0.6738
18882TIP3   OH278136   2.414   0.571  14.922 -0.1194  0.4691 -0.1263
18882TIP3    H178137   2.392   0.569  15.016 -3.2647 -0.3533 -0.7461
18882TIP3    H278138   2.485   0.635  14.915  0.9326 -0.1841  2.9086
18883TIP3   OH278139   4.215   4.254  16.001 -0.5237  0.4336  0.4455
18883TIP3    H178140   4.253   4.288  16.082  0.2260  2.7196 -0.7982
18883TIP3    H278141   4.290   4.225  15.949 -0.8229  0.9038 -0.2588
18884TIP3   OH278142   2.203   2.545  11.652 -0.7018  0.0017 -0.5765
18884TIP3    H178143   2.148   2.481  11.607 -0.5882  0.8147 -1.9322
18884TIP3    H278144   2.179   2.538  11.744 -1.2943 -1.3831 -0.8164
18885TIP3   OH278145   2.411   1.211  12.503  0.0392 -0.1156 -0.3845
18885TIP3    H178146   2.365   1.130  12.524 -1.9912  0.7867 -1.0646
18885TIP3    H278147   2.356   1.254  12.438  1.6119  1.3219 -0.8632
18886TIP3   OH278148   2.326   1.272  17.331  0.3228 -0.4032  0.2197
18886TIP3    H178149   2.295   1.249  17.243  0.0311 -0.1102  0.2449
18886TIP3    H278150   2.282   1.212  17.390  0.2843 -0.3970  0.1967
18887TIP3   OH278151   0.751   5.129   0.220  0.2110  0.1874  0.2111
18887TIP3    H178152   0.678   5.155   0.163  0.4887 -0.4165 -0.4400
18887TIP3    H278153   0.741   5.183   0.298 -1.3735 -0.4131  0.4555
18888TIP3   OH278154   6.103   4.492   5.510  0.9280  0.5694  0.0556
18888TIP3    H178155   6.064   4.413   5.474 -0.4496  1.7948 -1.2850
18888TIP3    H278156   6.064   4.501   5.597  2.0561 -0.8438  0.7533
18889TIP3   OH278157   4.668   4.041  12.119  0.4466  0.7039  0.3470
18889TIP3    H178158   4.681   4.017  12.028  0.2922  0.1592  0.4638
18889TIP3    H278159   4.688   4.135  12.123  2.2385  0.3787  0.0974
18890TIP3   OH278160   5.362   3.669  16.282  0.1311 -0.0355  0.1019
18890TIP3    H178161   5.430   3.707  16.227 -0.6365 -2.0331 -2.4603
18890TIP3    H278162   5.402   3.590  16.318  0.5888  1.1930  2.4837
18891TIP3   OH278163   2.104   2.248   2.810  0.6283  0.2092 -0.1563
18891TIP3    H178164   2.094   2.155   2.791  0.6188 -0.0852  1.1590
18891TIP3    H278165   2.046   2.291   2.747  1.3627 -0.5890 -1.4215
18892TIP3   OH278166   4.359   4.196   3.684 -0.4322 -0.3217  0.1652
18892TIP3    H178167   4.346   4.279   3.731  1.6532 -0.0533  0.3797
18892TIP3    H278168   4.390   4.223   3.598 -3.0295 -0.8529 -1.0411
18893TIP3   OH278169   0.257   0.572  16.065 -0.3282  0.2385  0.2561
18893TIP3    H178170   0.284   0.519  16.140 -1.0979 -0.1018  0.3055
18893TIP3    H278171   0.337   0.586  16.015  0.2964  0.8943  1.3953
18894TIP3   OH278172   3.517   0.929  15.441 -0.0941  0.5681 -0.0875
18894TIP3    H178173   3.517   0.936  15.537  1.4507  1.2269 -0.0989
18894TIP3    H278174   3.546   0.839  15.424 -1.5050  0.0646  0.0405
18895TIP3   OH278175   0.429   3.700  13.068 -0.1864  0.6491  0.2773
18895TIP3    H178176   0.496   3.760  13.035 -0.0908 -0.3927 -1.5729
18895TIP3    H278177   0.348   3.751  13.066 -0.0311  0.8827 -0.8255
18896TIP3   OH278178   0.203   4.705  11.775  0.0652 -0.7019 -0.1490
18896TIP3    H178179   0.172   4.615  11.785 -0.5347 -0.9070 -3.0562
18896TIP3    H278180   0.271   4.700  11.708  0.1145  0.9734 -0.2731
18897TIP3   OH278181   5.422   4.051   1.939  0.4637  0.4948 -0.4078
18897TIP3    H178182   5.516   4.071   1.948  0.6098  0.1007 -0.9954
18897TIP3    H278183   5.418   3.985   1.869 -0.1520 -0.3801  0.4317
18898TIP3   OH278184   4.237   6.513  11.242 -0.0088  0.3708  0.5296
18898TIP3    H178185   4.256   6.424  11.212  0.6959  0.3821  0.9038
18898TIP3    H278186   4.317   6.540  11.287 -0.4314  0.9729  0.9387
18899TIP3   OH278187   3.935   5.862  12.770  0.2379 -0.0378 -0.1685
18899TIP3    H178188   3.909   5.950  12.797 -1.5700 -1.1507  2.1339
18899TIP3    H278189   3.861   5.829  12.720  0.3786 -0.6647  0.0216
18900TIP3   OH278190   4.073   1.857   0.617 -0.7885 -0.2656 -0.4094
18900TIP3    H178191   4.125   1.791   0.571  0.6873  0.6717 -0.1557
18900TIP3    H278192   4.134   1.895   0.680 -1.6580  1.2125 -0.4283
18901TIP3   OH278193   0.989   6.274  11.340  0.1815 -0.5559  0.0535
18901TIP3    H178194   0.949   6.297  11.256  0.2857  1.3362  0.4848
18901TIP3    H278195   1.022   6.185  11.327  0.3303 -0.2572 -1.9661
18902TIP3   OH278196   6.213   3.435  12.975  0.3768 -0.6312 -0.0148
18902TIP3    H178197   6.169   3.473  12.899  0.7256  0.1199  0.1507
18902TIP3    H278198   6.271   3.504  13.007  0.5964 -1.1032  0.6447
18903TIP3   OH278199   4.596   1.535  12.288  0.4930 -0.1714  0.5764
18903TIP3    H178200   4.598   1.447  12.251  1.5064 -1.0329  2.5246
18903TIP3    H278201   4.688   1.563  12.288  0.4015  0.1892  1.4494
18904TIP3   OH278202   0.175   2.380   2.389 -0.3992 -0.6174  0.1350
18904TIP3    H178203   0.202   2.421   2.307 -0.5843 -2.4907 -0.9331
18904TIP3    H278204   0.098   2.429   2.417  0.8813  1.3946  0.3721
18905TIP3   OH278205   3.125   4.564   2.659  0.1141 -0.3779 -0.3103
18905TIP3    H178206   3.198   4.626   2.653  0.2273 -0.6258 -2.0295
18905TIP3    H278207   3.076   4.577   2.578 -0.2614 -2.0378 -0.3843
18906TIP3   OH278208   0.225   2.149  15.783 -0.5127  0.2046  0.3117
18906TIP3    H178209   0.225   2.203  15.704 -1.1685  1.2943  1.0310
18906TIP3    H278210   0.178   2.069  15.757 -2.8360  1.5111  0.1892
18907TIP3   OH278211   2.601   0.094   1.758  0.1113  0.3900  0.5223
18907TIP3    H178212   2.526   0.148   1.733  0.1403 -0.2540 -1.0647
18907TIP3    H278213   2.669   0.118   1.696  1.1004  0.6266  1.6589
18908TIP3   OH278214   2.758   5.090   3.143 -0.2113  0.1683 -0.0976
18908TIP3    H178215   2.768   5.098   3.048 -1.9121  0.1675 -0.3188
18908TIP3    H278216   2.668   5.118   3.160 -0.8539 -2.3451  1.1746
18909TIP3   OH278217   1.524   6.102  11.422 -0.3886 -0.0549 -0.1308
18909TIP3    H178218   1.618   6.086  11.425 -0.5964 -1.7985 -1.2358
18909TIP3    H278219   1.500   6.090  11.330 -1.6850  0.3772  0.1217
18910TIP3   OH278220   5.560   6.226   2.984 -0.4007 -0.2681  0.4684
18910TIP3    H178221   5.647   6.230   3.025 -1.1330 -1.1466  2.2448
18910TIP3    H278222   5.569   6.159   2.917  0.7563  0.9725 -0.6757
18911TIP3   OH278223   6.035   1.991   5.769  0.4456  0.6651  0.6238
18911TIP3    H178224   6.119   1.953   5.739  0.3660  0.7533  0.2800
18911TIP3    H278225   6.059   2.050   5.840  0.5634 -0.1036  1.2405
18912TIP3   OH278226   3.326   1.941  13.597 -0.1208 -0.1462  0.5607
18912TIP3    H178227   3.291   1.982  13.518 -0.2904 -0.3097  0.5482
18912TIP3    H278228   3.410   1.906  13.570 -1.3036 -2.5591 -0.3175
18913TIP3   OH278229   2.653   2.569  16.189 -0.4839 -0.2967 -0.1272
18913TIP3    H178230   2.748   2.559  16.183 -0.3536 -1.6629  2.5537
18913TIP3    H278231   2.634   2.649  16.141  2.3722  1.4130  1.3234
18914TIP3   OH278232   0.547   0.578   5.252  0.5398  0.0670 -0.0089
18914TIP3    H178233   0.634   0.593   5.215  0.8490  0.9515  1.0295
18914TIP3    H278234   0.499   0.534   5.182  1.0569  1.7824 -1.5215
18915TIP3   OH278235   1.971   2.924   4.960 -0.1843 -0.9215 -0.9435
18915TIP3    H178236   1.925   2.986   5.017 -0.4146 -0.8180 -1.2391
18915TIP3    H278237   1.905   2.896   4.897 -0.2025 -1.8218 -0.5351
18916TIP3   OH278238   0.309   5.967  13.907 -0.2482  0.1508  0.1150
18916TIP3    H178239   0.399   5.940  13.891 -1.4677 -3.0312 -2.6497
18916TIP3    H278240   0.315   6.061  13.925  3.5310  0.1590 -0.3458
18917TIP3   OH278241   1.420   5.231   6.599 -1.0185  0.2467 -0.2178
18917TIP3    H178242   1.447   5.289   6.527 -1.8667 -1.5165 -2.0404
18917TIP3    H278243   1.502   5.193   6.631 -0.6094  1.2041 -0.0739
18918TIP3   OH278244   0.334   2.449  13.318 -0.5009  0.9970 -0.2412
18918TIP3    H178245   0.306   2.359  13.338 -2.1516  1.2970 -1.0669
18918TIP3    H278246   0.413   2.461  13.371  0.1044 -1.1386 -0.5661
18919TIP3   OH278247   3.526   6.485   2.932 -0.4186 -0.0771  0.6370
18919TIP3    H178248   3.460   6.473   2.864 -0.2637 -0.5607  0.5689
18919TIP3    H278249   3.494   6.559   2.984 -0.2064  0.7296 -0.3517
18920TIP3   OH278250   6.554   0.957  14.876 -0.5874 -0.1684 -0.1837
18920TIP3    H178251   6.514   0.947  14.790 -0.9494 -1.8419  0.1448
18920TIP3    H278252   6.513   0.889  14.930  0.7349 -0.1654  0.8901
18921TIP3   OH278253   2.796   6.624   1.130 -0.1631  0.2863  0.1667
18921TIP3    H178254   2.702   6.631   1.143 -0.4007  0.1430 -1.2618
18921TIP3    H278255   2.818   6.701   1.077  0.3633 -0.1596 -0.2676
18922TIP3   OH278256   5.724   0.948  13.625  0.3757 -0.3080  0.0968
18922TIP3    H178257   5.809   0.912  13.650 -0.1185 -0.9176  0.9509
18922TIP3    H278258   5.683   0.974  13.708  0.8717  2.6680 -0.4860
18923TIP3   OH278259   2.246   1.763  12.429 -0.3397 -0.0244 -0.1671
18923TIP3    H178260   2.159   1.799  12.446 -0.5778  0.2058 -1.7079
18923TIP3    H278261   2.231   1.694  12.364  0.6172 -0.0157 -0.4202
18924TIP3   OH278262   2.900   4.388   5.043 -0.2043  0.0679 -1.0609
18924TIP3    H178263   2.883   4.294   5.046 -0.3412  0.1211  0.9720
18924TIP3    H278264   2.890   4.417   5.133  1.0177  1.8390 -1.4548
18925TIP3   OH278265   2.314   6.244   3.064  0.4307  0.3139 -0.6168
18925TIP3    H178266   2.291   6.311   3.000  1.3879  0.8836 -0.3939
18925TIP3    H278267   2.330   6.166   3.012  1.0948  0.7434 -1.0796
18926TIP3   OH278268   3.569   4.400  17.342 -0.1951  0.1133  0.1724
18926TIP3    H178269   3.610   4.331  17.289  2.5524  0.9697  1.0080
18926TIP3    H278270   3.580   4.370  17.433  2.0630  2.0130  0.6319
18927TIP3   OH278271   3.079   6.476  12.692  0.8769 -0.7873  0.3128
18927TIP3    H178272   3.052   6.404  12.635  2.0042 -1.2260  0.3009
18927TIP3    H278273   2.997   6.515  12.722  0.2555 -1.4703 -0.4401
18928TIP3   OH278274   4.298   5.284  13.032  0.4316  0.2451 -0.5532
18928TIP3    H178275   4.214   5.262  12.993  0.6429 -1.1391 -0.2955
18928TIP3    H278276   4.281   5.363  13.083 -0.9089 -0.4465  0.1254
18929TIP3   OH278277   4.435   0.205  11.880  0.6870 -0.7479 -0.4120
18929TIP3    H178278   4.520   0.215  11.922  1.3544  0.5985 -1.9534
18929TIP3    H278279   4.455   0.199  11.786 -0.9534  0.9509 -0.9373
18930TIP3   OH278280   4.336   4.191   0.427  0.0069 -0.0656 -0.0104
18930TIP3    H178281   4.370   4.102   0.419 -2.3671 -1.3015  1.9822
18930TIP3    H278282   4.241   4.181   0.421 -0.2964  2.5052 -0.6652
18931TIP3   OH278283   1.788   3.836   3.640  0.2630  0.0887  0.2545
18931TIP3    H178284   1.698   3.851   3.670 -0.6012 -0.4690 -1.8787
18931TIP3    H278285   1.791   3.877   3.554  1.7958 -0.7077 -0.0956
18932TIP3   OH278286   5.566   6.219  11.993 -0.6300  0.0073 -0.5507
18932TIP3    H178287   5.617   6.141  11.969  0.7279  0.7587 -0.2163
18932TIP3    H278288   5.488   6.215  11.938  0.0260 -0.9252 -1.4518
18933TIP3   OH278289   5.871   2.214   0.662 -0.4831 -0.2260 -0.6216
18933TIP3    H178290   5.787   2.253   0.688 -0.5056 -1.3475  1.1336
18933TIP3    H278291   5.896   2.159   0.736  2.0482  0.4062 -0.9188
18934TIP3   OH278292   3.071   1.980   1.666 -0.1340  0.1010 -0.3409
18934TIP3    H178293   2.980   1.972   1.639 -0.3878  0.6954  0.3265
18934TIP3    H278294   3.082   2.073   1.686  0.1553 -0.2443  1.2057
18935TIP3   OH278295   5.461   4.626   5.785  0.1963  0.0958 -0.0228
18935TIP3    H178296   5.440   4.718   5.800 -0.1940 -0.1087  0.7389
18935TIP3    H278297   5.385   4.578   5.817  1.4650 -0.6208  2.1148
18936TIP3   OH278298   5.100   1.964  15.898  0.3964 -0.2236 -0.1054
18936TIP3    H178299   5.052   1.993  15.975  1.8250 -2.0779  1.5943
18936TIP3    H278300   5.071   1.874  15.884  2.7152 -1.1462  0.5236
18937TIP3   OH278301   4.728   2.816   2.672 -0.1498 -0.0043  0.2878
18937TIP3    H178302   4.727   2.781   2.761 -1.5543 -0.3786  0.1417
18937TIP3    H278303   4.638   2.807   2.641  0.0849  1.1016 -0.7976
18938TIP3   OH278304   1.979   4.972  13.091  0.2881 -0.2387 -0.1191
18938TIP3    H178305   2.012   5.062  13.095  0.4066 -0.2924  0.1569
18938TIP3    H278306   2.055   4.920  13.062  0.4323 -0.3519  0.4430
18939TIP3   OH278307   2.207   0.080  13.612  0.0137  0.3359 -0.8676
18939TIP3    H178308   2.283   0.133  13.636  1.0209 -2.1094  1.8493
18939TIP3    H278309   2.136   0.116  13.666  0.1587  0.3121 -0.6566
18940TIP3   OH278310   1.330   4.157  10.743  0.1757 -0.6743  0.7856
18940TIP3    H178311   1.238   4.140  10.761 -0.1714 -2.9600 -2.2429
18940TIP3    H278312   1.333   4.248  10.713 -1.2328 -0.8011  0.2301
18941TIP3   OH278313   0.445   3.509  16.153 -0.1651  0.2279  0.4148
18941TIP3    H178314   0.359   3.550  16.159 -0.4627 -0.2152 -0.7062
18941TIP3    H278315   0.435   3.440  16.088  1.1336  0.4093 -0.0068
18942TIP3   OH278316   0.232   1.381   1.227  0.6612  0.4484 -0.5849
18942TIP3    H178317   0.156   1.419   1.182  0.7223  0.2706 -0.8405
18942TIP3    H278318   0.296   1.452   1.231  0.3309  0.7233 -0.0027
18943TIP3   OH278319   0.459   3.837   1.340 -0.5409 -0.0242  0.0664
18943TIP3    H178320   0.453   3.751   1.299  0.3409 -0.0629 -0.0013
18943TIP3    H278321   0.553   3.853   1.349 -0.7040  0.2628  1.4934
18944TIP3   OH278322   6.503   4.293  17.062 -0.3703 -0.3764 -0.2901
18944TIP3    H178323   6.482   4.340  16.981  2.4578  0.4326 -0.6747
18944TIP3    H278324   6.507   4.361  17.129 -0.4853 -0.7145  0.0635
18945TIP3   OH278325   0.884   4.771  12.371  0.6010 -0.4672 -0.0673
18945TIP3    H178326   0.794   4.797  12.351  1.5205  2.9164 -0.5442
18945TIP3    H278327   0.907   4.707  12.304 -0.6796  0.5666 -1.5716
18946TIP3   OH278328   0.243   1.435   0.265 -0.0925  0.4777 -0.0192
18946TIP3    H178329   0.283   1.434   0.352  1.9432 -0.3256 -0.8928
18946TIP3    H278330   0.254   1.346   0.233 -2.1955  0.3658 -0.5388
18947TIP3   OH278331   0.209   6.760  10.645  0.4512  0.1512  0.0394
18947TIP3    H178332   0.137   6.707  10.680 -0.6423  1.4771 -0.1239
18947TIP3    H278333   0.264   6.777  10.722  0.4355 -0.5949  0.2327
18948TIP3   OH278334   1.028   5.060  13.570  0.0159  0.0029  0.1588
18948TIP3    H178335   1.041   5.057  13.475  1.1675  0.3856  0.2839
18948TIP3    H278336   1.008   4.969  13.594  2.0963 -0.6088 -0.1753
18949TIP3   OH278337   6.112   4.885   1.328 -0.1205 -0.3359 -0.0052
18949TIP3    H178338   6.149   4.974   1.324 -1.4980  0.2752  0.0689
18949TIP3    H278339   6.077   4.871   1.240 -1.9427  0.1449  0.6006
18950TIP3   OH278340   2.249   6.216  11.593 -0.0133 -0.0829  0.3436
18950TIP3    H178341   2.184   6.264  11.541  0.2401  1.9054  1.7514
18950TIP3    H278342   2.220   6.125  11.589 -1.3534  0.3617 -1.2583
18951TIP3   OH278343   4.101   2.808   3.154 -0.2787 -0.4254 -0.0363
18951TIP3    H178344   4.015   2.778   3.124 -0.2215 -0.4567 -0.1687
18951TIP3    H278345   4.081   2.881   3.214 -0.4340 -0.9530  0.5647
18952TIP3   OH278346   6.162   2.213   1.617 -0.3096 -0.0758  0.2806
18952TIP3    H178347   6.250   2.213   1.580  0.2773 -0.5150  1.6471
18952TIP3    H278348   6.164   2.282   1.684 -0.2735 -1.6257  1.9387
18953TIP3   OH278349   1.688   6.220  16.794 -0.8215 -0.4671 -0.4903
18953TIP3    H178350   1.777   6.194  16.769 -1.3382 -1.2225 -1.6416
18953TIP3    H278351   1.689   6.219  16.890  1.6283  3.8955 -0.2192
18954TIP3   OH278352   6.521   2.331   5.107 -0.1302 -0.4751  0.0650
18954TIP3    H178353   6.434   2.296   5.086 -0.8843  1.8431 -1.0409
18954TIP3    H278354   6.506   2.390   5.181  0.4532  0.0566 -0.2316
18955TIP3   OH278355   0.339   2.757  14.376  0.6141 -0.7493 -0.0222
18955TIP3    H178356   0.335   2.789  14.466  3.8048  0.3071 -0.1398
18955TIP3    H278357   0.427   2.781  14.345  0.2981 -2.6653 -2.8300
18956TIP3   OH278358   6.004   6.651  15.530 -0.2837 -0.2433  0.0389
18956TIP3    H178359   6.010   6.746  15.522 -0.6291 -0.2865 -0.9155
18956TIP3    H278360   5.998   6.635  15.624  2.4785  0.4897  0.4081
18957TIP3   OH278361   2.249   1.663   1.447  0.3395  0.1008  0.3971
18957TIP3    H178362   2.313   1.699   1.386  0.0275  0.0566  0.0372
18957TIP3    H278363   2.255   1.568   1.435  0.3432  0.0880  0.4998
18958TIP3   OH278364   5.187   2.725  12.255  0.2751 -0.3734 -0.0606
18958TIP3    H178365   5.164   2.643  12.299 -0.7704  0.6912  1.5050
18958TIP3    H278366   5.112   2.742  12.197 -0.2647  0.2234  0.7826
18959TIP3   OH278367   1.488   4.276  11.191  0.0641  0.0186 -0.0115
18959TIP3    H178368   1.566   4.312  11.233 -0.2262 -0.3115  0.8416
18959TIP3    H278369   1.482   4.187  11.224 -0.1715 -0.2520 -0.7738
18960TIP3   OH278370   2.488   3.342   1.103  0.0038  0.4491 -0.3694
18960TIP3    H178371   2.548   3.272   1.077 -0.9562 -0.2991 -0.6333
18960TIP3    H278372   2.494   3.407   1.033  1.5353  1.0625  0.2886
18961TIP3   OH278373   5.159   5.434  13.204 -0.3714  0.2518  0.0004
18961TIP3    H178374   5.199   5.378  13.271  1.8817 -0.0653 -1.4801
18961TIP3    H278375   5.126   5.373  13.139  1.5974  0.5441 -1.3522
18962TIP3   OH278376   0.564   0.945   1.317  0.2384 -0.1936  0.1835
18962TIP3    H178377   0.608   0.905   1.242 -0.7224  0.7447 -0.9222
18962TIP3    H278378   0.520   1.022   1.281 -2.1433 -0.9600  1.2512
18963TIP3   OH278379   1.184   6.002   5.255 -0.3326 -0.7140  0.3234
18963TIP3    H178380   1.276   6.019   5.238 -0.5300  0.8485  0.6325
18963TIP3    H278381   1.178   5.993   5.350 -0.7535  1.1694  0.5111
18964TIP3   OH278382   0.838   5.037  12.183 -0.4445  0.8045  0.1303
18964TIP3    H178383   0.885   4.961  12.150  0.8668  1.2512  0.9104
18964TIP3    H278384   0.762   5.001  12.229  0.0652 -0.0100  0.3405
18965TIP3   OH278385   3.055   5.940   3.505 -0.4496  0.4570  0.2099
18965TIP3    H178386   3.119   5.980   3.446  0.2810  0.6905  1.1346
18965TIP3    H278387   2.990   5.901   3.447  0.7643 -0.1671 -0.7742
18966TIP3   OH278388   2.857   6.240   3.394  0.5371  0.4030 -0.1279
18966TIP3    H178389   2.939   6.249   3.443  0.1360  1.2175  0.4221
18966TIP3    H278390   2.866   6.158   3.346  0.8106 -0.5953  1.5625
18967TIP3   OH278391   4.387   0.663  14.128  0.0816  0.0812 -0.1617
18967TIP3    H178392   4.355   0.625  14.210  0.1715  0.4181  0.0313
18967TIP3    H278393   4.307   0.680  14.077  0.0218 -0.0806 -0.1217
18968TIP3   OH278394   1.182   2.617  14.243  0.0504 -0.6949 -0.6156
18968TIP3    H178395   1.211   2.698  14.202  0.7662 -0.6282 -0.0026
18968TIP3    H278396   1.157   2.560  14.169 -2.4904  0.7772 -1.0052
18969TIP3   OH278397   5.680   3.098   2.783  0.2394 -0.6915 -0.2840
18969TIP3    H178398   5.660   3.009   2.754 -1.6270 -0.4590  0.1778
18969TIP3    H278399   5.721   3.087   2.869 -3.1828 -1.0970  1.4855
18970TIP3   OH278400   5.890   6.066   1.907  0.2836 -0.6187 -0.1339
18970TIP3    H178401   5.985   6.073   1.920  0.5122 -0.9698 -1.4715
18970TIP3    H278402   5.873   6.113   1.825 -0.6511 -0.8222 -0.0714
18971TIP3   OH278403   0.769   6.783  15.152 -0.3274 -0.4955  0.3311
18971TIP3    H178404   0.692   6.839  15.161  0.7206  1.0139  0.4498
18971TIP3    H278405   0.790   6.786  15.059 -0.7195 -1.3429  0.2133
18972TIP3   OH278406   6.350   1.380   5.257  0.3377 -0.0104 -0.1882
18972TIP3    H178407   6.314   1.316   5.319  2.4310 -1.2617 -0.1707
18972TIP3    H278408   6.382   1.326   5.184  1.3570  1.1071 -0.5932
18973TIP3   OH278409   4.985   0.580   4.942  0.0053  0.1465  0.5390
18973TIP3    H178410   4.900   0.589   4.986 -0.2408  1.5256 -0.1507
18973TIP3    H278411   5.044   0.635   4.994  0.7494 -1.5883  1.6013
18974TIP3   OH278412   2.115   5.613  15.162  0.6272 -0.6228  0.1804
18974TIP3    H178413   2.032   5.630  15.117  0.4413  0.6991  0.9733
18974TIP3    H278414   2.093   5.549  15.230  0.4858 -1.0378 -0.2445
18975TIP3   OH278415   5.087   0.787  13.824  0.2312  0.2296 -0.4834
18975TIP3    H178416   5.004   0.772  13.869 -0.5276  0.5008 -1.7573
18975TIP3    H278417   5.132   0.703  13.829 -1.0869 -0.6005 -1.6886
18976TIP3   OH278418   1.441   3.723  12.920  0.1391 -0.1764  0.5071
18976TIP3    H178419   1.468   3.632  12.933 -0.6417 -0.7394 -1.5315
18976TIP3    H278420   1.513   3.762  12.870 -0.5317 -0.3320 -0.6159
18977TIP3   OH278421   2.759   4.309  16.549  0.3222 -0.0460 -0.3824
18977TIP3    H178422   2.697   4.273  16.485 -1.0943  0.7917  0.4710
18977TIP3    H278423   2.752   4.404  16.538  1.4586  0.0577 -0.2549
18978TIP3   OH278424   3.503   2.256  15.340  0.1736 -0.1306  0.1177
18978TIP3    H178425   3.497   2.346  15.308  0.1784 -0.3923 -0.6326
18978TIP3    H278426   3.570   2.215  15.285 -1.3865 -1.2063 -1.0784
18979TIP3   OH278427   3.016   3.797   3.653 -0.2588  0.2352 -0.2026
18979TIP3    H178428   3.003   3.816   3.746 -2.5078 -0.9426 -0.2170
18979TIP3    H278429   2.963   3.861   3.607 -3.4284 -2.2754 -0.4084
18980TIP3   OH278430   1.719   2.305  16.208 -0.8357 -0.0263  0.3384
18980TIP3    H178431   1.652   2.340  16.150 -0.0804  0.1578 -0.4518
18980TIP3    H278432   1.796   2.292  16.151  0.2113  1.0039  1.4515
18981TIP3   OH278433   1.935   6.803   2.487 -0.1422 -0.3980 -0.3123
18981TIP3    H178434   2.028   6.792   2.467 -0.0674  0.1910 -0.2923
18981TIP3    H278435   1.918   6.896   2.473 -1.3074 -0.9089 -2.7087
18982TIP3   OH278436   3.348   0.212   0.342 -0.3369 -0.3256  0.4969
18982TIP3    H178437   3.382   0.187   0.256 -0.0667 -2.1848  1.1076
18982TIP3    H278438   3.257   0.185   0.341 -0.2039 -0.8130  0.9544
18983TIP3   OH278439   2.696   5.590  11.095 -0.8501  0.4425 -0.0490
18983TIP3    H178440   2.787   5.607  11.069 -1.0040 -0.9673 -1.6675
18983TIP3    H278441   2.652   5.675  11.086  0.4064  1.3037  1.4024
18984TIP3   OH278442   6.024   4.632   1.737  0.2100  0.3186  0.1484
18984TIP3    H178443   6.005   4.661   1.648  2.1382  0.1294 -0.3533
18984TIP3    H278444   6.053   4.711   1.783  1.7538 -0.0406 -0.1524
18985TIP3   OH278445   6.516   5.297  16.855  0.1096 -0.2452 -0.1135
18985TIP3    H178446   6.546   5.339  16.775 -0.6696 -1.6659 -1.1856
18985TIP3    H278447   6.430   5.335  16.872  1.0566  1.4694  1.1758
18986TIP3   OH278448   5.840   2.710  11.325 -0.0598  0.0872  0.4175
18986TIP3    H178449   5.854   2.639  11.263 -0.3137 -0.2214  0.7101
18986TIP3    H278450   5.927   2.748  11.338  0.4321 -1.4200  1.7550
18987TIP3   OH278451   1.211   1.208  16.890  0.0920  0.1551  0.2044
18987TIP3    H178452   1.183   1.274  16.827  2.4349  0.4530 -0.6241
18987TIP3    H278453   1.164   1.231  16.970  0.1048  2.2705 -0.3186
18988TIP3   OH278454   0.754   0.832  13.702 -0.0252 -0.0127  0.1960
18988TIP3    H178455   0.728   0.826  13.610 -1.6658  2.0337  0.4590
18988TIP3    H278456   0.815   0.759  13.714 -1.7223 -1.9304 -1.8362
18989TIP3   OH278457   5.023   2.649  15.837 -0.2967 -0.2082  0.3121
18989TIP3    H178458   5.098   2.660  15.778 -0.6157 -2.7891 -0.6871
18989TIP3    H278459   5.055   2.591  15.907 -1.3761 -1.5970 -0.2910
18990TIP3   OH278460   3.818   1.502   1.831  0.1107  0.4413 -0.4898
18990TIP3    H178461   3.732   1.473   1.862 -0.6909  1.4720 -1.6681
18990TIP3    H278462   3.861   1.421   1.801 -1.2589  0.1492 -1.7817
18991TIP3   OH278463   1.901   1.574  15.422 -0.3650 -0.1779 -0.8200
18991TIP3    H178464   1.934   1.664  15.420 -1.3707  0.3040  1.0974
18991TIP3    H278465   1.973   1.523  15.460 -0.1543  0.0076 -0.9684
18992TIP3   OH278466   1.054   1.667  13.896 -0.4234 -0.9285  0.0208
18992TIP3    H178467   1.054   1.582  13.851 -0.8957 -0.8254 -0.1810
18992TIP3    H278468   0.968   1.704  13.877 -0.0693 -0.2180 -0.2365
18993TIP3   OH278469   6.386   6.731  14.458  0.4856  0.2797 -0.5803
18993TIP3    H178470   6.478   6.751  14.442  0.2744 -0.1674 -2.5544
18993TIP3    H278471   6.374   6.642  14.424 -0.2436 -0.5093  1.5331
18994TIP3   OH278472   6.313   3.306   5.254 -0.6747 -0.0514 -0.4538
18994TIP3    H178473   6.246   3.295   5.322 -0.2208 -1.1946 -0.1783
18994TIP3    H278474   6.396   3.301   5.301 -0.3679 -0.0707 -0.9886
18995TIP3   OH278475   5.982   5.185   1.250  0.4974 -0.0967  0.4018
18995TIP3    H178476   6.032   5.195   1.169  0.8775  0.8977  0.7462
18995TIP3    H278477   5.924   5.111   1.233  0.1708  0.4514 -0.9921
18996TIP3   OH278478   6.619   1.698   1.914  0.1872  0.4793 -0.1115
18996TIP3    H178479   6.622   1.625   1.975  1.3683  1.1526  0.6832
18996TIP3    H278480   6.526   1.709   1.893 -0.2086  0.0296  1.3232
18997TIP3   OH278481   6.388   4.844   2.071  0.2614  0.3631 -0.2244
18997TIP3    H178482   6.390   4.817   1.980  1.3661  1.1738 -0.4546
18997TIP3    H278483   6.338   4.775   2.115  0.3088 -0.3896 -1.3113
18998TIP3   OH278484   3.544   1.694  12.152 -0.2554  0.1630 -0.3482
18998TIP3    H178485   3.476   1.627  12.152  0.8206 -1.1208  2.5535
18998TIP3    H278486   3.497   1.777  12.146 -1.9859 -0.7219  0.3316
18999TIP3   OH278487   1.899   5.432   0.045 -0.4731  0.4651 -0.4935
18999TIP3    H178488   1.941   5.368  -0.013  0.8471  0.5975  0.2536
18999TIP3    H278489   1.894   5.512  -0.007  0.3306  0.4736 -0.5739
19000TIP3   OH278490   6.135   6.661   0.123 -0.2317  0.0639  0.3332
19000TIP3    H178491   6.074   6.702   0.183 -1.6019  1.1494 -1.6701
19000TIP3    H278492   6.148   6.726   0.054  3.2326 -0.1234  0.6351
19001TIP3   OH278493   2.922   3.223  15.125 -0.2915  0.5527  0.3072
19001TIP3    H178494   2.935   3.128  15.135 -0.7172  0.1323 -2.2683
19001TIP3    H278495   2.836   3.240  15.163 -0.4971 -0.2404  0.2205
19002TIP3   OH278496   4.295   4.532  15.040  0.0199  0.2951 -0.3960
19002TIP3    H178497   4.346   4.612  15.051  0.4081  0.2660 -1.8339
19002TIP3    H278498   4.220   4.543  15.099  1.7619  0.2299  1.9492
19003TIP3   OH278499   2.191   0.822  14.984 -0.0101  0.0208  0.2349
19003TIP3    H178500   2.243   0.903  14.986  2.1033 -1.1521 -2.1523
19003TIP3    H278501   2.234   0.765  15.047  0.4254 -0.2983 -0.3490
19004TIP3   OH278502   1.665   0.053   6.500 -0.4638 -0.4173 -0.1151
19004TIP3    H178503   1.731   0.022   6.438 -0.4091 -0.5886  0.0283
19004TIP3    H278504   1.585   0.007   6.475 -0.1521 -1.4639  0.7292
19005TIP3   OH278505   4.373   6.550   5.896 -0.9863 -0.1010  0.1603
19005TIP3    H178506   4.327   6.487   5.840  2.1505 -2.5158  0.0485
19005TIP3    H278507   4.353   6.521   5.985  0.5724 -1.5019  0.1096
19006TIP3   OH278508   6.645   3.036  15.818  0.0465 -0.2283 -0.1259
19006TIP3    H178509   6.599   2.954  15.800 -0.5227 -0.6029  2.5156
19006TIP3    H278510   6.598   3.073  15.893  2.0553  1.0491  0.5711
19007TIP3   OH278511   1.955   6.023   3.700  0.8554  0.0342  0.2974
19007TIP3    H178512   1.901   6.078   3.644  0.0454 -1.7723 -0.7763
19007TIP3    H278513   2.012   6.085   3.746 -0.6172  1.8276 -0.1509
19008TIP3   OH278514   0.453   1.704  12.054  0.0268  0.1952  0.5305
19008TIP3    H178515   0.385   1.737  12.113 -0.5802 -1.4702  0.7988
19008TIP3    H278516   0.411   1.703  11.968 -0.3430 -0.9542  0.7174
19009TIP3   OH278517   1.225   0.923  15.794 -0.4290 -0.6411 -0.1843
19009TIP3    H178518   1.290   0.893  15.731 -0.5691 -1.5221  0.0856
19009TIP3    H278519   1.275   0.950  15.871 -0.2070  1.0270 -0.8772
19010TIP3   OH278520   1.911   0.914  12.167 -0.5019  0.1179  0.0596
19010TIP3    H178521   1.974   0.871  12.225  0.5791 -1.9478 -2.4680
19010TIP3    H278522   1.833   0.858  12.169 -0.4555  0.0271 -0.4472
19011TIP3   OH278523   6.291   1.325  12.881  0.3887 -0.0011  0.0706
19011TIP3    H178524   6.215   1.380  12.864  0.3224  0.0525  0.5435
19011TIP3    H278525   6.260   1.235  12.868  0.8171  0.0887 -2.0192
19012TIP3   OH278526   3.219   6.197  10.616  0.0831  0.2634  0.3128
19012TIP3    H178527   3.266   6.115  10.629  0.0848 -0.1849 -2.0064
19012TIP3    H278528   3.265   6.260  10.671  0.5402 -1.1194  1.5812
19013TIP3   OH278529   4.683   5.883  16.616 -0.4312  0.1571 -0.3419
19013TIP3    H178530   4.643   5.958  16.660 -1.7360 -0.4661 -0.4139
19013TIP3    H278531   4.759   5.862  16.669 -0.3042  1.2503 -0.0621
19014TIP3   OH278532   0.731   3.509  16.141  0.2084 -0.3692 -0.1467
19014TIP3    H178533   0.801   3.559  16.184 -0.4993  0.0355  0.5619
19014TIP3    H278534   0.655   3.521  16.198 -0.7016 -0.0021 -1.3980
19015TIP3   OH278535   4.711   0.777  13.214 -0.1649  0.6980  0.3919
19015TIP3    H178536   4.660   0.776  13.295  3.9480  2.1673  3.3332
19015TIP3    H278537   4.737   0.686  13.201 -3.2353 -0.0951 -1.2145
19016TIP3   OH278538   2.548   5.416  15.821  0.2970 -0.1702  0.1464
19016TIP3    H178539   2.641   5.403  15.838  0.2899  1.0483  1.2791
19016TIP3    H278540   2.507   5.332  15.845  0.9371 -0.2167  1.1414
19017TIP3   OH278541   0.988   2.601   5.070  0.0742  0.3683 -0.2510
19017TIP3    H178542   1.019   2.669   5.130 -1.6151  0.6456  0.3481
19017TIP3    H278543   0.893   2.614   5.065 -0.2155 -1.5598 -0.5890
19018TIP3   OH278544   4.111   5.347   5.707  0.3347  0.5030 -0.2248
19018TIP3    H178545   4.077   5.427   5.746 -0.9124 -0.2404  0.2994
19018TIP3    H278546   4.176   5.315   5.770 -0.6303  0.0679  0.5852
19019TIP3   OH278547   0.308   4.560   1.280  0.0313  0.0375  0.0491
19019TIP3    H178548   0.367   4.601   1.217 -0.2517 -0.6500 -0.6797
19019TIP3    H278549   0.258   4.497   1.229 -1.4887  0.7346  0.6027
19020TIP3   OH278550   0.995   5.136   4.821  0.4936 -0.0287 -0.2127
19020TIP3    H178551   1.073   5.085   4.843  1.6492  1.8150  0.2409
19020TIP3    H278552   1.030   5.210   4.771 -0.9567  0.9111  0.1234
19021TIP3   OH278553   4.196   5.029   5.520  0.1054 -0.3825  0.1947
19021TIP3    H178554   4.242   4.968   5.462 -0.4557  0.6871 -1.4600
19021TIP3    H278555   4.264   5.086   5.554  0.2734 -0.1200 -0.5681
19022TIP3   OH278556   2.921   4.585   0.141  0.3867  0.2718 -0.3034
19022TIP3    H178557   2.856   4.544   0.085 -0.0527 -1.9393  1.6445
19022TIP3    H278558   2.876   4.660   0.180 -0.6356 -0.5336  0.1065
19023TIP3   OH278559   4.932   4.232   4.983 -0.3004 -0.1094 -0.2118
19023TIP3    H178560   4.857   4.172   4.988 -0.8816  0.5383 -0.9586
19023TIP3    H278561   4.907   4.304   5.041  0.2438 -0.4081  0.4083
19024TIP3   OH278562   0.500   3.273  11.598 -0.8211 -0.2864 -0.0100
19024TIP3    H178563   0.533   3.217  11.528  0.0179 -0.1019  0.2342
19024TIP3    H278564   0.530   3.231  11.679 -0.4480  0.3479  0.1868
19025TIP3   OH278565   0.369   0.581   3.189 -0.4004  0.2178  0.2845
19025TIP3    H178566   0.293   0.541   3.147 -0.4659 -0.7226  1.2413
19025TIP3    H278567   0.442   0.563   3.130 -0.1459 -2.6355  1.2635
19026TIP3   OH278568   3.238   5.559   0.531 -0.0125  0.3641 -0.1019
19026TIP3    H178569   3.276   5.486   0.579  1.6324  1.8877  1.0333
19026TIP3    H278570   3.312   5.617   0.512 -0.8336  0.5728 -3.2075
19027TIP3   OH278571   4.112   1.227  12.041  0.6771  0.0556  0.5252
19027TIP3    H178572   4.155   1.150  12.078  0.8766  0.3560  0.9345
19027TIP3    H278573   4.106   1.209  11.947  1.1224 -0.2666  0.5547
19028TIP3   OH278574   6.080   3.165  14.623  0.2140 -0.0432 -0.0986
19028TIP3    H178575   5.993   3.156  14.661 -0.0762  0.4864 -0.6237
19028TIP3    H278576   6.131   3.094  14.663 -0.8766 -1.3701 -0.9872
19029TIP3   OH278577   5.248   3.863   5.578 -0.6317 -0.1126 -0.0104
19029TIP3    H178578   5.313   3.933   5.577  2.0148 -2.3291 -2.3152
19029TIP3    H278579   5.247   3.832   5.668 -0.0995  1.3049  0.5130
19030TIP3   OH278580   4.560   2.449  16.300  0.4698  0.1169 -0.2028
19030TIP3    H178581   4.549   2.430  16.207  0.4295  0.3279 -0.2400
19030TIP3    H278582   4.478   2.489  16.328  0.6885  0.5819 -0.2093
19031TIP3   OH278583   5.621   6.794   2.356  0.2425  0.2317 -0.2634
19031TIP3    H178584   5.551   6.799   2.420 -1.1969 -0.4226 -1.7033
19031TIP3    H278585   5.618   6.879   2.311  0.6208  0.3318 -0.1064
19032TIP3   OH278586   2.575   6.592   3.823 -0.2798 -0.6759  0.0403
19032TIP3    H178587   2.529   6.642   3.890  2.1022  2.6921 -0.6144
19032TIP3    H278588   2.630   6.530   3.873 -0.6568 -0.2084  1.0560
19033TIP3   OH278589   2.312   0.224   5.781 -0.5482 -0.7034 -0.4180
19033TIP3    H178590   2.407   0.212   5.775 -0.3215  0.4833  0.5332
19033TIP3    H278591   2.278   0.135   5.793  0.4446 -1.1413 -0.7213
19034TIP3   OH278592   4.736   4.077  16.346 -0.2953  0.1379  0.3639
19034TIP3    H178593   4.758   4.017  16.417  1.0219  0.5565  0.3321
19034TIP3    H278594   4.740   4.022  16.267 -0.5472 -0.0470  0.4767
19035TIP3   OH278595   2.639   3.751   5.198  0.2024 -0.0507  0.2914
19035TIP3    H178596   2.678   3.757   5.111  0.8980 -0.7330  0.5504
19035TIP3    H278597   2.712   3.732   5.257 -0.0890  1.3968  1.1884
19036TIP3   OH278598   5.335   4.755   2.268  0.0338 -0.4046 -0.1693
19036TIP3    H178599   5.345   4.730   2.360 -0.3195  0.1224  0.0126
19036TIP3    H278600   5.425   4.768   2.236  0.1527 -0.5519  0.1089
19037TIP3   OH278601   4.479   2.636  14.253 -0.1118  0.0735 -0.0192
19037TIP3    H178602   4.456   2.623  14.161  1.2957  0.9808 -0.5454
19037TIP3    H278603   4.415   2.699  14.285 -0.7157 -0.3796 -0.3319
19038TIP3   OH278604   6.771   4.364   4.654 -0.0962 -0.1591 -0.0840
19038TIP3    H178605   6.681   4.341   4.676 -0.6099  0.3790 -1.5194
19038TIP3    H278606   6.764   4.416   4.574  1.2350  2.3720  1.2862
19039TIP3   OH278607   4.746   1.382  16.344 -0.1351  0.0493  0.1630
19039TIP3    H178608   4.707   1.295  16.348  0.5949 -0.2485  0.9348
19039TIP3    H278609   4.671   1.442  16.349 -0.5264 -0.5137  1.2632
19040TIP3   OH278610   4.019   4.761   1.231 -0.0170 -0.1112  0.5562
19040TIP3    H178611   4.042   4.698   1.163 -0.1310  0.7482 -0.2938
19040TIP3    H278612   3.929   4.739   1.254 -0.6239  0.7360 -0.8919
19041TIP3   OH278613   6.166   6.717  11.625  0.0063 -0.0647 -0.2754
19041TIP3    H178614   6.110   6.652  11.668  0.8141 -1.9686 -1.9622
19041TIP3    H278615   6.107   6.789  11.605 -1.1092 -0.5900  0.9199
19042TIP3   OH278616   2.871   1.877  15.222  0.3739  0.9358 -0.3782
19042TIP3    H178617   2.933   1.819  15.266 -0.1273  1.2016  0.7065
19042TIP3    H278618   2.888   1.963  15.259 -0.2889  1.1023 -0.4474
19043TIP3   OH278619   4.238   1.131   2.535 -0.1515 -0.0498  0.0595
19043TIP3    H178620   4.157   1.093   2.502 -1.1982  1.7861  0.3923
19043TIP3    H278621   4.305   1.102   2.473 -1.3394 -0.2372 -1.1802
19044TIP3   OH278622   0.224   0.859   5.899 -0.1049 -0.3635  0.1538
19044TIP3    H178623   0.261   0.943   5.871  1.3115 -0.9640  0.1179
19044TIP3    H278624   0.240   0.800   5.826 -1.3772 -0.5998  0.0508
19045TIP3   OH278625   4.925   6.492  17.335  0.1879  0.2075 -0.0731
19045TIP3    H178626   4.943   6.400  17.355  2.5108  0.2372 -1.6267
19045TIP3    H278627   4.947   6.539  17.415  1.1527 -0.4151  0.0446
19046TIP3   OH278628   6.008   4.986  13.545 -0.5783  0.4205 -0.2581
19046TIP3    H178629   6.077   5.045  13.516 -0.8592  1.2282  0.6819
19046TIP3    H278630   6.039   4.951  13.629 -0.1945 -1.1755 -1.0122
19047TIP3   OH278631   4.156   6.379  15.209  0.2244  0.4006  0.5013
19047TIP3    H178632   4.097   6.304  15.215 -0.5033  1.0723  2.3955
19047TIP3    H278633   4.240   6.346  15.242 -0.5813  0.8325  3.2011
19048TIP3   OH278634   0.794   6.209   1.374 -0.6707  0.1519 -0.0221
19048TIP3    H178635   0.703   6.198   1.402 -0.6844  1.2865  0.4459
19048TIP3    H278636   0.787   6.234   1.282 -0.8481  0.4120  0.0590
19049TIP3   OH278637   0.712   1.875  13.377  0.2028  0.1739 -0.1880
19049TIP3    H178638   0.725   1.939  13.447  0.1961 -0.7678  0.6878
19049TIP3    H278639   0.693   1.793  13.422 -1.9944 -0.0026 -1.3026
19050TIP3   OH278640   3.627   0.774  12.728 -0.3752 -0.1079  0.3230
19050TIP3    H178641   3.626   0.843  12.663 -0.3392  0.8425  1.3022
19050TIP3    H278642   3.623   0.820  12.812 -1.4207 -1.3250  0.9781
19051TIP3   OH278643   2.382   1.954   3.385  0.3682 -0.1024  0.0338
19051TIP3    H178644   2.456   2.014   3.381  0.4669 -0.1582  0.8001
19051TIP3    H278645   2.388   1.902   3.305 -0.9254  2.2802 -1.7215
19052TIP3   OH278646   3.450   2.308   6.102  0.3357 -0.2993 -0.1392
19052TIP3    H178647   3.376   2.341   6.051 -0.4959 -1.1167  0.5136
19052TIP3    H278648   3.514   2.380   6.100 -0.9655  0.9203  0.2999
19053TIP3   OH278649   0.901   5.308   0.455 -0.2793 -0.2818 -0.2941
19053TIP3    H178650   0.937   5.231   0.411 -0.5425 -1.3140  1.1956
19053TIP3    H278651   0.845   5.272   0.525 -0.0874  1.2483  0.7104
19054TIP3   OH278652   4.894   4.104   1.087 -0.4127  0.2693 -0.1717
19054TIP3    H178653   4.813   4.094   1.137 -0.6668 -0.9154 -0.7905
19054TIP3    H278654   4.957   4.047   1.130 -0.2297  0.3086 -0.3800
19055TIP3   OH278655   2.815   4.331   4.648 -0.4548  0.6408 -0.3376
19055TIP3    H178656   2.748   4.374   4.701 -1.6207 -0.6037 -0.7452
19055TIP3    H278657   2.779   4.245   4.629  1.6758 -0.4467  0.2325
19056TIP3   OH278658   2.403   3.169  16.892  0.3887  0.3188  0.8254
19056TIP3    H178659   2.455   3.134  16.820  0.8952  2.1965  0.2172
19056TIP3    H278660   2.386   3.094  16.948  1.2748 -0.9014 -0.4697
19057TIP3   OH278661   0.812   3.530   0.317  0.0247 -0.3645 -0.2227
19057TIP3    H178662   0.753   3.528   0.392  0.4570  0.2716  0.1501
19057TIP3    H278663   0.852   3.617   0.321  0.9914 -0.7850 -0.4631
19058TIP3   OH278664   4.474   6.630  11.340  0.0544 -0.0651  0.2872
19058TIP3    H178665   4.543   6.664  11.283 -1.0300  0.7410 -0.5678
19058TIP3    H278666   4.434   6.708  11.378  0.9394 -0.5796  2.4389
19059TIP3   OH278667   0.554   3.848  13.411  0.2857  0.3370  0.6972
19059TIP3    H178668   0.461   3.833  13.426  0.0023  1.3806  0.1383
19059TIP3    H278669   0.591   3.860  13.499 -0.1004 -0.1173  0.9245
19060TIP3   OH278670   1.556   1.295   1.218  0.6728 -0.8277 -0.1952
19060TIP3    H178671   1.619   1.340   1.275  1.5915 -1.1711 -0.9243
19060TIP3    H278672   1.549   1.207   1.255 -0.2919 -0.4561  0.5751
19061TIP3   OH278673   6.150   2.287  13.631  0.2395  0.4010 -0.3254
19061TIP3    H178674   6.241   2.259  13.645  0.2862  0.4982 -0.4345
19061TIP3    H278675   6.099   2.206  13.635  0.3271  0.3498 -0.2353
19062TIP3   OH278676   1.073   4.386  14.842 -0.3644  1.2006 -0.4706
19062TIP3    H178677   1.159   4.361  14.876 -0.3188  0.8228 -0.8541
19062TIP3    H278678   1.091   4.423  14.755 -0.7003 -0.1448 -1.1501
19063TIP3   OH278679   6.256   5.027   5.202  0.7739  0.2376  0.3738
19063TIP3    H178680   6.229   4.979   5.281  0.1807  0.5220  0.3520
19063TIP3    H278681   6.187   5.008   5.138  0.4643  1.2058  0.4010
19064TIP3   OH278682   0.669   4.047  15.031 -0.3056 -0.4585  0.5218
19064TIP3    H178683   0.662   3.965  15.081 -3.2632 -0.9772 -0.5115
19064TIP3    H278684   0.681   4.019  14.940  0.9469  0.3724  0.4032
19065TIP3   OH278685   5.555   5.683   2.819  0.0253  0.1368 -0.1668
19065TIP3    H178686   5.632   5.737   2.803 -1.7445  2.9497  0.0052
19065TIP3    H278687   5.578   5.628   2.893  1.9710  0.6276 -0.3589
19066TIP3   OH278688   6.532   5.808   3.033 -0.0871 -0.2801 -0.3849
19066TIP3    H178689   6.558   5.887   3.080 -0.6112  0.7066 -1.6956
19066TIP3    H278690   6.491   5.840   2.953  1.1280 -1.8766 -1.7269
19067TIP3   OH278691   0.640   3.487   2.970  0.7402 -0.6355 -0.3151
19067TIP3    H178692   0.618   3.536   3.050 -0.1645 -0.5756 -0.5824
19067TIP3    H278693   0.680   3.406   3.001  1.0092 -0.3168  0.1762
19068TIP3   OH278694   3.382   0.540   4.256  0.0032  0.3931  0.4420
19068TIP3    H178695   3.296   0.508   4.285 -0.1621  0.6290  0.2202
19068TIP3    H278696   3.440   0.526   4.331 -0.5349  1.5188  1.0956
19069TIP3   OH278697   1.048   0.694  15.791  0.1930 -0.6396 -0.2893
19069TIP3    H178698   1.081   0.783  15.785  1.2018 -0.9697  0.1434
19069TIP3    H278699   1.105   0.643  15.734  0.6582 -1.2771  0.7120
19070TIP3   OH278700   0.145   5.452   0.599  0.0581 -0.0703  0.2725
19070TIP3    H178701   0.083   5.433   0.670  0.1155  0.2102  0.3982
19070TIP3    H278702   0.231   5.435   0.637  0.1122  0.4421  0.3917
19071TIP3   OH278703   5.267   2.047  11.065 -0.3058 -0.8368  0.2943
19071TIP3    H178704   5.286   2.024  11.156 -0.3968 -0.9782  0.2785
19071TIP3    H278705   5.192   1.992  11.042 -0.1997 -0.8985  0.0941
19072TIP3   OH278706   6.078   6.596  14.109  0.5760  0.1072 -0.1695
19072TIP3    H178707   6.063   6.648  14.188  0.2450  1.3383 -1.0013
19072TIP3    H278708   6.112   6.513  14.140  1.2008  0.8557  1.2242
19073TIP3   OH278709   4.560   5.539  16.023  0.7333  0.1644 -0.7089
19073TIP3    H178710   4.544   5.517  15.931  1.8194  0.1966 -0.9224
19073TIP3    H278711   4.474   5.534  16.065  0.2387  0.0820 -1.7122
19074TIP3   OH278712   4.659   6.444   1.479 -0.3219 -0.2557 -0.9699
19074TIP3    H178713   4.734   6.402   1.437  0.2748 -1.6866  1.3763
19074TIP3    H278714   4.601   6.372   1.502 -1.1416  0.5861 -0.3403
19075TIP3   OH278715   5.858   1.714  16.666  0.1758  0.1425 -0.9344
19075TIP3    H178716   5.768   1.747  16.658  0.3388  1.3967  1.4060
19075TIP3    H278717   5.849   1.627  16.704 -0.0576  0.6416  0.1949
19076TIP3   OH278718   1.555   6.712  16.537  0.1573  0.0047 -0.2169
19076TIP3    H178719   1.590   6.801  16.549 -0.4992  0.3587 -0.8166
19076TIP3    H278720   1.464   6.719  16.563 -0.0102 -0.3885 -0.6778
19077TIP3   OH278721   5.091   5.100  15.847  0.1595  0.2098  0.0096
19077TIP3    H178722   5.063   5.155  15.773 -0.5234 -0.5244 -0.2951
19077TIP3    H278723   5.130   5.162  15.909  0.8856  0.8253 -1.0207
19078TIP3   OH278724   6.496   3.847  12.808  0.3254  0.1465 -0.8240
19078TIP3    H178725   6.447   3.799  12.875  1.3415  0.1477 -0.0500
19078TIP3    H278726   6.430   3.902  12.766 -0.4438 -0.2645 -0.1931
19079TIP3   OH278727   1.809   3.176   4.760  0.1450 -0.0644 -0.2296
19079TIP3    H178728   1.738   3.131   4.804  0.6100  0.0911  0.7029
19079TIP3    H278729   1.826   3.253   4.814  0.4929  0.3267 -0.8745
19080TIP3   OH278730   0.509   6.115   5.008 -0.0477  0.0213 -0.2429
19080TIP3    H178731   0.571   6.070   5.066 -1.5028 -0.7065  0.8267
19080TIP3    H278732   0.435   6.055   5.001 -1.4037  1.5740 -0.0225
19081TIP3   OH278733   5.421   0.845  13.664 -0.0222 -0.1022  0.4051
19081TIP3    H178734   5.327   0.856  13.651 -0.5345  2.0427  4.3554
19081TIP3    H278735   5.429   0.774  13.728  1.2819 -1.6603 -1.3789
19082TIP3   OH278736   1.886   2.553   4.487  0.5517  0.3458 -0.7917
19082TIP3    H178737   1.936   2.624   4.527 -0.7442  0.7253  0.2317
19082TIP3    H278738   1.807   2.547   4.540 -0.8733  0.3162 -2.7850
19083TIP3   OH278739   0.545   0.724  13.015  0.0635 -0.3119 -0.1193
19083TIP3    H178740   0.493   0.799  12.988  1.2081  0.1689 -1.0801
19083TIP3    H278741   0.545   0.667  12.937  1.1652 -0.1834 -0.2206
19084TIP3   OH278742   3.959   4.101   1.953 -0.0773 -0.0737 -0.8785
19084TIP3    H178743   3.983   4.142   1.870  0.4500  0.7700 -0.3207
19084TIP3    H278744   3.987   4.164   2.020 -2.1157  0.1094 -0.1211
19085TIP3   OH278745   0.640   5.267   1.563 -0.4266 -0.3024 -0.4150
19085TIP3    H178746   0.613   5.223   1.481  1.0845 -1.7489 -0.1857
19085TIP3    H278747   0.557   5.293   1.603 -1.4487 -2.6888 -0.7547
19086TIP3   OH278748   6.318   2.082   5.577  0.4660 -0.0186  0.0641
19086TIP3    H178749   6.336   1.995   5.613 -0.8777 -0.3412 -0.0020
19086TIP3    H278750   6.350   2.143   5.644  3.3924 -0.4642 -0.7873
19087TIP3   OH278751   3.243   6.249  13.682  0.1006 -0.6012  0.4052
19087TIP3    H178752   3.321   6.293  13.649  0.3981 -0.8693  0.7416
19087TIP3    H278753   3.170   6.294  13.640  0.4722 -1.0459 -0.7529
19088TIP3   OH278754   2.186   3.598   4.475 -0.1018  0.9852  0.0919
19088TIP3    H178755   2.230   3.515   4.492  0.3422  1.2939  0.4647
19088TIP3    H278756   2.158   3.628   4.562 -0.5366  1.0771 -0.0766
19089TIP3   OH278757   5.790   4.359   2.332  0.5579  0.3190  0.1160
19089TIP3    H178758   5.856   4.398   2.389 -1.1293  1.1441  1.6108
19089TIP3    H278759   5.753   4.433   2.283  2.1913 -0.4100 -2.3927
19090TIP3   OH278760   3.739   0.795   1.307 -0.1159  0.0113  0.3243
19090TIP3    H178761   3.740   0.818   1.400 -1.0711  0.1409  0.3056
19090TIP3    H278762   3.665   0.736   1.297  0.3380 -0.4772 -0.2530
19091TIP3   OH278763   5.137   2.319   2.367  0.2386 -0.0693  0.4298
19091TIP3    H178764   5.067   2.263   2.332  2.8756 -3.9690  0.7317
19091TIP3    H278765   5.184   2.350   2.290  1.0120 -1.6061  0.2354
19092TIP3   OH278766   2.207   3.974  15.439 -0.4870 -0.5535  0.3630
19092TIP3    H178767   2.221   3.891  15.393 -0.4867 -1.3889  1.8236
19092TIP3    H278768   2.198   3.950  15.531  0.5326  1.1541  0.9687
19093TIP3   OH278769   6.578   5.998   2.251 -0.2855  0.1429  0.4021
19093TIP3    H178770   6.668   5.982   2.225  0.1477  2.1344  0.4998
19093TIP3    H278771   6.534   5.914   2.239  1.9111 -1.3556  1.8845
19094TIP3   OH278772   4.398   5.035  12.280 -0.1839 -0.2692  0.3337
19094TIP3    H178773   4.354   5.111  12.318  0.5576 -0.4087  1.5297
19094TIP3    H278774   4.422   4.981  12.356 -1.3109 -2.0487 -0.5185
19095TIP3   OH278775   2.220   6.340   4.312 -0.2312  0.1627 -0.3265
19095TIP3    H178776   2.194   6.350   4.221 -0.2647 -0.3079 -0.3691
19095TIP3    H278777   2.176   6.412   4.358  1.6167  1.8368 -1.0364
19096TIP3   OH278778   4.509   6.185  14.652 -0.0638 -0.4456 -0.4499
19096TIP3    H178779   4.590   6.230  14.629  0.3297 -0.7579  0.3148
19096TIP3    H278780   4.456   6.253  14.694  0.1977 -0.4913 -0.0467
19097TIP3   OH278781   4.294   0.176  10.414  0.2500 -0.0725 -0.4574
19097TIP3    H178782   4.265   0.101  10.466  2.3403 -0.3224  0.4070
19097TIP3    H278783   4.216   0.232  10.408 -2.1028 -3.1914 -2.9578
19098TIP3   OH278784   2.965   2.686  15.222  0.1321 -0.0241 -0.7048
19098TIP3    H178785   2.910   2.659  15.149  1.3987 -2.4658 -0.8610
19098TIP3    H278786   2.912   2.670  15.300 -0.7489  1.3710 -0.9855
19099TIP3   OH278787   5.450   6.562  16.499 -0.2212  0.0458 -0.1652
19099TIP3    H178788   5.492   6.484  16.463  1.1595 -0.4418  2.3097
19099TIP3    H278789   5.501   6.635  16.462 -0.3585 -0.2821 -1.0404
19100TIP3   OH278790   6.218   1.745   1.341 -0.3797 -0.2312 -0.1120
19100TIP3    H178791   6.152   1.779   1.280 -0.4885 -0.1287  0.0602
19100TIP3    H278792   6.290   1.808   1.335 -1.5488  1.4800  2.0186
19101TIP3   OH278793   4.347   1.052   4.584 -0.1703 -0.3595  0.7219
19101TIP3    H178794   4.414   1.019   4.523  0.1255  0.1404  0.7720
19101TIP3    H278795   4.289   1.104   4.530 -0.7353 -1.0917  0.6129
19102TIP3   OH278796   6.375   6.662   4.141  0.6312  0.4093  0.7070
19102TIP3    H178797   6.389   6.676   4.234 -1.1863  3.3692  0.6752
19102TIP3    H278798   6.302   6.600   4.136  0.1306  0.9303  1.3147
19103TIP3   OH278799   1.280   5.528  13.668 -0.1571  0.2620  0.2264
19103TIP3    H178800   1.344   5.530  13.740 -1.8515  0.5051  1.8008
19103TIP3    H278801   1.292   5.611  13.622 -0.4343  1.0571  1.5393
19104TIP3   OH278802   0.653   4.149   0.794 -0.5508  0.0459  0.2413
19104TIP3    H178803   0.721   4.215   0.781 -1.9083  1.6514  0.9368
19104TIP3    H278804   0.637   4.149   0.888 -1.6271 -0.1889  0.0648
19105TIP3   OH278805   1.041   1.290  15.092  0.6404  0.3310  0.3813
19105TIP3    H178806   0.992   1.271  15.172  2.7706 -1.6822  1.3319
19105TIP3    H278807   1.104   1.358  15.118 -0.3143  1.5426 -0.3365
19106TIP3   OH278808   4.920   3.506   5.180 -0.5081 -0.0288  0.4298
19106TIP3    H178809   4.885   3.551   5.257  2.0075  0.1345  1.5782
19106TIP3    H278810   4.966   3.574   5.131 -0.4307 -0.5113 -0.1748
19107TIP3   OH278811   6.377   4.736   1.808 -0.3533  0.5003  0.1908
19107TIP3    H178812   6.317   4.761   1.738 -0.0179 -1.3221 -0.8291
19107TIP3    H278813   6.464   4.759   1.775  0.0611 -2.4487 -1.1642
19108TIP3   OH278814   5.349   2.317  15.122 -0.3184 -0.9681 -0.5784
19108TIP3    H178815   5.303   2.398  15.146 -0.3027 -0.9221 -0.7018
19108TIP3    H278816   5.386   2.336  15.036 -0.5629 -1.2142 -0.7352
19109TIP3   OH278817   0.316   0.071  12.838 -0.1872  0.1076  0.4801
19109TIP3    H178818   0.242   0.025  12.877  0.9289 -0.9455  1.4312
19109TIP3    H278819   0.326   0.031  12.752  0.9267 -1.7092  1.3867
19110TIP3   OH278820   0.637   4.207  13.424 -0.5736  0.3349 -0.2299
19110TIP3    H178821   0.616   4.209  13.331 -1.0815 -3.3972 -0.3422
19110TIP3    H278822   0.719   4.158  13.430 -0.2686  0.9637  1.2717
19111TIP3   OH278823   3.093   0.300  14.737 -0.4521 -0.5940 -0.3335
19111TIP3    H178824   3.116   0.383  14.696  2.0481 -0.4189  1.2686
19111TIP3    H278825   3.004   0.314  14.770 -0.9981  0.5801 -2.1070
19112TIP3   OH278826   4.900   3.084   6.046  0.3169  0.2238 -0.0091
19112TIP3    H178827   4.922   3.166   6.002 -2.0495  1.8782  1.6534
19112TIP3    H278828   4.980   3.059   6.093  1.4157  0.9339 -1.4535
19113TIP3   OH278829   1.446   5.378   5.891  0.3179 -0.0059  0.1473
19113TIP3    H178830   1.536   5.367   5.921  1.0769 -1.5549 -2.4172
19113TIP3    H278831   1.411   5.290   5.885 -0.1136  0.2476 -2.2781
19114TIP3   OH278832   4.463   5.927  12.232 -0.2609  0.3103 -0.3872
19114TIP3    H178833   4.473   5.833  12.250  3.1502  0.6873  0.2843
19114TIP3    H278834   4.396   5.956  12.293 -1.5600 -1.6801 -0.7654
19115TIP3   OH278835   1.859   4.327   0.292  0.0999  0.3996  0.5295
19115TIP3    H178836   1.791   4.342   0.227 -0.1505  0.1303  0.7292
19115TIP3    H278837   1.816   4.342   0.377  0.1108 -0.3976  0.6871
19116TIP3   OH278838   0.288   5.258  15.866  0.1510 -0.3981  1.0157
19116TIP3    H178839   0.379   5.285  15.878  0.3332 -0.3447 -0.3732
19116TIP3    H278840   0.239   5.340  15.866  0.6450  0.0578 -2.6641
19117TIP3   OH278841   4.636   4.538   3.898  0.0648 -0.1005 -0.0830
19117TIP3    H178842   4.552   4.584   3.902 -0.1406 -0.2818 -1.5397
19117TIP3    H278843   4.680   4.576   3.822  1.2288 -0.1576  0.5446
19118TIP3   OH278844   6.044   1.925  16.616 -0.2580 -0.3418 -0.2398
19118TIP3    H178845   6.050   1.894  16.525 -1.0148 -0.1721 -0.3524
19118TIP3    H278846   5.989   1.860  16.660  0.4779 -0.6697  0.2159
19119TIP3   OH278847   3.217   5.065  14.371  0.4656 -0.0392  0.8323
19119TIP3    H178848   3.145   5.030  14.424 -1.1050  0.2077 -1.0201
19119TIP3    H278849   3.243   5.145  14.415 -2.2353  1.2958  0.1998
19120TIP3   OH278850   6.405   4.257  17.330  0.0221 -0.4644  0.0248
19120TIP3    H178851   6.314   4.263  17.302 -0.3352  1.6152  1.4653
19120TIP3    H278852   6.432   4.347  17.345  2.4039 -1.0053 -0.5340
19121TIP3   OH278853   3.196   5.556  15.142  0.2093 -0.0511 -0.0048
19121TIP3    H178854   3.207   5.491  15.072 -0.1678  0.1018 -0.2075
19121TIP3    H278855   3.281   5.557  15.187  0.5140 -0.0221 -0.5687
19122TIP3   OH278856   0.344   1.289   5.168  0.0548  0.3028  0.6841
19122TIP3    H178857   0.270   1.345   5.193 -2.2937 -0.9057 -2.7668
19122TIP3    H278858   0.324   1.205   5.208  0.2907  0.3312  0.8589
19123TIP3   OH278859   6.321   2.619  13.260  0.5476  0.2043 -0.4877
19123TIP3    H178860   6.253   2.553  13.254 -0.2174  0.9836 -0.5735
19123TIP3    H278861   6.392   2.586  13.206  0.7845 -1.2466  0.6416
19124TIP3   OH278862   2.905   2.093   0.181 -0.1841 -0.5682 -0.0550
19124TIP3    H178863   2.835   2.149   0.216 -1.8350 -2.2612 -0.4854
19124TIP3    H278864   2.901   2.107   0.086  1.7088  1.1005  0.0475
19125TIP3   OH278865   3.687   1.387  17.096 -0.1836 -0.2292  0.1727
19125TIP3    H178866   3.675   1.370  17.189  0.3814 -1.7122 -0.0069
19125TIP3    H278867   3.634   1.320  17.052 -0.1454  0.2208 -0.5722
19126TIP3   OH278868   3.964   1.425  13.666  0.1659  0.2033 -0.7057
19126TIP3    H178869   3.888   1.463  13.711 -0.8968 -1.1757 -1.2454
19126TIP3    H278870   4.012   1.500  13.633  1.4775  1.4111  3.2978
19127TIP3   OH278871   6.635   1.754  11.631  0.4293  0.3061 -0.0040
19127TIP3    H178872   6.689   1.822  11.671  2.4680 -1.5959  0.6926
19127TIP3    H278873   6.644   1.768  11.537  1.0237  0.8621  0.1299
19128TIP3   OH278874   2.123   1.391  15.492  0.2944  0.1836 -0.3436
19128TIP3    H178875   2.092   1.336  15.419 -0.0146 -1.0562  0.6775
19128TIP3    H278876   2.208   1.353  15.515 -0.4030 -0.5849  1.0687
19129TIP3   OH278877   1.602   3.783  15.367  0.1282 -0.6294 -0.2520
19129TIP3    H178878   1.598   3.858  15.427 -0.3801 -0.4527 -0.5035
19129TIP3    H278879   1.517   3.781  15.324  0.6704 -0.4338 -1.3724
19130TIP3   OH278880   1.552   0.952   4.666 -0.8857  0.4439 -0.4001
19130TIP3    H178881   1.585   1.017   4.604 -1.0248 -0.4618 -1.4504
19130TIP3    H278882   1.487   0.999   4.718 -0.4434  1.3369 -0.6457
19131TIP3   OH278883   2.343   5.373  13.897 -0.0536 -0.2066 -0.1527
19131TIP3    H178884   2.299   5.437  13.953  3.3113 -0.4821  3.2216
19131TIP3    H278885   2.416   5.421  13.859  0.2294 -1.1146 -0.7976
19132TIP3   OH278886   3.638   4.073  16.068  0.6443  0.1496  0.4912
19132TIP3    H178887   3.626   3.984  16.100 -0.0726  0.3414  0.7990
19132TIP3    H278888   3.729   4.078  16.041  0.9670 -0.3778  1.4304
19133TIP3   OH278889   4.023   3.979  16.931 -0.0177 -0.0819  0.3570
19133TIP3    H178890   4.042   3.937  17.015  0.3777  0.1828  0.4000
19133TIP3    H278891   4.013   4.071  16.953  0.1639 -0.0011  0.0994
19134TIP3   OH278892   0.205   2.425  11.375  0.2744 -0.4215 -0.7640
19134TIP3    H178893   0.174   2.347  11.330 -1.9406 -0.5084  0.7657
19134TIP3    H278894   0.264   2.393  11.442 -0.5550 -0.8107 -0.2042
19135TIP3   OH278895   4.696   4.855  13.262 -0.2241 -0.0195 -0.5791
19135TIP3    H178896   4.645   4.932  13.288  1.0037  0.3361  0.9127
19135TIP3    H278897   4.723   4.873  13.172  0.1495  1.3738 -0.2129
19136TIP3   OH278898   2.485   6.277   2.071 -0.0013  0.3404  0.5168
19136TIP3    H178899   2.432   6.253   1.995  1.5850  0.6499 -0.7249
19136TIP3    H278900   2.568   6.232   2.058  0.1543  0.0058  2.3362
19137TIP3   OH278901   2.845   5.457  16.896  0.0328  0.1671 -0.2069
19137TIP3    H178902   2.902   5.382  16.911 -2.3219 -2.3104 -2.5604
19137TIP3    H278903   2.906   5.530  16.883  2.4814 -1.4498  1.1833
19138TIP3   OH278904   4.126   5.603  14.612  0.0692 -0.0943 -0.5029
19138TIP3    H178905   4.042   5.560  14.631 -0.1706  0.4182 -0.3879
19138TIP3    H278906   4.191   5.533  14.622 -0.2444 -0.2864  0.3256
19139TIP3   OH278907   2.028   1.087   3.485  0.5551  0.1276 -0.1757
19139TIP3    H178908   1.982   1.009   3.457  0.6714  0.5659 -1.6830
19139TIP3    H278909   1.980   1.159   3.444  1.4564  0.7127 -0.2368
19140TIP3   OH278910   5.538   4.846   1.382  0.2500  0.4157  0.4387
19140TIP3    H178911   5.488   4.900   1.443 -2.7303 -0.0596 -1.3718
19140TIP3    H278912   5.471   4.798   1.333  2.6365 -3.5724  0.6719
19141TIP3   OH278913   3.334   2.443   4.691  0.6556 -0.1546 -0.1544
19141TIP3    H178914   3.345   2.370   4.629  0.9680  2.0218 -2.8405
19141TIP3    H278915   3.241   2.464   4.686  1.0093  1.2412 -1.4210
19142TIP3   OH278916   5.257   0.253   1.663 -0.2464  0.1521  0.6411
19142TIP3    H178917   5.245   0.308   1.740  0.8299 -0.4788  1.2885
19142TIP3    H278918   5.344   0.277   1.630 -1.1434  1.2455 -1.0834
19143TIP3   OH278919   1.949   4.160  16.615 -0.1398  0.4156 -0.0638
19143TIP3    H178920   2.013   4.120  16.557  0.7941  0.2395  1.0596
19143TIP3    H278921   1.899   4.220  16.558 -0.1204 -0.6911 -1.2982
19144TIP3   OH278922   2.072   5.842  16.452 -0.7490  0.5528  0.0291
19144TIP3    H178923   2.006   5.790  16.407  0.4158 -0.1139 -0.9915
19144TIP3    H278924   2.136   5.864  16.383  1.9034 -1.7682  1.5460
19145TIP3   OH278925   4.977   4.843   4.527  0.1892  0.0325 -0.3477
19145TIP3    H178926   4.982   4.755   4.565  1.8532  0.0599 -0.4546
19145TIP3    H278927   4.956   4.900   4.601 -0.6121 -0.3889 -0.2296
19146TIP3   OH278928   1.358   1.828   1.395 -0.2042 -0.0169 -0.0591
19146TIP3    H178929   1.297   1.770   1.439  1.3035 -0.9373  0.9039
19146TIP3    H278930   1.403   1.772   1.332  0.3119  0.4242 -0.0855
19147TIP3   OH278931   4.365   1.042  11.263 -0.1863 -0.1701  0.7813
19147TIP3    H178932   4.388   0.989  11.340 -1.4918 -1.0770  0.5740
19147TIP3    H278933   4.449   1.058  11.220  0.7511  1.2935  2.9371
19148TIP3   OH278934   6.132   6.092  12.752 -0.3040  0.1795  0.1899
19148TIP3    H178935   6.103   6.178  12.723  1.7973  1.4474  1.5453
19148TIP3    H278936   6.056   6.053  12.795 -1.3323  1.2779 -0.5849
19149TIP3   OH278937   6.677   4.200  17.296 -0.5212  0.2139  0.4421
19149TIP3    H178938   6.589   4.200  17.260 -0.6413 -0.2556  0.7362
19149TIP3    H278939   6.670   4.155  17.380  0.5243 -2.6392 -0.8528
19150TIP3   OH278940   0.584   6.056   1.815  0.0266 -0.0584 -0.0554
19150TIP3    H178941   0.566   5.982   1.758 -0.9120  0.4044 -0.3827
19150TIP3    H278942   0.547   6.031   1.900  1.4115 -0.7413  0.3727
19151TIP3   OH278943   4.989   4.220  12.562  0.2425 -0.3053 -0.0146
19151TIP3    H178944   4.962   4.136  12.598  1.3136 -0.5858  0.1678
19151TIP3    H278945   4.972   4.213  12.468 -3.5203  0.7947  0.4365
19152TIP3   OH278946   3.082   1.857  16.387 -0.2793  0.1578  0.3531
19152TIP3    H178947   3.142   1.927  16.360 -0.3845 -0.4628 -1.6975
19152TIP3    H278948   3.082   1.861  16.482  1.2208  1.6809  0.3494
19153TIP3   OH278949   0.817   5.518  16.563  0.4922  0.4614 -0.0262
19153TIP3    H178950   0.800   5.488  16.652  1.1372 -0.2442 -0.1298
19153TIP3    H278951   0.910   5.499  16.548  0.5788  1.2432 -0.5957
19154TIP3   OH278952   1.439   0.489  11.284 -0.1190 -0.0846 -0.4804
19154TIP3    H178953   1.516   0.483  11.227  1.3203  1.1220  1.2361
19154TIP3    H278954   1.409   0.398  11.292  1.2870 -0.6258 -0.9785
19155TIP3   OH278955   0.641   4.636   4.393  0.4706 -0.5963 -0.1389
19155TIP3    H178956   0.711   4.692   4.426 -0.4923  0.5310  0.0432
19155TIP3    H278957   0.584   4.621   4.468  1.1220 -2.5493  0.0454
19156TIP3   OH278958   4.436   4.379  11.375  0.4974  0.6910  0.4321
19156TIP3    H178959   4.397   4.305  11.328  0.2494  0.5165  0.9097
19156TIP3    H278960   4.512   4.403  11.322  0.9003 -0.2596  0.5640
19157TIP3   OH278961   0.841   4.640  11.908 -0.3759  0.2892  0.2377
19157TIP3    H178962   0.785   4.562  11.907 -0.6185  0.4674 -0.3527
19157TIP3    H278963   0.929   4.607  11.895 -0.4170  0.0710  0.4890
19158TIP3   OH278964   0.199   5.726   1.823 -0.0492  0.0094 -0.4578
19158TIP3    H178965   0.192   5.790   1.752  0.5886  0.3701 -0.2060
19158TIP3    H278966   0.294   5.710   1.830 -0.2616 -2.3770 -1.7872
19159TIP3   OH278967   5.589   4.100   1.647 -0.4430 -0.0031 -0.1399
19159TIP3    H178968   5.550   4.182   1.616  1.0025  0.7392 -0.0740
19159TIP3    H278969   5.631   4.063   1.570  1.7563  1.0256  0.4963
19160TIP3   OH278970   4.153   0.443   4.081 -0.4099  0.2074  0.9127
19160TIP3    H178971   4.132   0.368   4.024  0.1875  0.9933 -0.3989
19160TIP3    H278972   4.078   0.502   4.072 -1.4379 -0.7009  2.8765
19161TIP3   OH278973   2.128   0.103   1.722  0.7891  0.1538 -0.3440
19161TIP3    H178974   2.044   0.092   1.766  1.1806 -1.6733  0.0319
19161TIP3    H278975   2.173   0.172   1.771  0.0765  0.1542  0.3245
19162TIP3   OH278976   3.225   6.521  13.974  0.3381 -0.1985 -0.8553
19162TIP3    H178977   3.305   6.509  13.924 -0.1576 -0.7908 -1.5422
19162TIP3    H278978   3.168   6.449  13.945  0.7716 -1.8975  2.0849
19163TIP3   OH278979   6.130   1.567  10.996  0.3342 -0.0242 -0.5958
19163TIP3    H178980   6.213   1.541  10.956  1.0799  0.9361  0.2644
19163TIP3    H278981   6.063   1.538  10.934  1.3406 -0.3116 -1.5804
19164TIP3   OH278982   3.926   0.888   3.578 -1.1232  0.4956  0.0834
19164TIP3    H178983   3.952   0.842   3.498  1.7578  0.3761  0.9687
19164TIP3    H278984   3.882   0.967   3.547 -3.6870 -1.3923 -1.4980
19165TIP3   OH278985   2.170   3.545  15.841  1.0507 -0.0619 -0.8563
19165TIP3    H178986   2.191   3.560  15.933 -1.0184  2.9985 -0.7183
19165TIP3    H278987   2.249   3.572  15.794  1.3149  0.6533 -0.0361
19166TIP3   OH278988   0.744   1.265  12.170 -0.1695 -0.5828 -0.1218
19166TIP3    H178989   0.697   1.245  12.089  1.5235 -0.4003 -1.2104
19166TIP3    H278990   0.784   1.351  12.154  0.1109 -0.5050  0.9415
19167TIP3   OH278991   3.951   1.998  13.111 -0.0631  0.1858  0.4966
19167TIP3    H178992   3.903   1.918  13.090  3.4575 -2.0938  0.1252
19167TIP3    H278993   3.975   1.987  13.203 -2.2904  2.5522  1.4649
19168TIP3   OH278994   6.745   5.821   4.045 -0.3888 -0.0706  0.5657
19168TIP3    H178995   6.701   5.854   4.124  0.8194  0.7560  0.9300
19168TIP3    H278996   6.706   5.871   3.973 -1.2096 -0.5354  0.6749
19169TIP3   OH278997   0.780   1.274   3.523  0.1797  0.0188 -0.1270
19169TIP3    H178998   0.766   1.368   3.518  2.7137  0.7336  2.6533
19169TIP3    H278999   0.739   1.248   3.606 -0.2315 -1.2902 -0.7116
19170TIP3   OH279000   5.261   2.014   3.487  0.1576  0.0722  0.7217
19170TIP3    H179001   5.240   2.088   3.544 -0.3863  0.8991 -0.4954
19170TIP3    H279002   5.213   1.940   3.524  0.8053  0.2862  2.0286
19171TIP3   OH279003   5.600   1.614   5.157  0.0916 -0.4037 -0.4419
19171TIP3    H179004   5.634   1.605   5.246  0.0766 -0.5336 -0.4483
19171TIP3    H279005   5.626   1.533   5.114  0.8207  0.0107 -0.8030
19172TIP3   OH279006   6.544   4.353  12.115 -1.0397 -0.3205 -0.5159
19172TIP3    H179007   6.529   4.368  12.209  2.9751 -0.3296  0.2997
19172TIP3    H279008   6.629   4.309  12.111 -0.7208  0.3379 -4.2316
19173TIP3   OH279009   3.312   0.978  16.060 -0.4569 -0.1170  0.0152
19173TIP3    H179010   3.303   0.954  16.152  0.3334 -1.5934 -0.2526
19173TIP3    H279011   3.222   0.978  16.026 -0.6722 -0.4390  0.5739
19174TIP3   OH279012   2.347   0.913  16.663  0.6664  0.4723  0.0872
19174TIP3    H179013   2.317   0.923  16.573  0.5845 -1.3967 -0.1305
19174TIP3    H279014   2.427   0.860  16.657 -0.0354 -0.7840  1.1650
19175TIP3   OH279015   2.351   4.534  12.061 -0.4445  1.0543 -0.6375
19175TIP3    H179016   2.345   4.535  11.965  2.0045  2.0444 -0.8365
19175TIP3    H279017   2.436   4.572  12.080  1.3546 -3.4704  1.7676
19176TIP3   OH279018   5.606   2.070   3.416 -0.4632 -0.0583  0.7563
19176TIP3    H179019   5.516   2.041   3.427 -0.2747 -0.8962  0.1642
19176TIP3    H279020   5.616   2.142   3.479 -2.3232  1.8242 -0.9101
19177TIP3   OH279021   4.682   2.389   1.140  0.4196  0.4924  0.4614
19177TIP3    H179022   4.754   2.330   1.120  1.3612  1.5287  0.7075
19177TIP3    H279023   4.635   2.347   1.212 -0.0723 -0.8674 -0.6193
19178TIP3   OH279024   5.923   4.206  11.527 -0.3878  0.2460  0.2816
19178TIP3    H179025   5.915   4.295  11.560 -0.2468 -0.4359  2.2768
19178TIP3    H279026   5.832   4.178  11.511 -0.4677  0.5628  0.1790
19179TIP3   OH279027   3.151   3.387  13.007  0.0421  0.4631 -0.1912
19179TIP3    H179028   3.104   3.464  13.039 -1.1489 -0.7903  1.2476
19179TIP3    H279029   3.167   3.405  12.915 -0.8314  2.1143 -0.0584
19180TIP3   OH279030   5.445   0.414  15.670  0.4544  0.3770 -0.7064
19180TIP3    H179031   5.484   0.394  15.585  0.1328 -0.1837 -0.7266
19180TIP3    H279032   5.394   0.336  15.692  2.0253 -0.2438  0.8916
19181TIP3   OH279033   3.766   0.262   0.991  0.0650  0.5711  0.3148
19181TIP3    H179034   3.774   0.318   1.068  0.9685 -0.8528  1.3142
19181TIP3    H279035   3.851   0.219   0.984 -0.9089 -1.5230  0.3185
19182TIP3   OH279036   4.490   2.775   4.800  0.1011 -0.3505 -0.4883
19182TIP3    H179037   4.544   2.853   4.809  0.2107 -0.6272  1.6899
19182TIP3    H279038   4.465   2.774   4.708 -0.4353  2.6031 -0.4677
19183TIP3   OH279039   4.321   0.612  13.190  0.1315  0.1877  0.1803
19183TIP3    H179040   4.378   0.538  13.211  0.3285  0.4718  0.6680
19183TIP3    H279041   4.300   0.601  13.097 -3.0401 -2.6725  1.0321
19184TIP3   OH279042   1.970   0.139  13.767  0.4628 -0.3963  0.1768
19184TIP3    H179043   1.956   0.047  13.746 -0.1819 -0.3020  0.1532
19184TIP3    H279044   1.895   0.184  13.727  0.0883 -0.0234  1.2493
19185TIP3   OH279045   1.247   0.002  14.059  0.2506  0.0253 -0.2210
19185TIP3    H179046   1.325  -0.016  14.007  0.7650 -1.6594  1.0620
19185TIP3    H279047   1.275   0.069  14.122  0.1752  0.6374 -0.8331
19186TIP3   OH279048   5.822   4.103  14.984 -0.1123 -0.6734 -0.4568
19186TIP3    H179049   5.863   4.028  14.943  3.4984  0.6064  0.4769
19186TIP3    H279050   5.761   4.065  15.048  3.1585 -2.9972  1.5459
19187TIP3   OH279051   2.774   2.362  14.004 -0.0105  0.0334 -0.3027
19187TIP3    H179052   2.718   2.439  13.993  0.7460  0.5039 -0.9711
19187TIP3    H279053   2.733   2.294  13.950 -0.3425  0.1434 -0.1901
19188TIP3   OH279054   0.607   3.016   5.632  0.1861  0.1316 -0.2142
19188TIP3    H179055   0.662   3.029   5.710 -0.3348  1.2032 -0.0067
19188TIP3    H279056   0.623   3.094   5.579 -0.3554 -0.0391 -0.6315
19189TIP3   OH279057   4.213   3.252   6.265  0.1013 -0.1511 -0.4877
19189TIP3    H179058   4.302   3.238   6.232  0.3070 -0.1417  0.0422
19189TIP3    H279059   4.211   3.203   6.348  1.1830  3.5920  2.0065
19190TIP3   OH279060   5.634   0.985   0.078  0.2302 -0.6693 -0.5918
19190TIP3    H179061   5.684   1.064   0.099 -0.4349 -0.0398 -1.3328
19190TIP3    H279062   5.593   0.959   0.161  1.3328 -0.8883 -0.0965
19191TIP3   OH279063   5.043   3.881  14.670 -0.5610  0.4558  0.0890
19191TIP3    H179064   5.009   3.834  14.747 -1.8706  0.6428 -0.3552
19191TIP3    H279065   5.127   3.916  14.699 -0.0987 -1.1616  0.7991
19192TIP3   OH279066   6.714   1.864  16.552 -0.0353 -0.3534 -0.3662
19192TIP3    H179067   6.807   1.849  16.532 -0.1740  0.6596 -1.9732
19192TIP3    H279068   6.703   1.829  16.640  1.9264 -0.3381 -0.0522
19193TIP3   OH279069   5.736   5.033  16.148  0.0751  0.2959  0.2288
19193TIP3    H179070   5.816   5.021  16.096  0.2062 -0.5332  0.6168
19193TIP3    H279071   5.665   5.020  16.086  0.2306 -0.7296  0.2592
19194TIP3   OH279072   0.482   6.608  14.905  0.4302 -0.4657 -0.2102
19194TIP3    H179073   0.506   6.672  14.838  0.2567 -0.1117  0.0639
19194TIP3    H279074   0.392   6.630  14.928  0.5612 -0.4503  0.2974
19195TIP3   OH279075   6.426   2.385  12.065  0.7025  0.1551  1.0151
19195TIP3    H179076   6.477   2.419  12.139  1.5284 -1.9906  1.5190
19195TIP3    H279077   6.385   2.306  12.098 -1.6206  0.8817  0.0797
19196TIP3   OH279078   3.524   1.959  11.537 -0.4179 -0.8092  0.2524
19196TIP3    H179079   3.468   1.972  11.460 -0.7413  0.4231  0.6606
19196TIP3    H279080   3.493   1.877  11.576 -1.6097 -0.4104  0.1802
19197TIP3   OH279081   4.569   3.231   4.004 -0.1693  0.1286  0.0200
19197TIP3    H179082   4.484   3.193   3.985  0.3883 -0.8380 -0.5985
19197TIP3    H279083   4.632   3.170   3.967  0.8005  0.8515  0.4246
19198TIP3   OH279084   6.160   5.644  12.526 -0.4441  0.3457 -0.0564
19198TIP3    H179085   6.178   5.719  12.469  0.2271  0.4856  0.3295
19198TIP3    H279086   6.132   5.683  12.609  2.8417  0.3291  1.2076
19199TIP3   OH279087   3.769   6.705  11.951 -0.5324 -0.0320 -0.0653
19199TIP3    H179088   3.807   6.790  11.974 -0.2985 -0.3609  0.8145
19199TIP3    H279089   3.690   6.699  12.004 -0.3802 -0.4961  0.1124
19200TIP3   OH279090   5.429   2.561  16.182  0.1724  0.6955 -0.5694
19200TIP3    H179091   5.385   2.492  16.232  1.0057 -0.1586 -0.9671
19200TIP3    H279092   5.474   2.614  16.247 -0.6107  0.9774 -0.2448
19201TIP3   OH279093   6.739   0.984   3.624  0.5435  0.1105  0.0062
19201TIP3    H179094   6.693   1.041   3.563  0.2891 -0.4465 -0.3303
19201TIP3    H279095   6.809   1.039   3.661 -0.5918  1.0821  0.8035
19202TIP3   OH279096   1.827   6.525   4.600 -0.0327 -0.3063  0.0461
19202TIP3    H179097   1.748   6.548   4.552 -2.1517 -1.3895  2.6965
19202TIP3    H279098   1.854   6.607   4.642 -2.0128 -0.5150  1.9746
19203TIP3   OH279099   6.120   4.850  11.650 -0.6667 -0.0517  0.9425
19203TIP3    H179100   6.141   4.943  11.647  0.3828 -0.2871 -0.5216
19203TIP3    H279101   6.188   4.812  11.706 -0.3632 -0.0991  0.5429
19204TIP3   OH279102   6.458   6.025  15.904  0.3161 -0.0409 -0.1111
19204TIP3    H179103   6.471   5.943  15.855  0.8120  0.6526 -1.1989
19204TIP3    H279104   6.364   6.027  15.923 -0.0221 -0.0551 -1.6126
19205TIP3   OH279105   3.030   5.190   1.446  0.3369 -0.0681 -0.8009
19205TIP3    H179106   3.055   5.221   1.533  0.6091 -0.1740 -0.8442
19205TIP3    H279107   3.027   5.270   1.393  1.9032 -0.2065 -1.1320
19206TIP3   OH279108   2.300   1.552   5.340  0.0504  0.4915  0.2349
19206TIP3    H179109   2.339   1.465   5.346 -0.3053  0.2521 -0.8035
19206TIP3    H279110   2.249   1.560   5.420  0.6469  0.0279  0.6748
19207TIP3   OH279111   5.379   1.149  13.400  0.5785  1.0121 -0.3301
19207TIP3    H179112   5.329   1.068  13.408 -0.2204  1.3075 -2.0071
19207TIP3    H279113   5.318   1.218  13.426  0.8614  1.1866 -0.1205
19208TIP3   OH279114   4.443   5.865   1.588  0.5954 -0.1241  0.4291
19208TIP3    H179115   4.465   5.821   1.505 -0.4090  1.5198 -0.7783
19208TIP3    H279116   4.415   5.794   1.646  1.3809 -1.3369 -0.5990
19209TIP3   OH279117   4.151   3.353  14.377 -0.3949  0.1455  0.0655
19209TIP3    H179118   4.099   3.433  14.375 -0.3468  0.2239  1.3063
19209TIP3    H279119   4.189   3.348  14.289  0.6245  2.1726  0.3199
19210TIP3   OH279120   6.783   0.450  13.262 -0.6634 -0.3078 -0.4080
19210TIP3    H179121   6.760   0.376  13.204 -0.2478 -1.1763  0.5017
19210TIP3    H279122   6.719   0.444  13.333 -1.2842  0.8649 -0.8535
19211TIP3   OH279123   3.801   3.591  12.257  0.0126 -0.1538  0.3843
19211TIP3    H179124   3.874   3.529  12.264 -0.0122 -0.5911 -2.4063
19211TIP3    H279125   3.828   3.664  12.313  2.2326 -0.6386  0.0644
19212TIP3   OH279126   2.079   1.273  12.133 -0.6948  0.0046  0.6205
19212TIP3    H179127   2.081   1.182  12.102 -1.7388  0.3962 -0.7132
19212TIP3    H279128   1.995   1.307  12.101 -1.7448  0.5855  3.7110
19213TIP3   OH279129   5.325   4.847  14.523  0.0913  0.3482 -0.5696
19213TIP3    H179130   5.317   4.828  14.430 -3.4992 -0.1833 -0.2928
19213TIP3    H279131   5.272   4.926  14.536  1.2022  0.8913  0.9082
19214TIP3   OH279132   0.172   4.764  11.150 -0.0244  0.2031  0.0833
19214TIP3    H179133   0.252   4.734  11.193  0.0667  0.7069  0.2710
19214TIP3    H279134   0.111   4.691  11.157 -0.4386  0.6949  2.1727
19215TIP3   OH279135   2.726   6.454   4.029  0.2907 -0.1885  0.1489
19215TIP3    H179136   2.799   6.426   4.084  1.3639 -0.5272 -1.4038
19215TIP3    H279137   2.671   6.376   4.022  1.7499 -1.1277 -1.7330
19216TIP3   OH279138   3.909   5.999   0.859  0.4345 -0.3188 -0.2570
19216TIP3    H179139   3.948   6.074   0.904  1.5866 -1.0441 -0.0040
19216TIP3    H279140   3.946   5.923   0.903 -2.7839 -1.1536  1.3373
19217TIP3   OH279141   4.358   2.851  14.056 -1.0536 -0.4256  0.4400
19217TIP3    H179142   4.289   2.834  13.991 -1.9747 -1.1946  1.5676
19217TIP3    H279143   4.402   2.930  14.024 -1.7265 -0.5527 -0.8988
19218TIP3   OH279144   0.351   3.430  12.048  0.3570 -0.4060  0.0544
19218TIP3    H179145   0.265   3.447  12.089  0.2328  0.9113 -0.7030
19218TIP3    H279146   0.354   3.489  11.973  2.1138 -0.1132  0.3140
19219TIP3   OH279147   6.492   4.039   3.704  0.4212 -0.3359  0.1986
19219TIP3    H179148   6.427   3.999   3.761  0.4324 -1.5579 -0.6063
19219TIP3    H279149   6.481   3.995   3.619  1.4279  0.3345 -0.3106
19220TIP3   OH279150   2.576   3.479  16.599  0.4351 -0.0810 -0.0510
19220TIP3    H179151   2.483   3.502  16.603  0.7303  1.0694  0.8516
19220TIP3    H279152   2.583   3.399  16.652  0.3442  1.3301  2.2563
19221TIP3   OH279153   1.832   1.609  16.289 -0.9905 -0.4097  0.4470
19221TIP3    H179154   1.749   1.657  16.287 -0.6948  0.1363 -1.3007
19221TIP3    H279155   1.898   1.675  16.264 -0.2381 -1.1604  0.4016
19222TIP3   OH279156   0.654   4.577  11.264 -1.0057  0.0900 -0.1169
19222TIP3    H179157   0.589   4.554  11.199 -1.2793  1.3105 -0.3070
19222TIP3    H279158   0.724   4.621  11.215 -0.4361 -0.4512  0.1936
19223TIP3   OH279159   6.597   5.375   5.139 -0.4844  0.1418 -0.3659
19223TIP3    H179160   6.652   5.354   5.063 -1.4229  0.0923 -1.0540
19223TIP3    H279161   6.546   5.451   5.111 -1.2599 -0.2347 -0.0129
19224TIP3   OH279162   5.760   6.138   2.203  0.1682 -0.0501  0.7579
19224TIP3    H179163   5.809   6.147   2.121 -0.7685 -3.2627 -0.3018
19224TIP3    H279164   5.671   6.163   2.181 -0.4584 -2.4877  0.2239
19225TIP3   OH279165   0.187   1.576  13.904 -0.3787 -0.0769  0.3805
19225TIP3    H179166   0.254   1.602  13.840 -0.2571  0.7264  0.8234
19225TIP3    H279167   0.194   1.641  13.974 -1.2924 -0.2739  0.6686
19226TIP3   OH279168   6.054   4.617   6.386  0.3943 -0.4123  0.2234
19226TIP3    H179169   6.024   4.686   6.327  0.9386 -0.5061 -0.1677
19226TIP3    H279170   6.129   4.578   6.342  3.0640  1.7608  2.4590
19227TIP3   OH279171   2.943   1.048   3.400 -0.2065  0.0942  0.4491
19227TIP3    H179172   2.848   1.039   3.405 -0.2100 -0.2828 -0.2039
19227TIP3    H279173   2.962   1.059   3.307  0.6536 -3.2406  0.1052
19228TIP3   OH279174   5.804   6.171   1.669 -0.1794  0.9454 -0.6530
19228TIP3    H179175   5.885   6.164   1.618  0.7325  1.1102  0.7242
19228TIP3    H279176   5.742   6.113   1.623  0.9764  0.1048 -1.2180
19229TIP3   OH279177   6.554   4.650   2.551 -0.2751  0.2405  0.0488
19229TIP3    H179178   6.563   4.652   2.456  0.0100 -0.2915  0.0622
19229TIP3    H279179   6.479   4.593   2.567  0.4167 -0.6601  0.1805
19230TIP3   OH279180   5.531   2.851  11.777 -0.3133  0.0801  0.4208
19230TIP3    H179181   5.511   2.920  11.714 -1.1556 -0.4512  0.0959
19230TIP3    H279182   5.614   2.879  11.817 -0.6305  1.2738  0.2969
19231TIP3   OH279183   6.161   3.558  11.831  0.4646  0.2904  0.1318
19231TIP3    H179184   6.257   3.556  11.826  0.4428 -0.6196  0.0252
19231TIP3    H279185   6.143   3.594  11.918  0.9028  0.1620  0.2782
19232TIP3   OH279186   3.687   6.086  14.105  0.5773 -0.2543 -0.0804
19232TIP3    H179187   3.725   6.094  14.192 -0.3891 -0.5140  0.3756
19232TIP3    H279188   3.664   5.994  14.097 -0.8640  0.0667  0.0592
19233TIP3   OH279189   5.349   1.670  11.504  0.4621  0.1792  0.3323
19233TIP3    H179190   5.389   1.755  11.525 -0.7922  1.0843 -0.7463
19233TIP3    H279191   5.383   1.649  11.417  2.2054 -1.3699  1.3356
19234TIP3   OH279192   1.908   0.552  13.586  0.5110  0.4416  0.2411
19234TIP3    H179193   1.816   0.543  13.611  0.1601  0.1465 -1.0933
19234TIP3    H279194   1.956   0.533  13.667 -0.6107  2.1152  1.3772
19235TIP3   OH279195   3.259   3.227   3.429 -0.2802  0.6484 -0.1033
19235TIP3    H179196   3.232   3.222   3.337  2.8793 -0.0292 -1.0936
19235TIP3    H279197   3.290   3.317   3.440 -0.2433  0.6010  0.1852
19236TIP3   OH279198   3.133   4.769   0.023 -0.0397 -0.0683 -0.1242
19236TIP3    H179199   3.085   4.773  -0.060  1.3347 -2.7111 -1.1930
19236TIP3    H279200   3.223   4.793   0.000  0.2381 -0.2890  0.7054
19237TIP3   OH279201   6.281   1.410  13.486  0.1520  0.1842  0.9896
19237TIP3    H179202   6.206   1.456  13.448 -0.4663 -1.1483  0.5183
19237TIP3    H279203   6.326   1.476  13.539 -0.1741  1.5414 -0.3651
19238TIP3   OH279204   2.321   6.218  12.082 -0.6876  0.5825  0.0164
19238TIP3    H179205   2.335   6.194  11.991  0.8056  2.2187 -0.2255
19238TIP3    H279206   2.312   6.134  12.128 -1.2138 -0.2656 -1.5591
19239TIP3   OH279207   4.934   6.531   5.664 -0.6628 -0.0305  0.3105
19239TIP3    H179208   4.905   6.516   5.754 -1.1472 -2.8475 -0.2246
19239TIP3    H279209   5.028   6.513   5.666 -0.8075 -0.8556  0.1416
19240TIP3   OH279210   6.728   4.642   4.155  0.7686 -0.2265  0.0509
19240TIP3    H179211   6.743   4.733   4.180 -0.1895 -0.3697  1.2648
19240TIP3    H279212   6.758   4.636   4.064 -0.0474  1.5392 -0.3790
19241TIP3   OH279213   3.987   3.354  12.001  0.1038  0.4388 -0.1238
19241TIP3    H179214   4.064   3.411  12.004  2.0212 -1.9820  0.0554
19241TIP3    H279215   3.959   3.347  12.092 -1.1906  2.2780 -0.3123
19242TIP3   OH279216   5.395   1.764   3.332  0.1901  0.4123  0.2867
19242TIP3    H179217   5.456   1.837   3.343  1.0475 -0.2735  0.1843
19242TIP3    H279218   5.376   1.734   3.421  1.7972 -0.7987  0.2795
19243TIP3   OH279219   2.094   4.776  10.584  0.8639  0.1016  0.0764
19243TIP3    H179220   1.998   4.769  10.582  0.7442  1.0696  0.9873
19243TIP3    H279221   2.125   4.694  10.548 -0.3216 -0.3302 -0.0109
19244TIP3   OH279222   2.365   0.367  14.741  0.5116 -0.6571  0.0257
19244TIP3    H179223   2.299   0.338  14.804 -1.3656  2.3184 -0.3518
19244TIP3    H279224   2.407   0.443  14.783  2.0649 -1.0529 -0.7299
19245TIP3   OH279225   1.498   2.993   3.887  0.3602  0.3102  0.1501
19245TIP3    H179226   1.491   3.003   3.792 -1.5784  0.7593  0.3077
19245TIP3    H279227   1.509   3.083   3.920  2.0863  0.0799  0.3267
19246TIP3   OH279228   6.370   5.027  12.129  0.6478  0.2463  0.2455
19246TIP3    H179229   6.403   4.972  12.059 -0.4013 -0.1657  0.0551
19246TIP3    H279230   6.367   4.970  12.206  1.5122  0.6156  0.5688
19247TIP3   OH279231   3.615   5.372   0.595 -0.3195 -0.0292  0.0354
19247TIP3    H179232   3.681   5.303   0.602 -0.4391 -0.2018 -0.5281
19247TIP3    H279233   3.638   5.434   0.664 -0.1443 -0.5774  0.4816
19248TIP3   OH279234   3.695   3.406   3.274  0.9466  0.2521 -0.5344
19248TIP3    H179235   3.644   3.453   3.208  0.7591 -1.2241 -1.5080
19248TIP3    H279236   3.781   3.446   3.271  1.1995 -0.3371 -2.3522
19249TIP3   OH279237   5.257   1.571  15.635  0.0745 -0.3989  0.6046
19249TIP3    H179238   5.212   1.499  15.678  1.7200 -2.4037 -0.8367
19249TIP3    H279239   5.218   1.576  15.548  2.1155 -1.8306 -0.4780
19250TIP3   OH279240   2.607   0.578   6.290 -0.0293 -0.2508 -0.1151
19250TIP3    H179241   2.619   0.609   6.379  0.5635 -1.9202  0.4348
19250TIP3    H279242   2.694   0.583   6.251 -0.6096  2.2962 -1.3019
19251TIP3   OH279243   5.685   3.126   6.715  0.3420 -1.0453  0.0703
19251TIP3    H179244   5.621   3.072   6.669 -0.0560 -3.2059  2.8943
19251TIP3    H279245   5.645   3.212   6.719 -0.9660 -1.5728 -0.8627
19252TIP3   OH279246   0.726   1.177  13.960 -0.3251 -0.0237 -0.0190
19252TIP3    H179247   0.810   1.133  13.972 -0.6401 -0.7306 -0.3447
19252TIP3    H279248   0.662   1.115  13.994 -0.7259  0.4799  0.1564
19253TIP3   OH279249   3.795   3.267   3.799  0.3616 -0.1442  0.1924
19253TIP3    H179250   3.723   3.303   3.850  0.6740  0.2747  0.3487
19253TIP3    H279251   3.769   3.280   3.708  0.8687  1.3637  0.2263
19254TIP3   OH279252   2.571   5.071   5.824  0.1560 -0.2365 -0.4221
19254TIP3    H179253   2.483   5.038   5.838  0.2456  0.2798  1.6814
19254TIP3    H279254   2.629   4.997   5.842  0.2366  0.2168  1.3811
19255TIP3   OH279255   4.161   4.483   2.360 -0.7093  0.4304 -0.8862
19255TIP3    H179256   4.095   4.476   2.429 -1.0119 -0.4031 -1.2574
19255TIP3    H279257   4.236   4.523   2.404 -1.0568  0.3336 -0.1847
19256TIP3   OH279258   0.300   6.683  15.803 -0.3694  0.2434 -0.9160
19256TIP3    H179259   0.220   6.677  15.751 -0.7236  1.2908 -0.5125
19256TIP3    H279260   0.307   6.775  15.827 -0.9643 -0.3891  2.0386
19257TIP3   OH279261   1.522   4.857  13.690  0.2592 -0.1856  0.1962
19257TIP3    H179262   1.549   4.897  13.773  0.7618 -0.9534  0.4179
19257TIP3    H279263   1.600   4.860  13.635 -0.6168  2.2731 -1.0886
19258TIP3   OH279264   2.953   4.568   5.408  0.1883  0.1201  0.1825
19258TIP3    H179265   3.027   4.513   5.381 -0.8652 -1.1809 -0.1468
19258TIP3    H279266   2.963   4.648   5.355  2.1166  0.5903  1.1539
19259TIP3   OH279267   5.294   1.914  12.127 -0.3908  0.3530  0.4646
19259TIP3    H179268   5.295   1.859  12.048  0.7002  0.5108  0.3618
19259TIP3    H279269   5.201   1.931  12.143 -0.6119  0.5737 -0.9644
19260TIP3   OH279270   1.579   5.887   2.397  0.5110 -0.0342  0.4031
19260TIP3    H179271   1.540   5.927   2.474  0.7151 -0.3934  0.6988
19260TIP3    H279272   1.543   5.798   2.395  1.7046 -0.5532  0.9875
19261TIP3   OH279273   6.789   4.956  13.604 -0.2040 -0.0309  0.5835
19261TIP3    H179274   6.878   4.922  13.595 -0.6750 -1.5813  1.5618
19261TIP3    H279275   6.770   4.950  13.697 -1.8715 -1.1372  0.2057
19262TIP3   OH279276   2.459   2.347   3.402 -0.5027 -0.5093  0.0662
19262TIP3    H179277   2.436   2.354   3.309  1.4526  0.7948 -0.3699
19262TIP3    H279278   2.446   2.435   3.436  0.1666 -0.6447  0.6804
19263TIP3   OH279279   5.782   5.423  16.946  0.5094 -0.1922 -0.0756
19263TIP3    H179280   5.815   5.336  16.921  2.1836  0.3002  0.2813
19263TIP3    H279281   5.733   5.408  17.027 -1.9410 -1.2509 -1.6369
19264TIP3   OH279282   2.924   1.617  11.463  0.0184  0.1052 -0.8755
19264TIP3    H179283   2.872   1.551  11.417  0.4764  0.1753 -1.5105
19264TIP3    H279284   2.860   1.679  11.498 -0.3763 -0.3473 -0.7982
19265TIP3   OH279285   2.135   1.060  14.269 -0.1911  0.3738  0.5107
19265TIP3    H179286   2.147   1.120  14.342  0.3533  1.4699 -0.4502
19265TIP3    H279287   2.176   0.979  14.297  0.7346  1.0365  1.1125
19266TIP3   OH279288   1.844   3.399  14.524  0.1684 -0.5310  0.1606
19266TIP3    H179289   1.847   3.386  14.429 -2.4521  1.9358 -0.4062
19266TIP3    H279290   1.757   3.367  14.549 -1.0545  2.8097  0.8142
19267TIP3   OH279291   5.279   3.427  15.080 -0.3281  1.0146 -0.3673
19267TIP3    H179292   5.356   3.379  15.110 -1.0690 -0.8423 -1.2664
19267TIP3    H279293   5.245   3.469  15.159 -0.1222 -0.6957  0.6777
19268TIP3   OH279294   5.544   3.991  16.520 -0.9528  0.1072  0.0794
19268TIP3    H179295   5.619   3.955  16.473 -2.8119  1.1792 -4.0967
19268TIP3    H279296   5.548   4.085  16.502 -2.8622  0.2876  0.4328
19269TIP3   OH279297   1.671   4.158  15.469  0.7650 -0.1762 -0.0221
19269TIP3    H179298   1.735   4.132  15.535  0.7079 -0.9602 -0.2624
19269TIP3    H279299   1.715   4.226  15.418  1.9335 -1.5902 -0.9989
19270TIP3   OH279300   3.307   6.749   5.585 -0.4586 -0.7109 -0.4381
19270TIP3    H179301   3.278   6.839   5.570  0.8686  0.0971  1.3759
19270TIP3    H279302   3.352   6.724   5.504  2.0564  1.5459  0.1227
19271TIP3   OH279303   4.993   5.154   5.899 -0.3345 -0.4751 -0.0276
19271TIP3    H179304   5.043   5.200   5.832 -0.2760 -0.1949  0.2060
19271TIP3    H279305   5.006   5.206   5.978  1.0480 -1.7666  0.6305
19272TIP3   OH279306   5.461   1.926  13.636 -0.0156 -0.0665  0.3666
19272TIP3    H179307   5.391   1.984  13.608 -2.1858 -2.9029 -0.5026
19272TIP3    H279308   5.521   1.922  13.561  0.5577  1.4530  0.6897
19273TIP3   OH279309   2.156   2.990   2.353 -0.2551  0.5075  0.1207
19273TIP3    H179310   2.240   2.951   2.379 -0.2710  1.1520  1.2046
19273TIP3    H279311   2.110   3.004   2.436 -1.3246  0.4177 -0.4443
19274TIP3   OH279312   6.524   6.586  17.205  0.2543 -0.4137 -0.3958
19274TIP3    H179313   6.506   6.669  17.249 -0.7870  0.0447 -1.6310
19274TIP3    H279314   6.477   6.592  17.122  1.2694 -1.6985 -1.0982
19275TIP3   OH279315   6.334   2.094  13.851 -0.0407 -0.1118  0.0108
19275TIP3    H179316   6.264   2.141  13.898  0.0928  1.6599 -1.4444
19275TIP3    H279317   6.412   2.108  13.905 -0.4541 -0.5913  0.7443
19276TIP3   OH279318   6.254   5.820   5.538  0.5063  0.8422  0.2918
19276TIP3    H179319   6.171   5.866   5.522 -1.7655 -2.7414  0.5308
19276TIP3    H279320   6.246   5.789   5.629  1.5067 -0.6272 -0.0909
19277TIP3   OH279321   6.633   0.889  12.758  0.4024 -0.0857  0.0270
19277TIP3    H179322   6.614   0.865  12.848 -1.0225 -1.4374 -0.5837
19277TIP3    H279323   6.661   0.808  12.716  1.1822  0.5481 -0.7266
19278TIP3   OH279324   4.395   5.360  16.502 -0.5893  0.2733  0.2585
19278TIP3    H179325   4.453   5.411  16.445 -1.6904 -0.2637 -1.4009
19278TIP3    H279326   4.323   5.419  16.522 -1.4573 -0.3075 -1.0024
19279TIP3   OH279327   3.913   0.788   2.604 -0.2390 -0.3722 -0.0574
19279TIP3    H179328   3.895   0.696   2.621  2.4866 -1.1608 -0.8539
19279TIP3    H279329   3.905   0.831   2.690 -1.0631 -1.4349  0.4129
19280TIP3   OH279330   2.445   3.012   2.264 -0.5233  0.1643 -0.5090
19280TIP3    H179331   2.450   2.920   2.238  0.4913  0.0193  0.1575
19280TIP3    H279332   2.481   3.060   2.190 -0.6240 -0.0066 -0.6709
19281TIP3   OH279333   4.621   1.600   4.338 -0.0215  0.2701 -0.2561
19281TIP3    H179334   4.710   1.566   4.327 -0.6266 -1.4881 -0.1203
19281TIP3    H279335   4.602   1.586   4.431 -0.3695  0.8011 -0.2483
19282TIP3   OH279336   2.777   4.585  16.501 -0.3692  0.0421 -0.6757
19282TIP3    H179337   2.864   4.552  16.483 -0.5633 -2.2054  1.8535
19282TIP3    H279338   2.746   4.620  16.417  3.3974  2.2521 -1.3480
19283TIP3   OH279339   3.188   6.163  12.515  0.4091  0.5227  0.0610
19283TIP3    H179340   3.172   6.091  12.576  0.0945  0.8086  0.3207
19283TIP3    H279341   3.283   6.164  12.504  0.3062 -1.1033 -1.3898
19284TIP3   OH279342   3.293   2.378   2.521 -0.2106  0.5372 -0.1442
19284TIP3    H179343   3.371   2.374   2.466 -0.1316  0.0325  0.0001
19284TIP3    H279344   3.288   2.470   2.549 -0.3446  0.8264 -1.1098
19285TIP3   OH279345   3.585   1.812  10.900 -0.0116  0.0419 -0.2438
19285TIP3    H179346   3.628   1.858  10.971 -0.8244 -0.1907  0.4091
19285TIP3    H279347   3.543   1.881  10.848 -2.7270 -0.0095  1.7171
19286TIP3   OH279348   2.034   5.253   5.794  0.8070  0.3654 -0.3104
19286TIP3    H179349   2.068   5.340   5.774 -2.4884  1.8314 -0.1837
19286TIP3    H279350   2.048   5.243   5.888  1.3294  0.6783 -0.3500
19287TIP3   OH279351   3.242   6.790  14.065  0.3119  0.4138  0.3302
19287TIP3    H179352   3.322   6.830  14.031  0.6884 -0.5640  0.0034
19287TIP3    H279353   3.247   6.699  14.036  0.0413 -0.1678  1.9840
19288TIP3   OH279354   3.076   1.741   0.141 -0.2546 -0.6460  0.6811
19288TIP3    H179355   3.134   1.816   0.129 -1.1607 -0.0061  0.2026
19288TIP3    H279356   2.992   1.779   0.168 -0.4337 -1.5619  1.4634
19289TIP3   OH279357   3.345   3.967  14.163 -0.2435  0.0187 -0.5953
19289TIP3    H179358   3.339   3.950  14.070 -1.5322  0.1147 -0.5421
19289TIP3    H279359   3.406   3.901  14.196  1.0336  0.6347 -1.6472
19290TIP3   OH279360   0.474   0.973  13.762  0.1575  0.1458 -0.4363
19290TIP3    H179361   0.430   0.890  13.777 -0.0621 -0.0619 -2.1359
19290TIP3    H279362   0.554   0.950  13.715  0.3280  0.8513 -0.5044
19291TIP3   OH279363   0.658   3.836   1.658  0.6057  0.3972 -0.2508
19291TIP3    H179364   0.580   3.804   1.704  0.8718 -0.6929 -0.5375
19291TIP3    H279365   0.706   3.886   1.724 -0.8230  1.9574 -0.3297
19292TIP3   OH279366   6.734   0.624  17.321  0.1007 -0.6527 -0.5281
19292TIP3    H179367   6.752   0.597  17.411 -0.7630 -0.5345 -0.3099
19292TIP3    H279368   6.818   0.655  17.288  0.2590  0.1044  0.5304
19293TIP3   OH279369   3.237   4.828  16.958  0.2722 -0.3607  0.3537
19293TIP3    H179370   3.282   4.828  17.043  1.3336  3.1250 -0.0413
19293TIP3    H279371   3.308   4.817  16.895 -0.2661 -0.9742 -0.1499
19294TIP3   OH279372   3.089   1.632   2.622 -0.5364 -0.4408 -0.0632
19294TIP3    H179373   3.089   1.561   2.557 -1.4450  0.3224 -0.9289
19294TIP3    H279374   3.152   1.696   2.587 -1.3019  0.1409 -0.4124
19295TIP3   OH279375   5.319   5.062  11.965  0.1362 -0.0383  0.0689
19295TIP3    H179376   5.249   5.122  11.989 -1.0993 -1.6740  0.6975
19295TIP3    H279377   5.394   5.091  12.018 -0.8019  0.1700  1.3255
19296TIP3   OH279378   5.673   5.556  11.353  0.3389 -0.8079 -0.0512
19296TIP3    H179379   5.739   5.625  11.345  0.4517 -0.8571  0.4337
19296TIP3    H279380   5.723   5.474  11.341  0.1435 -0.7986 -1.0019
19297TIP3   OH279381   4.439   5.075  16.987 -0.0573 -0.1805 -0.8170
19297TIP3    H179382   4.417   4.985  17.010 -1.3832  0.3849  0.3020
19297TIP3    H279383   4.365   5.105  16.935 -0.3073  0.6784  0.0041
19298TIP3   OH279384   1.350   5.078   4.300 -0.3739 -0.6804 -0.0107
19298TIP3    H179385   1.281   5.141   4.322 -0.7633 -1.1680  0.1937
19298TIP3    H279386   1.303   5.005   4.260 -0.0716 -1.3824  0.8967
19299TIP3   OH279387   5.102   2.958   6.189 -0.5148  0.1409  0.1266
19299TIP3    H179388   5.048   2.899   6.241  1.0420 -2.6965 -1.1895
19299TIP3    H279389   5.180   2.973   6.243  0.2490 -1.2604 -0.5049
19300TIP3   OH279390   5.486   5.928  16.771  0.4002 -0.2085  0.3872
19300TIP3    H179391   5.558   5.947  16.711  0.4935  1.0370  0.8642
19300TIP3    H279392   5.419   5.993  16.749 -0.3477 -0.9835  0.3404
19301TIP3   OH279393   5.467   3.778   4.914  0.4612  0.5105  0.4409
19301TIP3    H179394   5.457   3.803   4.822  2.8642  0.5722  0.1346
19301TIP3    H279395   5.418   3.845   4.962 -0.9214  0.4157 -0.7641
19302TIP3   OH279396   4.737   2.412  11.438  0.3770 -0.5503  0.6061
19302TIP3    H179397   4.779   2.363  11.367  0.6171 -1.1118  1.1314
19302TIP3    H279398   4.656   2.446  11.399  1.9371  1.7612 -0.8703
19303TIP3   OH279399   0.889   5.590  12.459 -0.2839 -0.4255  0.2561
19303TIP3    H179400   0.948   5.595  12.383 -1.8263  2.3516 -0.8918
19303TIP3    H279401   0.904   5.671  12.506 -1.9969 -0.4408  0.8668
19304TIP3   OH279402   1.584   2.737  14.200  0.2882 -0.1108 -0.4429
19304TIP3    H179403   1.538   2.653  14.196  0.4424 -0.1678 -1.2771
19304TIP3    H279404   1.581   2.762  14.292  0.2416 -1.0349 -0.1835
19305TIP3   OH279405   6.340   2.266   2.952 -0.6972 -0.3480 -0.0107
19305TIP3    H179406   6.327   2.312   3.035  1.6760 -0.6453  0.6036
19305TIP3    H279407   6.344   2.334   2.886  1.1791  0.2483  0.6700
19306TIP3   OH279408   0.807   3.170  11.262  0.6783 -0.1328 -0.4653
19306TIP3    H179409   0.769   3.141  11.179  2.7623  0.3378 -1.6572
19306TIP3    H279410   0.899   3.146  11.256  1.2170  1.3553  1.0426
19307TIP3   OH279411   5.779   3.215   4.152 -0.0563  0.2678 -0.1830
19307TIP3    H179412   5.842   3.265   4.100 -0.5361  0.5362 -0.5151
19307TIP3    H279413   5.782   3.127   4.115  0.6628  0.0939  0.2877
19308TIP3   OH279414   0.427   4.212  12.946 -0.0301  0.0299  0.2890
19308TIP3    H179415   0.417   4.234  13.038  0.5103  0.5700  0.2228
19308TIP3    H279416   0.514   4.244  12.923 -0.8007  1.4475 -0.8331
19309TIP3   OH279417   1.444   2.683  11.908 -0.2463 -0.2801  0.1121
19309TIP3    H179418   1.480   2.740  11.976 -0.8178  1.4185 -0.9479
19309TIP3    H279419   1.353   2.668  11.935  0.0807 -1.2716  0.7232
19310TIP3   OH279420   4.384   5.779  15.068  0.7676  0.1531 -0.1294
19310TIP3    H179421   4.382   5.856  15.124  2.1557  1.6299 -2.0103
19310TIP3    H279422   4.464   5.788  15.016 -0.4240 -1.1127 -2.3396
19311TIP3   OH279423   1.992   4.164  14.246  0.2862 -0.2380 -0.1549
19311TIP3    H179424   1.940   4.085  14.229 -1.0012  0.3758  0.7370
19311TIP3    H279425   2.076   4.147  14.203  0.1817 -2.2333  0.3147
19312TIP3   OH279426   1.535   1.827  12.726 -0.1975 -0.0528 -0.0255
19312TIP3    H179427   1.506   1.751  12.677 -0.0524  0.6930 -1.3237
19312TIP3    H279428   1.497   1.902  12.680  1.6132  0.7962 -0.2592
19313TIP3   OH279429   1.887   3.235   2.582  0.1682  0.2504 -0.2279
19313TIP3    H179430   1.858   3.149   2.552  0.0277  0.4200 -0.5863
19313TIP3    H279431   1.819   3.262   2.644  1.1545 -0.6981  1.3526
19314TIP3   OH279432   3.028   6.701   3.388 -0.0494  0.1385 -0.2794
19314TIP3    H179433   2.947   6.670   3.349 -1.3259  1.3334  1.2656
19314TIP3    H279434   3.004   6.785   3.429  1.4042 -0.5254  2.1167
19315TIP3   OH279435   0.426   3.412  14.839 -0.0584  0.0855  0.4730
19315TIP3    H179436   0.407   3.338  14.897 -0.5785 -0.5299 -0.4568
19315TIP3    H279437   0.404   3.380  14.752  1.1183  0.8485 -0.1287
19316TIP3   OH279438   5.877   5.243  13.137  0.1592 -0.3207  0.5081
19316TIP3    H179439   5.840   5.292  13.210 -0.8422 -0.5029  0.1383
19316TIP3    H279440   5.968   5.273  13.131 -0.1439  0.7073  0.9517
19317TIP3   OH279441   4.403   2.794   4.553  0.5149  0.6190 -0.3588
19317TIP3    H179442   4.351   2.714   4.546  0.1598  0.5951  1.8651
19317TIP3    H279443   4.346   2.862   4.517 -0.9601  0.5002  1.5656
19318TIP3   OH279444   0.735   0.967   2.553  0.1562 -0.2048  0.5868
19318TIP3    H179445   0.815   0.944   2.600  0.8996  1.9156  0.4627
19318TIP3    H279446   0.665   0.956   2.617  0.5397 -1.7685  0.7939
19319TIP3   OH279447   6.653   6.614   0.326  0.1381 -0.0414 -0.0947
19319TIP3    H179448   6.711   6.662   0.267 -0.5789  1.5620  0.4356
19319TIP3    H279449   6.565   6.644   0.302 -0.2384 -0.0850  1.1502
19320TIP3   OH279450   2.186   3.716   5.418 -1.1787  0.0715  0.0563
19320TIP3    H179451   2.224   3.653   5.357 -0.4941  1.3085 -0.8478
19320TIP3    H279452   2.260   3.748   5.469 -1.3253  0.9812 -0.2901
19321TIP3   OH279453   6.486   5.309   3.276  0.0354 -0.1781 -0.3290
19321TIP3    H179454   6.541   5.292   3.200 -1.1777  1.7719 -1.7342
19321TIP3    H279455   6.510   5.398   3.303 -0.2241 -0.4852  0.9981
19322TIP3   OH279456   0.944   3.851   4.553 -0.3044 -0.1471  0.3104
19322TIP3    H179457   0.940   3.778   4.615 -3.5636 -1.5262 -1.2506
19322TIP3    H279458   0.853   3.864   4.526  0.6494  2.0187 -2.2997
19323TIP3   OH279459   5.443   0.757   3.008  0.0892  0.2386 -0.0552
19323TIP3    H179460   5.368   0.698   2.996  0.8350 -0.6680 -0.4159
19323TIP3    H279461   5.414   0.821   3.072 -0.9400 -0.2005 -0.0696
19324TIP3   OH279462   3.901   1.421  11.763 -0.1497  0.1219 -0.4981
19324TIP3    H179463   3.829   1.358  11.768  0.0991 -0.1953 -0.8567
19324TIP3    H279464   3.976   1.376  11.802  0.0226  0.2017 -0.7337
19325TIP3   OH279465   4.727   3.002   0.836  0.1753 -0.3934  0.5706
19325TIP3    H179466   4.692   3.084   0.801  2.3574 -0.0540 -1.0142
19325TIP3    H279467   4.650   2.953   0.862 -1.2651  1.6863  0.5195
19326TIP3   OH279468   2.114   0.726   2.976  0.3711 -0.1692 -0.0639
19326TIP3    H179469   2.079   0.666   2.910  0.3188  1.6277 -1.7597
19326TIP3    H279470   2.188   0.679   3.014  0.1451 -1.4224 -1.0987
19327TIP3   OH279471   3.553   2.937  16.974  0.2427 -0.6312  0.1345
19327TIP3    H179472   3.544   3.018  17.024 -0.2276  0.7174 -1.9842
19327TIP3    H279473   3.528   2.867  17.036 -2.3016  1.0789  1.2285
19328TIP3   OH279474   5.386   3.912   1.687  1.6706  0.4262  0.1509
19328TIP3    H179475   5.479   3.920   1.670  1.8845 -1.0727  0.4494
19328TIP3    H279476   5.357   3.842   1.629  0.5287  1.4677 -0.5920
19329TIP3   OH279477   0.099   1.632  12.360 -0.4374  0.2471 -0.2191
19329TIP3    H179478   0.037   1.627  12.432  0.8635 -1.2928  0.8552
19329TIP3    H279479   0.083   1.552  12.309  1.2942 -0.7340  0.6726
19330TIP3   OH279480   3.319   5.190  11.416  0.0773 -0.2769 -0.4816
19330TIP3    H179481   3.328   5.252  11.343  0.6757  0.6598  0.3616
19330TIP3    H279482   3.240   5.141  11.395 -1.0994  1.5619 -0.6336
19331TIP3   OH279483   5.019   2.849  14.869 -1.3424 -0.1506 -0.1271
19331TIP3    H179484   4.998   2.903  14.793 -0.4406  0.6602  0.1803
19331TIP3    H279485   5.077   2.903  14.922  0.8124 -1.9182 -0.5267
19332TIP3   OH279486   5.499   6.256  17.107  0.3325 -0.0324 -0.1557
19332TIP3    H179487   5.558   6.257  17.031 -0.2968 -0.3904 -0.6588
19332TIP3    H279488   5.517   6.339  17.152  0.4819  0.3382 -0.8803
19333TIP3   OH279489   1.490   3.613   3.600 -0.4868 -0.3003  0.3018
19333TIP3    H179490   1.414   3.644   3.649 -0.7159 -1.4816  0.7195
19333TIP3    H279491   1.553   3.587   3.668  1.2594  2.7584  0.0423
19334TIP3   OH279492   5.878   0.987  17.288 -0.0246  0.0265 -0.1912
19334TIP3    H179493   5.869   0.990  17.193 -0.1215  2.4747 -0.1494
19334TIP3    H279494   5.788   0.974  17.319 -0.0919 -0.0344 -0.4065
19335TIP3   OH279495   5.601   4.190  12.505  0.1941  0.5296 -0.0997
19335TIP3    H179496   5.628   4.170  12.594  1.9287 -1.4163 -0.9592
19335TIP3    H279497   5.682   4.187  12.454 -0.9176  0.1931 -1.9637
19336TIP3   OH279498   2.926   1.692  12.246  0.5439  0.1030  0.3343
19336TIP3    H179499   2.911   1.657  12.334 -0.3314  0.0250  0.1559
19336TIP3    H279500   2.839   1.704  12.209  0.8193  2.1510  0.2520
19337TIP3   OH279501   5.893   0.464  15.593 -0.1074 -0.1510 -0.2872
19337TIP3    H179502   5.945   0.500  15.521 -1.5900 -1.4433 -2.1342
19337TIP3    H279503   5.842   0.538  15.625  1.1034  0.6023 -0.0664
19338TIP3   OH279504   5.642   3.533   2.403 -0.0183  0.1901 -0.0846
19338TIP3    H179505   5.591   3.606   2.437 -0.9670 -0.6508  0.3205
19338TIP3    H279506   5.613   3.523   2.312  1.1327  1.1977 -0.5955
19339TIP3   OH279507   5.223   1.167   1.277 -0.3620  0.3648 -0.3672
19339TIP3    H179508   5.238   1.073   1.287  0.0686  0.4279 -0.3743
19339TIP3    H279509   5.274   1.207   1.347 -0.7389  0.5801 -0.2174
19340TIP3   OH279510   2.560   0.683   2.026  0.3045  0.4058  0.0559
19340TIP3    H179511   2.501   0.744   1.982  1.2363  2.4247  1.4856
19340TIP3    H279512   2.513   0.656   2.105  0.4157  0.2698  0.0773
19341TIP3   OH279513   3.418   4.514  16.707  0.1115  0.2758  0.4803
19341TIP3    H179514   3.439   4.606  16.728 -3.0400  1.0230  0.8199
19341TIP3    H279515   3.449   4.503  16.617  0.7209  1.6281  0.4895
19342TIP3   OH279516   4.280   1.826   0.249 -0.2502  0.1358  0.4160
19342TIP3    H179517   4.361   1.857   0.208 -0.5046  0.8540  0.4488
19342TIP3    H279518   4.310   1.781   0.328  0.2083 -0.8037 -0.2706
19343TIP3   OH279519   3.042   3.621   2.428 -0.0896  0.0951  0.2411
19343TIP3    H179520   3.016   3.667   2.508 -2.3336  1.2751 -1.0564
19343TIP3    H279521   3.017   3.530   2.444  1.0100 -0.0127  1.4692
19344TIP3   OH279522   4.188   5.462  10.779 -0.3305  0.7189 -0.1483
19344TIP3    H179523   4.176   5.499  10.691  2.2594 -1.3309 -1.5137
19344TIP3    H279524   4.175   5.368  10.767  2.3526  0.0923  1.0853
19345TIP3   OH279525   1.873   3.496  16.412  0.5314 -0.0506  0.1473
19345TIP3    H179526   1.967   3.505  16.397  0.4951  0.9580  0.4544
19345TIP3    H279527   1.857   3.401  16.412  1.4005 -0.2105 -0.7664
19346TIP3   OH279528   3.918   4.168  14.822 -0.3515 -0.0365  0.3193
19346TIP3    H179529   3.859   4.123  14.882 -1.5533 -1.3383 -1.7225
19346TIP3    H279530   3.895   4.260  14.829 -1.6074 -0.3659  0.6705
19347TIP3   OH279531   6.326   0.984   0.595 -0.0102 -0.4494 -0.6504
19347TIP3    H179532   6.244   0.975   0.546  0.5377 -0.9482 -1.5096
19347TIP3    H279533   6.367   0.898   0.589  0.3684 -0.3342  0.1638
19348TIP3   OH279534   5.959   6.553  16.385 -0.1213  0.0325 -0.2105
19348TIP3    H179535   6.026   6.605  16.428  0.2380 -2.6651  2.8177
19348TIP3    H279536   5.994   6.536  16.297  1.7827  1.0790  0.3072
19349TIP3   OH279537   5.227   2.647   2.426  0.3884  0.0764  0.2281
19349TIP3    H179538   5.153   2.614   2.477 -0.2643 -2.6836 -2.2593
19349TIP3    H279539   5.303   2.605   2.465  0.3084  0.5397  0.9022
19350TIP3   OH279540   2.934   0.396  12.059  0.3873  0.9020  0.5150
19350TIP3    H179541   2.944   0.382  12.154 -0.2503  1.4005  0.6629
19350TIP3    H279542   2.923   0.490  12.050  0.2427  0.8351 -0.0426
19351TIP3   OH279543   0.260   5.614  14.545  0.4894 -0.1485 -0.1923
19351TIP3    H179544   0.174   5.637  14.510  0.1329 -0.1471  0.6378
19351TIP3    H279545   0.253   5.520  14.566 -0.2356  0.3692  2.2813
19352TIP3   OH279546   0.005   3.235  15.621 -0.4900 -0.0973 -0.2112
19352TIP3    H179547   0.050   3.184  15.554  0.2506  1.0534 -0.6049
19352TIP3    H279548  -0.064   3.176  15.653 -0.7448 -0.7323 -1.8375
19353TIP3   OH279549   2.324   3.335   1.318 -0.1147 -0.0051 -0.5351
19353TIP3    H179550   2.389   3.354   1.250  0.1175  1.8244  0.1417
19353TIP3    H279551   2.261   3.277   1.276  0.8333 -0.1196 -1.8436
19354TIP3   OH279552   0.575   0.065  16.733 -0.4890  0.3353  0.0571
19354TIP3    H179553   0.670   0.068  16.744 -0.5741  2.1642  0.6754
19354TIP3    H279554   0.551  -0.025  16.754  1.0610 -0.0684  0.2223
19355TIP3   OH279555   3.234   6.524   6.279  0.3168 -0.3912 -0.1217
19355TIP3    H179556   3.324   6.541   6.307 -0.0685  1.6402  0.0595
19355TIP3    H279557   3.180   6.555   6.352 -0.5790  0.6881 -1.2086
19356TIP3   OH279558   2.273   0.952  16.937  0.0471  0.2474  0.9156
19356TIP3    H179559   2.354   1.003  16.948  0.4237 -0.3791  1.0833
19356TIP3    H279560   2.260   0.950  16.842  1.3652 -1.3667  0.7296
19357TIP3   OH279561   4.173   0.790   1.754 -0.3600 -0.7048  0.5208
19357TIP3    H179562   4.123   0.730   1.699 -0.5222 -2.0691  2.0892
19357TIP3    H279563   4.263   0.761   1.746 -0.1546  0.0756 -0.1996
19358TIP3   OH279564   0.067   2.376  14.218  0.5440  0.9117  0.0032
19358TIP3    H179565   0.121   2.440  14.264 -0.1366  2.7320 -1.6046
19358TIP3    H279566  -0.009   2.425  14.187 -0.9840 -1.1158  0.3287
19359TIP3   OH279567   2.742   1.067   2.778  0.1140  0.1014  0.2731
19359TIP3    H179568   2.836   1.048   2.773  0.1144 -0.5787  2.0742
19359TIP3    H279569   2.709   1.049   2.690  1.3009 -1.8479  0.1722
19360TIP3   OH279570   3.234   2.738   1.203 -0.2096  0.1200 -0.1935
19360TIP3    H179571   3.254   2.675   1.134 -1.9651 -0.6350 -0.0430
19360TIP3    H279572   3.174   2.800   1.162  0.7267  1.1454 -0.0508
19361TIP3   OH279573   4.648   0.849  15.638  0.4055  0.1092 -0.1426
19361TIP3    H179574   4.647   0.898  15.556 -2.2494 -1.9946 -1.5622
19361TIP3    H279575   4.604   0.906  15.701 -0.0030  0.6888 -0.9356
19362TIP3   OH279576   3.355   3.199  13.067 -0.8674  0.4502 -0.0909
19362TIP3    H179577   3.290   3.264  13.039 -1.0717  0.1335 -0.3553
19362TIP3    H279578   3.351   3.201  13.162 -2.3165 -0.5987 -0.0939
19363TIP3   OH279579   5.225   3.213   0.546 -0.2636 -0.2310 -0.1058
19363TIP3    H179580   5.261   3.218   0.635  1.2528 -1.5065 -0.5929
19363TIP3    H279581   5.220   3.303   0.517  0.1479  0.1437  0.9321
19364TIP3   OH279582   2.516   6.351  16.172 -0.1594  0.3229  0.4976
19364TIP3    H179583   2.526   6.445  16.189  0.8097  0.2495  0.3788
19364TIP3    H279584   2.577   6.309  16.232 -1.5619 -0.3384  1.5467
19365TIP3   OH279585   1.376   4.897   1.029 -0.2257  0.8245 -0.0402
19365TIP3    H179586   1.346   4.987   1.019 -0.0252  0.7730 -1.2573
19365TIP3    H279587   1.450   4.903   1.091 -0.9774  1.3074  0.8372
19366TIP3   OH279588   4.068   0.653   5.395  0.3559  0.3613  0.0645
19366TIP3    H179589   4.033   0.626   5.480 -1.6923  0.9792 -0.5187
19366TIP3    H279590   4.097   0.743   5.408 -1.0447  0.8699 -0.1254
19367TIP3   OH279591   5.764   0.632   1.773 -0.1654 -0.3534  0.2085
19367TIP3    H179592   5.672   0.634   1.801 -0.2087  1.4832  0.0770
19367TIP3    H279593   5.797   0.720   1.793  1.1566 -0.5089 -1.1026
19368TIP3   OH279594   1.023   0.323   2.262 -0.5230 -0.2282 -0.0271
19368TIP3    H179595   0.941   0.289   2.297 -0.8603  0.8437  0.2617
19368TIP3    H279596   1.028   0.286   2.174 -2.6487  1.7128 -1.0626
19369TIP3   OH279597   2.997   1.065   3.829  0.1605 -0.1850  0.5349
19369TIP3    H179598   2.940   1.008   3.879 -0.8470  0.4547  0.1419
19369TIP3    H279599   3.034   1.125   3.894  1.5761 -1.5034  1.0256
19370TIP3   OH279600   2.545   4.285  12.352  0.3349 -0.5892 -0.0918
19370TIP3    H179601   2.620   4.226  12.351  0.7130 -0.2934  2.6544
19370TIP3    H279602   2.582   4.372  12.361 -0.2254 -0.5055  2.2845
19371TIP3   OH279603   5.456   4.023   5.640  0.1561 -0.4134  0.2651
19371TIP3    H179604   5.546   4.011   5.610  0.3960 -1.6808  1.4117
19371TIP3    H279605   5.434   4.113   5.614  2.2129  0.3941  1.1154
19372TIP3   OH279606   5.959   4.816  15.132 -0.2953  0.8202 -0.0814
19372TIP3    H179607   5.973   4.722  15.139  3.7762  0.9963 -2.4158
19372TIP3    H279608   5.909   4.828  15.052  1.1986  0.6201 -1.0877
19373TIP3   OH279609   3.101   4.756  16.698 -0.9834  0.9193 -0.0856
19373TIP3    H179610   3.184   4.773  16.743  0.2231 -0.1368 -1.7763
19373TIP3    H279611   3.041   4.728  16.767  0.3949  0.6431  1.0408
19374TIP3   OH279612   1.152   0.440  13.901 -0.4690  0.4088  0.4361
19374TIP3    H179613   1.062   0.421  13.929  0.1932 -1.0831  1.7643
19374TIP3    H279614   1.190   0.489  13.974  0.0938  0.0522  0.3933
19375TIP3   OH279615   4.686   3.752   1.766 -0.1110  0.1870 -0.0528
19375TIP3    H179616   4.699   3.797   1.849  0.6160  0.0328 -0.0788
19375TIP3    H279617   4.747   3.794   1.705 -1.9094  1.5505 -1.0200
19376TIP3   OH279618   0.537   2.309  15.563  0.0302 -0.5498 -0.6535
19376TIP3    H179619   0.487   2.270  15.491  0.3858 -1.7749 -0.2630
19376TIP3    H279620   0.490   2.282  15.642 -0.0359  0.3084 -0.3937
19377TIP3   OH279621   4.451   6.122   5.963 -0.0409 -0.2124 -0.7974
19377TIP3    H179622   4.494   6.097   5.881 -1.5743  0.0373 -1.7125
19377TIP3    H279623   4.443   6.039   6.011  0.8498 -0.3667 -0.8911
19378TIP3   OH279624   1.484   2.784   4.132  0.4911 -0.7386  0.3128
19378TIP3    H179625   1.439   2.842   4.069  0.9182 -0.8106 -0.0587
19378TIP3    H279626   1.465   2.824   4.217 -0.9473 -1.2028  0.2420
19379TIP3   OH279627   6.201   6.165  13.487 -0.8319  0.1758  0.1136
19379TIP3    H179628   6.205   6.148  13.581 -0.3495 -1.3084 -0.1475
19379TIP3    H279629   6.113   6.200  13.473 -0.7708  0.8161  1.1589
19380TIP3   OH279630   4.682   6.560  13.671  0.2634  0.1394  0.3093
19380TIP3    H179631   4.621   6.488  13.656  0.3358 -0.3582  2.1580
19380TIP3    H279632   4.761   6.517  13.705  0.5327  1.0344  0.8488
19381TIP3   OH279633   4.465   5.919   5.612  0.6668  0.0421  0.2585
19381TIP3    H179634   4.550   5.875   5.618  1.3859  1.3191 -0.0658
19381TIP3    H279635   4.440   5.908   5.520  0.4847 -0.3042  0.3462
19382TIP3   OH279636   1.754   3.967   1.674 -0.1467 -0.3236 -0.6866
19382TIP3    H179637   1.786   3.963   1.584  0.4353  0.8828 -0.5581
19382TIP3    H279638   1.816   3.913   1.723  0.3628  0.1401 -0.8051
19383TIP3   OH279639   5.909   3.253   3.315 -0.5575 -0.0068 -0.1104
19383TIP3    H179640   6.001   3.248   3.288 -0.7496 -1.0848 -0.6140
19383TIP3    H279641   5.910   3.224   3.406 -0.5414 -1.1789 -0.4718
19384TIP3   OH279642   6.507   2.826   3.160  0.0482  0.5625 -0.3261
19384TIP3    H179643   6.417   2.815   3.191 -0.2478  3.3168  0.1256
19384TIP3    H279644   6.515   2.764   3.088 -1.7803 -0.6421  0.4154
19385TIP3   OH279645   5.456   6.490  14.871  1.0574 -0.0826 -0.7550
19385TIP3    H179646   5.482   6.534  14.790 -1.4278 -0.2158 -1.7184
19385TIP3    H279647   5.412   6.557  14.922  2.3627 -0.0724  0.4162
19386TIP3   OH279648   1.162   0.437  12.662 -0.3067 -0.0493 -0.0041
19386TIP3    H179649   1.177   0.525  12.697 -0.6030  0.6746 -1.6345
19386TIP3    H279650   1.071   0.417  12.687  0.0679 -0.3319  1.2232
19387TIP3   OH279651   0.166   1.214  15.093 -0.5700 -0.1286  0.2404
19387TIP3    H179652   0.092   1.163  15.126 -0.0311 -1.4855 -0.5707
19387TIP3    H279653   0.216   1.236  15.171 -0.2133 -1.8365  0.5343
19388TIP3   OH279654   1.431   2.760  17.072 -0.2616 -0.5360  0.5359
19388TIP3    H179655   1.367   2.795  17.010  1.6649  0.2056 -1.1573
19388TIP3    H279656   1.408   2.668  17.081 -1.2365 -0.4118 -0.4352
19389TIP3   OH279657   1.573   2.578  13.063 -0.0359  0.5446  0.4896
19389TIP3    H179658   1.584   2.497  13.112 -0.0890  0.4686  0.3756
19389TIP3    H279659   1.663   2.608  13.045  0.0074  1.3108  1.8426
19390TIP3   OH279660   2.608   1.505   4.848  0.1755  0.2409 -0.1197
19390TIP3    H179661   2.700   1.526   4.858  0.1482 -0.1419  1.1331
19390TIP3    H279662   2.591   1.514   4.754  1.6361 -0.3071 -0.4626
19391TIP3   OH279663   1.470   4.128   1.932  0.0506 -0.4708 -0.4785
19391TIP3    H179664   1.429   4.183   1.998 -0.1450 -1.1403 -0.0368
19391TIP3    H279665   1.403   4.116   1.865 -0.3869 -1.2976  0.0870
19392TIP3   OH279666   4.933   6.555   3.929 -0.1159  0.5416 -0.1996
19392TIP3    H179667   4.994   6.520   3.864 -1.2757 -0.4520 -0.8019
19392TIP3    H279668   4.964   6.518   4.012  0.4601  0.5521 -0.4018
19393TIP3   OH279669   6.644   6.746   5.489  0.6257  0.1393 -0.0368
19393TIP3    H179670   6.573   6.741   5.425  1.4602 -1.5703 -0.8952
19393TIP3    H279671   6.639   6.663   5.537  0.5557  1.0254  1.5928
19394TIP3   OH279672   0.142   2.271   1.165 -0.5525 -0.0434  0.2834
19394TIP3    H179673   0.055   2.283   1.205 -0.1541  0.1191  1.1214
19394TIP3    H279674   0.177   2.192   1.207 -0.9322 -1.0442 -1.2220
19395TIP3   OH279675   3.242   5.596   4.293 -0.5301 -0.2702 -0.0657
19395TIP3    H179676   3.270   5.594   4.201  0.7467 -1.2761  0.3157
19395TIP3    H279677   3.175   5.528   4.300  1.8602 -2.7147  0.4484
19396TIP3   OH279678   0.531   5.915   0.098 -0.2959  0.2762  0.4080
19396TIP3    H179679   0.552   6.002   0.131 -2.3064  0.2622  1.8748
19396TIP3    H279680   0.436   5.910   0.100 -0.2703 -1.6262 -0.5632
19397TIP3   OH279681   0.460   2.999  10.838 -0.0026  0.3512 -0.2362
19397TIP3    H179682   0.478   2.924  10.781 -0.4859 -1.7592  2.1545
19397TIP3    H279683   0.402   3.055  10.787 -0.1242 -1.2030 -1.9241
19398TIP3   OH279684   2.187   2.074   0.202  0.5188  0.1580 -0.0468
19398TIP3    H179685   2.103   2.084   0.157 -0.7144  0.1908  2.1235
19398TIP3    H279686   2.197   1.980   0.214 -0.9933  0.2197  2.6490
19399TIP3   OH279687   2.302   6.637   6.652  0.5448  0.6160  0.9514
19399TIP3    H179688   2.216   6.632   6.693  0.0885 -0.1228 -0.0609
19399TIP3    H279689   2.302   6.568   6.586  0.6532  2.7370 -1.4172
19400TIP3   OH279690   2.679   4.021  12.783 -0.1333  0.0604  0.1780
19400TIP3    H179691   2.690   3.926  12.772 -0.5393 -0.1179  1.1424
19400TIP3    H279692   2.760   4.050  12.825  0.2938  0.2812 -0.7603
19401TIP3   OH279693   1.391   3.748  11.786 -0.2123  0.0948  0.2346
19401TIP3    H179694   1.401   3.653  11.797  1.6976  0.4452  2.3574
19401TIP3    H279695   1.459   3.772  11.723 -0.1381  0.1546  0.3372
19402TIP3   OH279696   0.322   1.537  12.719  0.3918  0.1794 -0.1518
19402TIP3    H179697   0.323   1.567  12.810  0.3463 -0.4214  0.0537
19402TIP3    H279698   0.238   1.493  12.710  0.6497 -0.2846 -0.3081
19403TIP3   OH279699   2.520   2.681  14.386 -0.4318  0.1222  0.1700
19403TIP3    H179700   2.573   2.656  14.461  0.1530  1.1899  0.1363
19403TIP3    H279701   2.584   2.705  14.318 -0.9237 -1.9726 -1.1056
19404TIP3   OH279702   0.579   5.094   5.102 -0.2162  0.5581  0.9973
19404TIP3    H179703   0.651   5.132   5.052  0.1159 -0.7206  0.4489
19404TIP3    H279704   0.524   5.051   5.037  0.2912 -1.2549  1.6893
19405TIP3   OH279705   3.524   1.872  13.929 -0.0675  0.6400 -0.2618
19405TIP3    H179706   3.484   1.847  14.012  0.9246 -1.6237 -0.4134
19405TIP3    H279707   3.487   1.811  13.865 -0.4800  2.0581 -1.4459
19406TIP3   OH279708   0.562   0.210   5.209  0.3979  0.4899 -1.1177
19406TIP3    H179709   0.535   0.297   5.180 -0.3034  0.4984 -0.4819
19406TIP3    H279710   0.481   0.158   5.205  0.3130  0.4281  0.5261
19407TIP3   OH279711   2.586   2.188  14.766  0.3180 -0.6342  0.0291
19407TIP3    H179712   2.530   2.130  14.713 -0.1571 -1.2838  1.1888
19407TIP3    H279713   2.561   2.168  14.856  2.7885 -1.3205  0.6246
19408TIP3   OH279714   1.047   2.765   1.101  0.0220 -0.2416 -0.6736
19408TIP3    H179715   0.997   2.719   1.169 -0.6876  0.4371 -0.7114
19408TIP3    H279716   1.126   2.713   1.090  0.3215 -0.1876  0.9125
19409TIP3   OH279717   0.086   5.842   2.497  0.4116 -0.1214  0.2771
19409TIP3    H179718   0.050   5.931   2.507  1.7097  0.3721  0.8390
19409TIP3    H279719   0.169   5.856   2.452 -0.2089 -1.2626 -1.3055
19410TIP3   OH279720   0.787   3.509   6.047  0.0474  0.0643 -0.2003
19410TIP3    H179721   0.870   3.524   6.001  0.0775 -0.0551 -0.1846
19410TIP3    H279722   0.814   3.476   6.133 -0.0418 -0.9257 -0.5426
19411TIP3   OH279723   2.802   3.956  13.910  0.0205 -0.0962  0.0765
19411TIP3    H179724   2.734   3.938  13.975 -2.1596  1.9965 -1.4789
19411TIP3    H279725   2.837   4.041  13.935 -0.9496  0.8030 -1.5303
19412TIP3   OH279726   0.329   6.011   2.436  0.3739  0.4692  0.7094
19412TIP3    H179727   0.409   6.024   2.386 -0.6467 -0.5836 -1.3379
19412TIP3    H279728   0.359   5.983   2.522  2.1965  1.1904  0.3598
19413TIP3   OH279729   5.666   5.071  11.410  0.0614 -0.3353  0.0691
19413TIP3    H179730   5.610   5.014  11.462 -1.0123  1.3146  0.7856
19413TIP3    H279731   5.612   5.147  11.390  1.8601  1.0681  0.2970
19414TIP3   OH279732   1.049   4.764   4.923  0.0401 -0.3629 -0.0060
19414TIP3    H179733   1.120   4.810   4.878 -0.4630  0.9308  0.4758
19414TIP3    H279734   1.075   4.764   5.015 -0.7051  0.3922  0.2205
19415TIP3   OH279735   6.072   1.653   1.570  0.4009 -0.1798  0.0425
19415TIP3    H179736   6.122   1.675   1.491  1.2091 -2.0105 -0.0078
19415TIP3    H279737   6.122   1.581   1.610 -1.0066 -0.5454  1.2031
19416TIP3   OH279738   0.995   6.106  14.114  0.8392 -0.0913  0.0623
19416TIP3    H179739   0.952   6.096  14.199 -0.4773  0.5976 -0.4913
19416TIP3    H279740   1.078   6.150  14.134 -0.0204  1.2406  0.8689
19417TIP3   OH279741   0.719   2.803  11.659  0.3466  0.4563  0.3055
19417TIP3    H179742   0.749   2.820  11.570 -0.6414 -3.4957 -1.0038
19417TIP3    H279743   0.794   2.824  11.714  0.9518  3.1428 -1.3599
19418TIP3   OH279744   1.929   5.904  15.042  0.6628  0.0061 -0.1437
19418TIP3    H179745   1.919   5.995  15.071  2.9028  0.2299  0.1086
19418TIP3    H279746   1.878   5.899  14.961 -3.6952  0.0461  2.3052
19419TIP3   OH279747   1.194   1.296  11.177 -0.1316  0.0107 -0.5304
19419TIP3    H179748   1.180   1.216  11.227  1.1648  0.4780  0.6548
19419TIP3    H279749   1.163   1.276  11.088 -0.9700 -1.3701  0.0531
19420TIP3   OH279750   6.564   2.232  12.492  0.4243  0.3899  0.0188
19420TIP3    H179751   6.620   2.244  12.569  0.9870  0.5513 -0.4161
19420TIP3    H279752   6.475   2.239  12.527  0.6301 -0.9114  0.9023
19421TIP3   OH279753   0.505   4.915  10.782 -0.0715 -0.6389 -0.4504
19421TIP3    H179754   0.546   4.987  10.734 -0.2365 -0.4796 -0.3564
19421TIP3    H279755   0.560   4.839  10.764  1.6204  0.0320  1.5304
19422TIP3   OH279756   6.195   2.927   3.189  0.3703 -0.3237  0.0399
19422TIP3    H179757   6.159   3.015   3.189 -0.3876 -0.6195  0.8136
19422TIP3    H279758   6.247   2.923   3.269  0.2989 -0.6161  0.0735
19423TIP3   OH279759   1.025   3.152  15.861 -0.5622 -0.3969  0.4089
19423TIP3    H179760   1.097   3.120  15.808 -0.9610  1.3185 -1.2757
19423TIP3    H279761   0.946   3.133  15.810 -0.9263  1.6192  0.1121
19424TIP3   OH279762   4.107   1.053  12.395 -0.0428  0.2746  0.2234
19424TIP3    H179763   4.090   0.984  12.332  0.2113 -0.7156  1.2048
19424TIP3    H279764   4.027   1.105  12.397 -0.9969 -1.1446  0.8645
19425TIP3   OH279765   3.456   4.342   2.690 -0.3735 -0.2519  0.0388
19425TIP3    H179766   3.466   4.436   2.677  1.6940 -0.3913  0.2299
19425TIP3    H279767   3.530   4.304   2.643 -0.0779 -1.6275  1.5148
19426TIP3   OH279768   4.316   3.201  12.659 -0.0525  0.0558  0.4190
19426TIP3    H179769   4.335   3.162  12.574 -1.8088  0.9253 -0.4371
19426TIP3    H279770   4.263   3.135  12.704 -0.6345  0.3009  0.1049
19427TIP3   OH279771   0.949   0.684  12.715 -0.5686  0.5180  0.3038
19427TIP3    H179772   0.956   0.774  12.684  1.4011  0.1016 -0.6189
19427TIP3    H279773   0.877   0.646  12.664  1.1400  0.5020 -2.2325
19428TIP3   OH279774   1.493   6.600  15.061 -0.1139 -0.1073  0.8771
19428TIP3    H179775   1.489   6.684  15.107 -0.1484 -0.4418  1.5045
19428TIP3    H279776   1.543   6.543  15.120  0.8076 -0.2382 -0.0089
19429TIP3   OH279777   5.954   4.279   0.333 -0.4618  0.0910  0.3534
19429TIP3    H179778   5.984   4.193   0.305  1.0007  0.8152 -0.4137
19429TIP3    H279779   5.902   4.262   0.412  0.8382 -1.3677  0.9505
19430TIP3   OH279780   4.441   0.925  11.491  0.4271 -0.1120  0.0841
19430TIP3    H179781   4.532   0.915  11.520  1.8677  0.4704 -3.6534
19430TIP3    H279782   4.404   0.837  11.499  1.4367 -0.4769  1.1446
19431TIP3   OH279783   2.597   5.978  15.222 -0.2024  0.0022  0.2121
19431TIP3    H179784   2.670   6.028  15.257 -1.3112  2.8916 -1.2590
19431TIP3    H279785   2.530   5.982  15.290  0.6843 -2.0846  1.2875
19432TIP3   OH279786   0.978   4.702  15.099 -0.0133  0.4235 -0.5127
19432TIP3    H179787   1.034   4.698  15.176 -0.9322 -0.7732  0.1357
19432TIP3    H279788   0.921   4.777  15.115  1.1051  1.4104 -0.9971
19433TIP3   OH279789   3.828   1.369  14.438 -0.4852  0.1076 -0.2513
19433TIP3    H179790   3.866   1.353  14.524  1.9160 -1.8098 -1.5551
19433TIP3    H279791   3.795   1.284  14.409 -2.5168  0.9849 -0.7529
19434TIP3   OH279792   4.385   5.225  12.648 -0.0267  0.4872 -0.2066
19434TIP3    H179793   4.292   5.225  12.626 -0.1994 -1.0365  0.3874
19434TIP3    H279794   4.428   5.262  12.571 -1.1727  1.9893 -0.1581
19435TIP3   OH279795   2.985   0.087  12.054  0.6922  0.1560  0.0356
19435TIP3    H179796   2.985   0.172  12.010 -0.0536 -0.0356 -0.3662
19435TIP3    H279797   2.995   0.024  11.982 -1.7557 -0.2264 -0.0701
19436TIP3   OH279798   6.390   2.590   1.142  0.0496 -0.1310 -0.0854
19436TIP3    H179799   6.314   2.634   1.104 -1.1055 -0.9967  1.1665
19436TIP3    H279800   6.464   2.647   1.118 -1.1459  1.4881 -0.1212
19437TIP3   OH279801   2.630   0.482  12.180  0.1647 -0.1243 -0.1759
19437TIP3    H179802   2.697   0.441  12.234 -0.1567 -1.2850 -0.6202
19437TIP3    H279803   2.649   0.575  12.183  0.2204 -0.1731  1.8202
19438TIP3   OH279804   1.708   3.633  11.434  0.2844 -0.2118 -0.0575
19438TIP3    H179805   1.759   3.655  11.356  0.4927 -0.2262  0.0752
19438TIP3    H279806   1.671   3.716  11.464 -0.2697 -0.2887 -0.5023
19439TIP3   OH279807   1.401   0.701  13.344 -0.8049 -0.2601  0.0201
19439TIP3    H179808   1.327   0.641  13.341 -0.7583 -0.3978  1.3334
19439TIP3    H279809   1.436   0.692  13.432 -0.2795  1.0780 -0.0287
19440TIP3   OH279810   5.072   1.805   1.001  0.4068 -0.3714 -0.2215
19440TIP3    H179811   5.122   1.723   0.997  0.6872 -0.2032 -0.1808
19440TIP3    H279812   4.985   1.778   1.032  1.3677 -0.2771  2.9257
19441TIP3   OH279813   0.976   6.068   5.563 -0.2809  0.3083  0.1522
19441TIP3    H179814   0.906   6.043   5.623 -0.2821  0.1329  0.0771
19441TIP3    H279815   1.024   5.986   5.547 -0.1521  0.3968  0.0818
19442TIP3   OH279816   4.724   3.354  11.478 -0.0951 -0.1771  0.5781
19442TIP3    H179817   4.731   3.292  11.405 -1.2930  0.0868  0.2096
19442TIP3    H279818   4.782   3.319  11.546  2.2099  0.3386 -0.9984
19443TIP3   OH279819   5.769   0.164  14.419  0.5018 -0.0902 -0.1021
19443TIP3    H179820   5.692   0.216  14.441  0.0828 -0.0188 -1.6205
19443TIP3    H279821   5.802   0.133  14.503 -1.3803 -0.4195  0.5655
19444TIP3   OH279822   5.560   5.420   1.939  0.6243  0.2806  0.4602
19444TIP3    H179823   5.621   5.409   2.012 -0.1399  2.9940  1.6412
19444TIP3    H279824   5.474   5.416   1.979  0.1502  0.7197 -0.4830
19445TIP3   OH279825   3.357   5.229   3.110 -0.3246  0.8022 -0.0174
19445TIP3    H179826   3.266   5.249   3.084  0.0964  0.8117 -1.6346
19445TIP3    H279827   3.376   5.291   3.180 -1.9077  0.0645  1.1214
19446TIP3   OH279828   4.281   3.314   2.119 -0.6407  0.6974 -0.5705
19446TIP3    H179829   4.366   3.271   2.110 -1.0926 -1.0012  2.1581
19446TIP3    H279830   4.216   3.245   2.105 -1.4828  1.2833  0.2683
19447TIP3   OH279831   2.902   2.937  16.305  0.1562  0.8991  0.5292
19447TIP3    H179832   2.882   3.031  16.308 -0.6556  0.7574  0.0210
19447TIP3    H279833   2.946   2.924  16.220 -0.7499  0.6518  0.0801
19448TIP3   OH279834   3.882   0.475  16.457 -0.3008  0.0337 -0.2207
19448TIP3    H179835   3.918   0.406  16.401  1.8395  1.7914 -1.1731
19448TIP3    H279836   3.925   0.462  16.542 -0.1586 -0.0066 -0.2993
19449TIP3   OH279837   5.207   4.351  16.424 -0.1373  0.3613  0.7637
19449TIP3    H179838   5.277   4.295  16.390 -0.3452  0.7203 -0.3026
19449TIP3    H279839   5.126   4.307  16.397 -0.3061  0.7587  0.6214
19450TIP3   OH279840   0.734   6.803   2.669  0.6876 -0.1662  0.3863
19450TIP3    H179841   0.687   6.806   2.753  1.8740 -0.0406  1.0819
19450TIP3    H279842   0.688   6.738   2.617  0.9355 -1.5304  1.8006
19451TIP3   OH279843   2.177   3.557   0.952 -0.4251  0.1537  0.4364
19451TIP3    H179844   2.200   3.601   1.034  0.6354  0.4498 -0.0014
19451TIP3    H279845   2.091   3.593   0.929 -0.2480  0.8701  0.8679
19452TIP3   OH279846   2.806   1.964   3.217  0.4036  0.4285  0.2219
19452TIP3    H179847   2.784   1.932   3.305  0.8547 -0.3923  0.0537
19452TIP3    H279848   2.735   2.023   3.194 -0.6784 -0.7524  0.4210
19453TIP3   OH279849   4.821   6.629  12.860  0.1504  0.8375 -0.2551
19453TIP3    H179850   4.803   6.699  12.797  3.6937  2.3734  0.1727
19453TIP3    H279851   4.747   6.629  12.919 -1.2904  2.2471 -1.9623
19454TIP3   OH279852   6.143   0.217   3.565 -0.6750  0.6947  0.2269
19454TIP3    H179853   6.209   0.260   3.619 -0.7165 -0.0624  0.9002
19454TIP3    H279854   6.069   0.277   3.563  0.3624  2.0158 -1.3501
19455TIP3   OH279855   0.741   0.100   4.855 -0.2945  0.2600  0.9025
19455TIP3    H179856   0.798   0.078   4.781  0.2374 -0.4652  1.5135
19455TIP3    H279857   0.661   0.049   4.840  0.0221 -0.3026  1.0966
19456TIP3   OH279858   5.550   5.941  13.641 -0.3319 -0.4352 -0.8950
19456TIP3    H179859   5.618   5.932  13.575 -1.3688 -1.9017 -1.8396
19456TIP3    H279860   5.572   5.876  13.708 -0.4584 -0.4909 -0.9059
19457TIP3   OH279861   2.547   2.027  15.298 -0.4476 -0.7427 -0.0925
19457TIP3    H179862   2.594   2.077  15.365 -1.6539 -0.6874  0.7440
19457TIP3    H279863   2.472   1.990  15.345 -3.2064  1.9475 -2.0155
19458TIP3   OH279864   5.295   3.211   3.354 -0.5726  0.5582 -0.0394
19458TIP3    H179865   5.373   3.198   3.301 -1.9887  3.2266 -3.0624
19458TIP3    H279866   5.252   3.125   3.355  0.4949 -0.0227 -1.5364
19459TIP3   OH279867   5.172   1.992   1.407  0.1181 -0.4723 -0.0634
19459TIP3    H179868   5.125   1.923   1.454 -1.5046  1.0800  0.6934
19459TIP3    H279869   5.261   1.987   1.441 -0.2362 -1.4952  0.7647
19460TIP3   OH279870   3.125   3.003   4.599  0.5818  0.1573  0.1179
19460TIP3    H179871   3.131   3.098   4.605  1.4077  0.0461  1.6385
19460TIP3    H279872   3.069   2.987   4.523 -0.2735  1.8695  0.3390
19461TIP3   OH279873   3.445   5.118   4.250  0.9389 -0.4419  0.0255
19461TIP3    H179874   3.528   5.164   4.261  0.0539  1.3505 -0.4554
19461TIP3    H279875   3.404   5.160   4.174 -0.3941 -1.2981  0.2382
19462TIP3   OH279876   5.285   0.575  14.611 -0.1451 -0.4854  0.7406
19462TIP3    H179877   5.314   0.646  14.668  1.7669 -0.0615 -0.6418
19462TIP3    H279878   5.254   0.507  14.670  3.2375 -0.7306  2.4335
19463TIP3   OH279879   4.391   5.756  10.760  0.3850  0.4533  0.0205
19463TIP3    H179880   4.406   5.683  10.821 -0.7901  0.3033  0.1694
19463TIP3    H279881   4.392   5.715  10.673  0.5889  0.4069  0.0458
19464TIP3   OH279882   5.307   5.729  12.642 -0.0547  0.1830 -0.2257
19464TIP3    H179883   5.336   5.820  12.638  0.9430 -0.0432  1.1979
19464TIP3    H279884   5.215   5.735  12.668 -0.1824  0.7927 -0.7786
19465TIP3   OH279885   2.585   5.813  10.978 -0.2294  0.5164  0.4291
19465TIP3    H179886   2.561   5.892  10.930 -1.3614 -0.6969 -1.1412
19465TIP3    H279887   2.505   5.789  11.026 -0.5163 -0.6103 -0.5490
19466TIP3   OH279888   5.518   3.850   0.779 -0.6510 -0.4626  0.0890
19466TIP3    H179889   5.539   3.871   0.688  1.1808 -0.6985  0.4331
19466TIP3    H279890   5.565   3.770   0.798 -2.2669 -1.2944  0.8168
19467TIP3   OH279891   0.933   0.045   3.828 -0.2887  0.3520 -0.0897
19467TIP3    H179892   0.946   0.004   3.742 -2.0172 -0.0761 -0.1851
19467TIP3    H279893   0.875   0.119   3.810 -1.1790 -0.1141  0.7801
19468TIP3   OH279894   5.586   1.389   0.355  0.5893  0.0178  0.2739
19468TIP3    H179895   5.498   1.391   0.392  0.8075 -0.2587  0.8214
19468TIP3    H279896   5.642   1.358   0.427  0.5521 -4.0598 -1.2014
19469TIP3   OH279897   5.287   6.511   1.216  0.0594 -0.5482  0.1752
19469TIP3    H179898   5.335   6.586   1.180  0.7864 -1.2959 -0.4373
19469TIP3    H279899   5.323   6.435   1.171 -1.4427 -1.1794 -0.0154
19470TIP3   OH279900   5.093   0.096   2.827  0.1914  0.2476 -0.7184
19470TIP3    H179901   5.037   0.079   2.752  1.3628  0.0548 -1.5804
19470TIP3    H279902   5.079   0.021   2.885  0.4086 -0.3705 -1.4521
19471TIP3   OH279903   0.338   0.649  11.545 -0.3087 -1.1113  0.3095
19471TIP3    H179904   0.269   0.681  11.603 -0.5256 -3.0482  1.1834
19471TIP3    H279905   0.388   0.588  11.599 -0.0985 -2.4563 -1.3351
19472TIP3   OH279906   3.149   5.140   2.196 -0.0807 -0.1900  0.6845
19472TIP3    H179907   3.147   5.047   2.218  1.3476 -0.1247  1.1660
19472TIP3    H279908   3.241   5.165   2.204 -0.2843  1.0310 -0.4481
19473TIP3   OH279909   0.970   4.633   3.009  0.0685 -0.3404  0.4702
19473TIP3    H179910   0.917   4.700   3.053 -0.5082 -1.6291  1.8364
19473TIP3    H279911   0.973   4.661   2.918 -0.3961  1.3798  0.9412
19474TIP3   OH279912   5.567   5.933  11.478  0.1817  0.1999  0.0715
19474TIP3    H179913   5.552   6.003  11.415  1.8521 -0.1938 -0.8203
19474TIP3    H279914   5.514   5.859  11.446  0.4213  0.2480 -0.4498
19475TIP3   OH279915   4.973   4.854  14.025 -0.0368  0.0342 -0.0994
19475TIP3    H179916   5.059   4.862  14.066  0.0002  1.7255 -0.4534
19475TIP3    H279917   4.927   4.790  14.079  0.9135  0.2425  1.0040
19476TIP3   OH279918   0.491   2.753   5.596  0.4600 -0.3889 -0.0149
19476TIP3    H179919   0.555   2.684   5.613  0.5754 -0.7820 -1.8331
19476TIP3    H279920   0.544   2.832   5.588  0.4953 -0.3578  0.4890
19477TIP3   OH279921   0.351   1.333  14.393 -0.0422 -0.1363  0.3085
19477TIP3    H179922   0.432   1.293  14.362  0.7282  1.9683 -0.5577
19477TIP3    H279923   0.378   1.417  14.430 -2.0004  1.9852 -2.6129
19478TIP3   OH279924   3.325   0.080   4.845  0.1613 -0.2998 -0.8541
19478TIP3    H179925   3.354  -0.011   4.838 -0.6791 -0.4886 -2.0826
19478TIP3    H279926   3.307   0.091   4.939  0.5930 -1.2899 -0.6349
19479TIP3   OH279927   2.320   5.793   2.671 -0.2238  0.2424 -0.0696
19479TIP3    H179928   2.306   5.789   2.577  0.4219 -2.1761 -0.1304
19479TIP3    H279929   2.412   5.818   2.681 -0.0012 -0.5349 -0.1252
19480TIP3   OH279930   2.053   5.297   1.444  0.0525  0.4208 -0.1636
19480TIP3    H179931   1.977   5.350   1.470  0.1034  0.5803 -0.3367
19480TIP3    H279932   2.115   5.305   1.516  0.6720  1.7879 -0.8113
19481TIP3   OH279933   5.008   5.215   4.624 -0.0382 -0.2307 -0.3249
19481TIP3    H179934   5.029   5.303   4.591  4.7979 -1.1980 -0.5219
19481TIP3    H279935   5.001   5.227   4.719 -1.5278  0.6043 -0.5038
19482TIP3   OH279936   5.880   3.545  15.761  0.2418 -0.3933  0.5486
19482TIP3    H179937   5.924   3.554  15.845 -0.2833 -0.2723  0.8091
19482TIP3    H279938   5.943   3.580  15.698  0.8610 -1.0051  0.8225
19483TIP3   OH279939   4.741   3.656  11.431 -0.2696  0.0010  0.2131
19483TIP3    H179940   4.681   3.670  11.357  2.0722  1.7196 -1.5362
19483TIP3    H279941   4.745   3.561  11.441  1.7701 -0.6410 -4.2425
19484TIP3   OH279942   5.632   0.734  13.108 -0.1212  0.0388 -0.0830
19484TIP3    H179943   5.629   0.666  13.041 -0.1319  0.7758 -0.8570
19484TIP3    H279944   5.724   0.758  13.114 -0.1658  0.2196 -0.1013
19485TIP3   OH279945   1.801   3.218  13.426  0.0080  0.7502 -0.2274
19485TIP3    H179946   1.821   3.273  13.502  0.4045 -0.2766  0.4319
19485TIP3    H279947   1.706   3.210  13.427  0.1167 -1.0860  1.5316
19486TIP3   OH279948   5.021   3.856  16.483 -0.0421  0.0915 -0.1428
19486TIP3    H179949   5.072   3.934  16.504  0.4063  0.0221 -0.9513
19486TIP3    H279950   5.050   3.831  16.395  0.1040 -1.2095  0.2586
19487TIP3   OH279951   1.528   4.970  10.264 -0.5056  0.0170  0.1640
19487TIP3    H179952   1.623   4.967  10.278 -0.5262 -0.0166  0.2994
19487TIP3    H279953   1.491   4.969  10.352 -0.6885 -2.0270  0.1104
19488TIP3   OH279954   1.367   0.458  13.527  0.0596  0.4767  0.5565
19488TIP3    H179955   1.312   0.399  13.578  0.3739  0.5042  0.9376
19488TIP3    H279956   1.314   0.481  13.450  0.4440 -1.3685 -0.3129
19489TIP3   OH279957   0.521   1.188  14.216 -0.2715  0.1611 -0.4351
19489TIP3    H179958   0.573   1.115  14.251 -0.5325  1.0517  1.9854
19489TIP3    H279959   0.447   1.145  14.172  1.8078 -1.0943 -2.9609
19490TIP3   OH279960   3.453   5.653  17.343  0.2881 -0.3207 -0.0388
19490TIP3    H179961   3.475   5.563  17.366  0.7928 -0.2000 -0.0263
19490TIP3    H279962   3.359   5.660  17.357 -0.3179 -1.6816 -2.8356
19491TIP3   OH279963   6.610   0.492   1.858 -0.2194  0.0094 -0.1814
19491TIP3    H179964   6.603   0.402   1.890 -0.9611  0.1481  0.0562
19491TIP3    H279965   6.653   0.540   1.928  1.3096 -0.3997 -0.7932
19492TIP3   OH279966   4.784   1.820  16.107 -0.6330  0.0208  0.1299
19492TIP3    H179967   4.860   1.868  16.138  0.0358 -0.6360 -0.4583
19492TIP3    H279968   4.746   1.780  16.185 -0.6087  0.6689  0.4776
19493TIP3   OH279969   4.999   6.787   9.980  0.1728 -0.7730 -0.5429
19493TIP3    H179970   5.041   6.857   9.932 -0.5299  0.5102  0.6460
19493TIP3    H279971   5.072   6.741  10.024  0.7017 -1.2855 -1.9185
19494TIP3   OH279972   4.764   4.745   1.011  0.1126  0.0019  0.3987
19494TIP3    H179973   4.805   4.755   1.097  1.0330 -0.4381  0.0261
19494TIP3    H279974   4.740   4.652   1.007  1.0982 -0.2422 -0.2474
19495TIP3   OH279975   2.818   3.937  13.109 -0.0843 -0.3567  0.8163
19495TIP3    H179976   2.900   3.987  13.108 -0.7563  0.7939 -0.0998
19495TIP3    H279977   2.757   3.992  13.061 -0.6291 -2.5360 -1.1525
19496TIP3   OH279978   4.690   6.740   0.956 -0.0972 -0.7289  0.1569
19496TIP3    H179979   4.625   6.695   1.009 -1.7458  0.0903 -1.0614
19496TIP3    H279980   4.695   6.828   0.992 -1.5238 -0.0450 -1.2199
19497TIP3   OH279981   3.180   6.124   5.275  0.4639  0.7318 -0.0206
19497TIP3    H179982   3.094   6.163   5.289 -0.4345 -0.2012 -2.3880
19497TIP3    H279983   3.221   6.179   5.208  0.1565 -0.8616 -1.6062
19498TIP3   OH279984   6.385   0.211  11.331 -0.3094 -0.2252  0.0150
19498TIP3    H179985   6.334   0.292  11.336  0.9595  0.5066  2.6277
19498TIP3    H279986   6.425   0.213  11.244 -1.3794  1.2404 -0.4847
19499TIP3   OH279987   0.547   3.230  13.239  0.7444  0.0950 -0.5317
19499TIP3    H179988   0.542   3.288  13.315 -0.6072 -0.8204  0.1140
19499TIP3    H279989   0.534   3.287  13.164  0.1376  0.7351  0.0523
19500TIP3   OH279990   6.000   1.258  17.010 -0.1511  0.0932  0.2308
19500TIP3    H179991   6.090   1.243  16.978 -0.4113 -0.8403 -0.0817
19500TIP3    H279992   5.966   1.171  17.029 -1.0627  0.4277  0.1744
19501TIP3   OH279993   3.897   3.249   1.591 -0.1931 -0.5027  0.1395
19501TIP3    H179994   3.949   3.259   1.672 -1.0082 -1.8363  0.8517
19501TIP3    H279995   3.949   3.189   1.537  0.0250 -0.1474 -0.0485
19502TIP3   OH279996   6.516   3.981  13.447 -0.1317 -0.2387  0.3192
19502TIP3    H179997   6.435   3.946  13.484 -1.2495  1.1506 -0.7081
19502TIP3    H279998   6.515   4.074  13.472  1.0825 -0.1657  0.1550
19503TIP3   OH279999   5.931   3.562   0.178  1.0885  0.3267 -0.4725
19503TIP3    H180000   5.897   3.647   0.205  0.9893 -0.4942  2.3907
19503TIP3    H280001   6.023   3.564   0.205  0.8269 -0.7842  0.5856
19504TIP3   OH280002   2.206   5.749   2.907  0.5185  0.3709  0.4767
19504TIP3    H180003   2.252   5.782   2.984 -1.1551  1.1020  1.2114
19504TIP3    H280004   2.245   5.796   2.833 -0.1102  2.1545  1.2486
19505TIP3   OH280005   4.736   2.101  15.565 -0.4060  0.6505 -0.2335
19505TIP3    H180006   4.668   2.143  15.513 -1.0726 -1.7362 -1.4218
19505TIP3    H280007   4.817   2.144  15.538 -1.1457  1.8356 -0.6352
19506TIP3   OH280008   0.934   3.684   3.822  0.4305  0.2942  0.5904
19506TIP3    H180009   0.987   3.743   3.769  0.5142 -0.4901 -0.2276
19506TIP3    H280010   0.870   3.647   3.761 -0.1284  0.1370  1.2582
19507TIP3   OH280011   0.250   2.864  13.747 -0.0057  0.7392  0.0313
19507TIP3    H180012   0.329   2.887  13.699  0.2939  1.3077  0.7887
19507TIP3    H280013   0.206   2.801  13.690  0.9227  0.5071 -0.4574
19508TIP3   OH280014   5.699   4.071   4.031  0.7148  0.3636 -0.3464
19508TIP3    H180015   5.772   4.131   4.015  1.1427 -0.2660 -0.8102
19508TIP3    H280016   5.731   4.011   4.098 -0.0395  1.1939  0.8046
19509TIP3   OH280017   2.654   2.166  13.869 -0.4807  0.4966 -0.3787
19509TIP3    H180018   2.688   2.077  13.873  0.6437  0.8063 -2.0088
19509TIP3    H280019   2.563   2.156  13.843 -0.8111 -0.2089  0.9521
19510TIP3   OH280020   4.552   6.067  14.339  0.5331  0.0706 -0.3458
19510TIP3    H180021   4.550   6.153  14.381 -0.5466 -0.7272  1.3464
19510TIP3    H280022   4.460   6.043  14.328  0.8144 -0.7405 -1.1070
19511TIP3   OH280023   2.832   3.259   4.832 -0.0767  0.3048 -0.1207
19511TIP3    H180024   2.840   3.238   4.739  1.9873 -0.2637  0.1282
19511TIP3    H280025   2.778   3.189   4.869  0.3552 -0.3072 -0.6357
19512TIP3   OH280026   1.946   6.234   5.380 -0.1257 -0.0582 -0.2423
19512TIP3    H180027   2.025   6.287   5.365 -0.1415  0.1141  0.2638
19512TIP3    H280028   1.888   6.258   5.308 -0.0414  0.4445 -0.1534
19513TIP3   OH280029   0.301   3.017  12.706 -0.1474 -0.1277  0.5002
19513TIP3    H180030   0.348   2.947  12.751  0.0077  0.0729  0.6495
19513TIP3    H280031   0.277   3.078  12.775  1.5003  0.9960  0.1286
19514TIP3   OH280032   0.145   5.500   3.508  0.0153  0.6977 -0.3936
19514TIP3    H180033   0.126   5.565   3.575  1.7559  1.5061 -0.6366
19514TIP3    H280034   0.079   5.515   3.440 -0.2905  1.4531  0.0649
19515TIP3   OH280035   1.147   5.082   3.955 -0.2155 -0.4930 -0.3072
19515TIP3    H180036   1.093   5.063   3.878  0.3669  1.1072 -1.1716
19515TIP3    H280037   1.206   5.152   3.926  2.7239 -2.4631  0.4151
19516TIP3   OH280038   3.373   5.498  15.683 -0.1082 -0.3228 -0.0997
19516TIP3    H180039   3.412   5.421  15.723  1.5785  0.5135 -0.0611
19516TIP3    H280040   3.447   5.552  15.656 -1.1435  2.1170  1.5018
19517TIP3   OH280041   2.740   4.644   3.439 -0.5044 -0.4992  0.0683
19517TIP3    H180042   2.684   4.722   3.437 -0.5423 -0.5321 -0.1185
19517TIP3    H280043   2.785   4.650   3.524 -0.5788 -0.3249  0.0971
19518TIP3   OH280044   0.448   5.313  14.706  0.1476  0.1554  0.0926
19518TIP3    H180045   0.505   5.361  14.767  1.7199 -0.3872 -0.9051
19518TIP3    H280046   0.487   5.328  14.620  0.9103 -3.0869 -0.2505
19519TIP3   OH280047   0.763   0.188  13.497  0.2106 -0.1342  0.0143
19519TIP3    H180048   0.778   0.153  13.409  0.1431 -0.9352  0.3146
19519TIP3    H280049   0.850   0.214  13.527  0.0807  1.3496 -0.7623
19520TIP3   OH280050   4.981   4.839  16.835 -0.1603 -0.1811 -0.3110
19520TIP3    H180051   4.929   4.845  16.755 -1.7573 -1.4066  0.5745
19520TIP3    H280052   5.065   4.804  16.806 -0.3259  0.4023 -1.5763
19521TIP3   OH280053   1.877   3.271   1.924 -0.1600  0.1877  0.4621
19521TIP3    H180054   1.936   3.218   1.977  0.1155 -1.7470 -1.6282
19521TIP3    H280055   1.929   3.348   1.901  0.4345  0.0351  1.2435
19522TIP3   OH280056   4.931   5.259  16.452 -0.6278 -0.1469 -0.2352
19522TIP3    H180057   4.869   5.329  16.470  0.7971  1.2780 -0.6756
19522TIP3    H280058   4.877   5.188  16.417 -1.9427  1.2827 -1.2265
19523TIP3   OH280059   1.516   0.384  16.578 -0.3257 -0.7718 -0.3295
19523TIP3    H180060   1.587   0.424  16.629 -0.1020 -0.1929 -1.0696
19523TIP3    H280061   1.462   0.339  16.643  0.3165 -0.6072  0.3351
19524TIP3   OH280062   6.026   3.052   4.301  0.0254  0.3306  0.3360
19524TIP3    H180063   5.995   3.125   4.248 -0.8198  1.0098  1.6947
19524TIP3    H280064   5.949   2.995   4.311  0.6689 -0.7774 -0.6935
19525TIP3   OH280065   0.052   2.334   3.934  0.5340 -0.4614  0.3188
19525TIP3    H180066   0.014   2.336   4.022 -0.8820 -2.1935 -0.1897
19525TIP3    H280067   0.044   2.243   3.906 -1.1489  0.4043 -2.4455
19526TIP3   OH280068   3.756   2.246   5.998  0.0156  0.0883  0.4109
19526TIP3    H180069   3.720   2.286   6.077  1.0524  1.0822  0.4066
19526TIP3    H280070   3.696   2.174   5.978 -0.6013  0.1981  1.7480
19527TIP3   OH280071   3.724   6.556   3.165  0.1629 -0.1436 -0.4494
19527TIP3    H180072   3.803   6.597   3.130  0.7058 -1.0192 -0.2636
19527TIP3    H280073   3.685   6.512   3.090 -0.5590  0.8958 -0.7062
19528TIP3   OH280074   0.804   4.878  15.233 -0.7329  0.2993 -0.8128
19528TIP3    H180075   0.713   4.899  15.252 -1.2014 -2.0181 -0.1510
19528TIP3    H280076   0.855   4.928  15.296 -1.5526  1.2618 -0.8910
19529TIP3   OH280077   3.780   4.342  13.656 -0.4615 -0.0044  0.4375
19529TIP3    H180078   3.771   4.290  13.576  0.0800  0.3036  0.1674
19529TIP3    H280079   3.701   4.323  13.707 -0.3389 -0.9876  0.2810
19530TIP3   OH280080   0.525   5.568  13.807 -0.3041  0.7406  0.0213
19530TIP3    H180081   0.486   5.540  13.724  0.7602  0.2880 -0.3419
19530TIP3    H280082   0.607   5.519  13.812  1.1537  3.0558 -0.1266
19531TIP3   OH280083   4.507   1.650  15.394  0.4473  0.2133  0.0596
19531TIP3    H180084   4.436   1.626  15.453 -0.2955  1.5296 -0.2475
19531TIP3    H280085   4.560   1.712  15.444  0.7885  0.0310 -0.0744
19532TIP3   OH280086   1.676   3.971   5.954  0.1940  0.3296 -0.8578
19532TIP3    H180087   1.732   4.016   5.891  0.2902  1.2852 -0.1032
19532TIP3    H280088   1.662   4.034   6.024  0.2632 -0.7895  0.1994
19533TIP3   OH280089   0.286   0.959  14.914 -0.0741 -0.0629  0.0106
19533TIP3    H180090   0.210   1.009  14.885  0.3857  0.1806 -0.8213
19533TIP3    H280091   0.278   0.956  15.009 -0.8597  0.3830 -0.0330
19534TIP3   OH280092   1.250   1.434   0.235 -0.7000 -0.0900  0.0483
19534TIP3    H180093   1.211   1.435   0.148 -0.4988  2.0770 -0.0645
19534TIP3    H280094   1.255   1.341   0.258 -0.2063 -0.7666 -2.4761
19535TIP3   OH280095   0.242   4.408   2.477 -0.3234  0.3226 -0.0855
19535TIP3    H180096   0.306   4.383   2.410 -0.4508  1.6454 -0.7143
19535TIP3    H280097   0.195   4.326   2.496 -0.5825 -0.0013 -1.9275
19536TIP3   OH280098   3.123   6.195   0.551 -0.3253 -0.0485 -0.1070
19536TIP3    H180099   3.055   6.261   0.566  0.0744  0.1777  0.7968
19536TIP3    H280100   3.105   6.128   0.617 -0.9065 -0.9984 -1.2139
19537TIP3   OH280101   5.110   4.996  16.219  0.4316 -0.4319  0.1247
19537TIP3    H180102   5.156   4.950  16.289 -0.4321 -1.1369  0.2462
19537TIP3    H280103   5.031   5.031  16.261  1.7914  2.6076  0.4504
19538TIP3   OH280104   1.358   6.016   1.590  0.0150 -1.1925 -0.3872
19538TIP3    H180105   1.411   5.998   1.668  1.0763 -2.3400 -1.3169
19538TIP3    H280106   1.282   6.063   1.623  1.0286 -0.5345  1.1713
19539TIP3   OH280107   5.723   1.447  15.767 -0.1165 -0.4138 -0.3558
19539TIP3    H180108   5.643   1.445  15.715 -1.0237 -2.1079  1.0226
19539TIP3    H280109   5.724   1.535  15.806 -1.9175 -0.7405  0.4935
19540TIP3   OH280110   5.073   4.145   5.643 -0.5764  0.1587  0.4609
19540TIP3    H180111   5.020   4.162   5.721 -2.1743 -2.2198 -0.0080
19540TIP3    H280112   5.010   4.133   5.573  0.7098 -0.1154 -0.6945
19541TIP3   OH280113   4.921   4.442   5.198  0.0565  0.5140  0.2226
19541TIP3    H180114   4.985   4.496   5.245 -0.2983  0.4052  0.8409
19541TIP3    H280115   4.840   4.452   5.248 -0.8192  1.8155 -1.3596
19542TIP3   OH280116   4.867   3.753  14.184  0.4400 -0.3786  0.2670
19542TIP3    H180117   4.936   3.811  14.152 -0.0672 -1.1264 -2.4560
19542TIP3    H280118   4.913   3.687  14.236  2.0640 -1.4206 -2.2602
19543TIP3   OH280119   3.630   6.183   4.716  0.2798 -0.5023  0.5822
19543TIP3    H180120   3.643   6.090   4.732  1.4869 -0.8349 -1.9133
19543TIP3    H280121   3.716   6.217   4.693 -0.4520  0.7917 -0.4582
19544TIP3   OH280122   4.561   0.243  16.612  0.4035  0.3894 -0.2416
19544TIP3    H180123   4.549   0.149  16.596 -1.3544  0.5060  0.1883
19544TIP3    H280124   4.624   0.270  16.545 -0.5820 -0.7161 -1.7004
19545TIP3   OH280125   4.666   1.596   0.015 -0.2285 -0.5651  0.2071
19545TIP3    H180126   4.745   1.631   0.058  0.0466 -0.7466 -0.1460
19545TIP3    H280127   4.620   1.673  -0.017 -1.2730 -0.2713  2.2055
19546TIP3   OH280128   2.987   1.273   6.497  0.2538  0.5063 -0.0742
19546TIP3    H180129   3.040   1.276   6.577  1.1782 -0.6894 -0.6178
19546TIP3    H280130   2.900   1.301   6.525  0.3740 -0.5671  1.5051
19547TIP3   OH280131   4.004   0.817   1.241 -0.0950 -0.4216  0.4742
19547TIP3    H180132   3.911   0.804   1.260  0.0945  0.0170  1.7777
19547TIP3    H280133   4.027   0.745   1.182 -1.3551 -0.2861 -0.1967
19548TIP3   OH280134   3.721   6.396   5.585 -0.1504 -0.0274 -0.4606
19548TIP3    H180135   3.757   6.335   5.650  1.7542 -0.5127 -1.8770
19548TIP3    H280136   3.743   6.483   5.619  0.6783 -0.2677 -0.3563
19549TIP3   OH280137   6.429   3.552   1.423  0.2631 -0.7072 -0.1910
19549TIP3    H180138   6.387   3.638   1.430  0.8174 -0.1890 -2.4597
19549TIP3    H280139   6.521   3.568   1.441  0.3888 -0.7805 -0.7394
19550TIP3   OH280140   1.211   0.773  15.042  0.2811  0.2327 -0.0864
19550TIP3    H180141   1.191   0.859  15.080  1.4970  0.9173 -0.9005
19550TIP3    H280142   1.161   0.771  14.960  2.5029  1.5078 -1.5987
19551TIP3   OH280143   0.046   0.706   1.768 -0.3952 -0.1772 -0.1625
19551TIP3    H180144   0.041   0.696   1.863 -2.3167  2.1686  0.0663
19551TIP3    H280145  -0.045   0.721   1.741  0.0059 -1.4266 -2.5047
19552TIP3   OH280146   5.612   0.351   2.740  0.2827 -0.1882  0.5664
19552TIP3    H180147   5.632   0.375   2.649  1.0892 -1.2963  0.4363
19552TIP3    H280148   5.621   0.256   2.742 -1.4746 -0.3714  1.3937
19553TIP3   OH280149   5.846   6.059   1.150  0.1368 -0.2432  1.0659
19553TIP3    H180150   5.871   6.000   1.079 -0.3705 -0.1725  0.8200
19553TIP3    H280151   5.925   6.070   1.201  0.5255 -0.2558  0.4784
19554TIP3   OH280152   4.489   5.529   6.022  0.2176 -0.3291  0.8378
19554TIP3    H180153   4.454   5.446   5.989  1.9873 -0.8174  0.0484
19554TIP3    H280154   4.427   5.556   6.090 -1.0223 -1.6957  0.3116
19555TIP3   OH280155   1.091   6.021   2.362  0.4492 -0.0241 -0.4814
19555TIP3    H180156   1.013   6.045   2.312 -0.4156 -1.9045 -0.1207
19555TIP3    H280157   1.156   6.087   2.339 -1.0877  1.3102 -1.1711
19556TIP3   OH280158   5.591   4.802   1.079  0.1076 -0.0589 -0.1197
19556TIP3    H180159   5.570   4.792   1.172 -1.8694  2.3625 -0.1932
19556TIP3    H280160   5.514   4.768   1.033  0.1672  0.6373 -0.7645
19557TIP3   OH280161   4.259   0.012  15.479  0.3472  0.4896  0.1734
19557TIP3    H180162   4.324  -0.058  15.471  1.2833  1.4906 -1.6396
19557TIP3    H280163   4.221  -0.000  15.566  0.7446 -2.0108  0.0630
19558TIP3   OH280164   6.351   4.139  12.110 -0.2133 -0.2304  0.2744
19558TIP3    H180165   6.381   4.079  12.042 -2.0606 -1.9313  0.8554
19558TIP3    H280166   6.422   4.203  12.119  2.1546 -2.6283  0.0011
19559TIP3   OH280167   5.791   0.206  12.391 -0.1614  0.2457 -0.0583
19559TIP3    H180168   5.845   0.284  12.403  0.8293 -0.3832 -0.2790
19559TIP3    H280169   5.849   0.143  12.349 -1.8239  0.4030 -2.8107
19560TIP3   OH280170   1.714   1.674   4.732  0.1972  0.1264  0.0960
19560TIP3    H180171   1.778   1.645   4.668  0.0273  0.0076 -0.0216
19560TIP3    H280172   1.760   1.673   4.816  0.3166 -0.0580  0.0267
19561TIP3   OH280173   4.963   6.192  16.321 -0.2788  0.7283 -0.1434
19561TIP3    H180174   5.037   6.204  16.262 -0.3603 -2.0314 -0.9855
19561TIP3    H280175   4.966   6.098  16.343 -3.1164  0.6645  0.3198
19562TIP3   OH280176   4.724   5.269  15.808 -0.1334 -0.4040  0.4704
19562TIP3    H180177   4.709   5.355  15.770 -2.7303 -0.5321  1.0041
19562TIP3    H280178   4.720   5.208  15.734 -0.9823 -0.2843  0.4116
19563TIP3   OH280179   6.329   3.669  13.539  0.2517 -0.1821 -0.1707
19563TIP3    H180180   6.326   3.624  13.454 -0.7910  0.2656 -0.3859
19563TIP3    H280181   6.353   3.759  13.517  1.3645 -0.3883  0.1619
19564TIP3   OH280182   5.116   2.510   3.066 -0.7917  0.1220 -0.5411
19564TIP3    H180183   5.155   2.432   3.026 -2.2506  0.1628 -2.1520
19564TIP3    H280184   5.172   2.529   3.142  2.0328 -0.0957 -2.4079
19565TIP3   OH280185   5.300   0.966   5.389  0.0485 -0.0152 -0.1270
19565TIP3    H180186   5.366   0.908   5.352 -0.3894 -0.8319  0.3544
19565TIP3    H280187   5.236   0.977   5.318  0.6030  0.6379 -0.5336
19566TIP3   OH280188   4.175   2.820   5.159  0.0085  0.0487 -0.6001
19566TIP3    H180189   4.170   2.731   5.123  2.1496 -0.7985  0.9571
19566TIP3    H280190   4.251   2.858   5.116 -0.7806  1.0866 -1.1041
19567TIP3   OH280191   0.173   1.449  16.989  0.2604  0.2863 -0.2768
19567TIP3    H180192   0.170   1.448  16.893  1.0123  0.1766 -0.3112
19567TIP3    H280193   0.172   1.356  17.014  0.3751  0.3046 -0.1997
19568TIP3   OH280194   0.253   1.463   4.896 -0.1681 -0.4809  0.2372
19568TIP3    H180195   0.263   1.528   4.826 -1.5447  1.6080  1.8564
19568TIP3    H280196   0.159   1.460   4.914  0.1409 -0.9273  1.9940
19569TIP3   OH280197   4.895   4.920   0.151 -0.0205 -0.8375 -0.1943
19569TIP3    H180198   4.826   4.963   0.100 -0.8862 -0.6528  1.0687
19569TIP3    H280199   4.959   4.989   0.169 -0.8147 -0.3259  0.8097
19570TIP3   OH280200   0.339   5.988  12.310  0.6858  0.5991  0.2031
19570TIP3    H180201   0.273   5.938  12.262  0.4872  2.6440 -1.8125
19570TIP3    H280202   0.421   5.966  12.268  0.9247  0.1998  0.8645
19571TIP3   OH280203   4.779   1.313   1.635  0.1616  0.4364 -0.7075
19571TIP3    H180204   4.794   1.381   1.570  0.1424  1.3066  0.1830
19571TIP3    H280205   4.861   1.263   1.637  1.4502  2.4790  0.9973
19572TIP3   OH280206   0.805   6.671  16.842 -1.0730 -0.2160  0.2869
19572TIP3    H180207   0.841   6.597  16.891  0.5594  0.4197  0.1296
19572TIP3    H280208   0.760   6.724  16.907 -0.4258 -0.2728  0.7941
19573TIP3   OH280209   4.788   6.541  12.009 -0.8212 -0.0462 -0.1635
19573TIP3    H180210   4.883   6.536  12.000 -0.6812 -0.4903  1.2826
19573TIP3    H280211   4.757   6.453  11.991 -1.0537  0.2790 -1.4229
19574TIP3   OH280212   2.295   3.094  11.428 -0.8193 -0.4061  0.7480
19574TIP3    H180213   2.227   3.027  11.422 -0.4637 -0.7792  0.7960
19574TIP3    H280214   2.295   3.120  11.520 -2.7539  1.5834  0.2650
19575TIP3   OH280215   3.646   6.546  16.642 -0.3918 -0.2719 -0.4356
19575TIP3    H180216   3.609   6.621  16.596 -1.2877 -1.8592 -2.4789
19575TIP3    H280217   3.741   6.556  16.631 -0.4939  0.6012 -0.5943
19576TIP3   OH280218   4.513   0.350   3.725 -0.1491  0.3072  0.4501
19576TIP3    H180219   4.543   0.359   3.815  0.7058 -0.2571  0.2343
19576TIP3    H280220   4.434   0.296   3.731  1.3231 -1.9825  0.6754
19577TIP3   OH280221   2.670   5.932  10.617 -0.0797  0.3785 -0.3909
19577TIP3    H180222   2.602   5.965  10.559  1.2254  0.5120 -1.9257
19577TIP3    H280223   2.686   6.003  10.679 -1.1622  0.4202 -0.1437
19578TIP3   OH280224   5.884   5.363  11.288 -0.7193  0.6603 -0.1261
19578TIP3    H180225   5.932   5.359  11.371 -0.3173  1.1077 -0.3263
19578TIP3    H280226   5.952   5.356  11.221 -0.9994  0.6903 -0.4148
19579TIP3   OH280227   2.272   1.782   2.624 -0.7934 -0.4275 -0.3402
19579TIP3    H180228   2.343   1.804   2.685 -2.5956 -0.4588  1.9282
19579TIP3    H280229   2.303   1.813   2.539  2.9550 -2.5760 -0.0083
19580TIP3   OH280230   1.814   2.615   4.224 -0.4197  0.4584 -0.0519
19580TIP3    H180231   1.824   2.709   4.210 -0.5002  0.7377  1.5984
19580TIP3    H280232   1.834   2.602   4.317  0.3826 -1.2759 -0.4205
19581TIP3   OH280233   5.905   1.231  16.715 -0.0606 -0.2223  0.6953
19581TIP3    H180234   5.998   1.234  16.737 -0.3149 -1.0043  1.9116
19581TIP3    H280235   5.859   1.224  16.799 -1.1272 -1.7288  0.0411
19582TIP3   OH280236   5.507   0.272  13.555  0.1581  0.5796 -0.0235
19582TIP3    H180237   5.534   0.360  13.528 -0.0428  1.1545  1.5754
19582TIP3    H280238   5.415   0.281  13.578  0.5522  0.3562  1.7630
19583TIP3   OH280239   0.725   3.689   2.809  0.2656  0.3579 -0.5280
19583TIP3    H180240   0.703   3.634   2.884 -1.1796  0.7448 -0.6313
19583TIP3    H280241   0.770   3.764   2.847 -0.9906  0.8424  0.0462
19584TIP3   OH280242   2.511   2.025   5.158 -0.8267  0.5437  0.4914
19584TIP3    H180243   2.465   2.010   5.240 -0.8522  0.6512  0.4977
19584TIP3    H280244   2.544   2.115   5.166 -1.1865  0.7023  0.2129
19585TIP3   OH280245   1.448   0.797   1.845  0.2226  0.2570 -0.1387
19585TIP3    H180246   1.431   0.858   1.917 -1.8323  1.0506 -1.2022
19585TIP3    H280247   1.380   0.730   1.854  0.1663  0.1678 -1.1186
19586TIP3   OH280248   1.198   1.422   0.579 -0.3701  0.4669 -0.3506
19586TIP3    H180249   1.180   1.356   0.512  0.3726  0.8636 -0.9561
19586TIP3    H280250   1.286   1.401   0.611 -1.8320 -1.6060  2.7507
19587TIP3   OH280251   5.930   4.889  12.123  0.9634  0.7129  0.3306
19587TIP3    H180252   6.000   4.930  12.073  0.1804  1.8740  0.1346
19587TIP3    H280253   5.856   4.886  12.062  0.1195  1.7685  1.2517
19588TIP3   OH280254   3.555   0.161  16.400  0.2484 -0.3767  0.3010
19588TIP3    H180255   3.575   0.254  16.406 -0.6732 -0.1901  0.7139
19588TIP3    H280256   3.567   0.139  16.307 -1.5305  0.6531 -0.2176
19589TIP3   OH280257   0.358   2.737  17.211 -0.9660  0.2414 -0.1364
19589TIP3    H180258   0.421   2.757  17.141 -0.2762 -0.4293  0.2859
19589TIP3    H280259   0.276   2.776  17.180 -0.3312  1.2197 -0.6473
19590TIP3   OH280260   3.776   3.630   1.221 -0.6728  0.0281 -0.0559
19590TIP3    H180261   3.716   3.628   1.295 -1.0566  1.5922 -0.2776
19590TIP3    H280262   3.774   3.721   1.191  1.4193  0.0288 -0.3877
19591TIP3   OH280263   4.346   4.178   2.498  0.6898  0.6130 -0.2475
19591TIP3    H180264   4.412   4.119   2.535  0.0972 -1.9911 -2.9703
19591TIP3    H280265   4.398   4.252   2.464  1.9737 -0.2585 -0.2775
19592TIP3   OH280266   1.072   3.710  11.767 -0.7829  0.0330 -0.4110
19592TIP3    H180267   1.015   3.745  11.835 -1.3061 -0.0791 -0.7845
19592TIP3    H280268   1.128   3.784  11.742 -1.7828  0.5789 -1.0959
19593TIP3   OH280269   6.026   6.110  11.541  0.4999 -0.6800  0.3571
19593TIP3    H180270   6.065   6.194  11.516 -0.3524  0.6689  3.1832
19593TIP3    H280271   5.948   6.102  11.486 -0.0813  1.0215  0.8733
19594TIP3   OH280272   2.926   2.963   2.631  0.0241  0.0208  0.6306
19594TIP3    H180273   3.006   2.937   2.677 -0.1602  0.2730  1.0949
19594TIP3    H280274   2.871   2.884   2.632  0.4251 -0.2803 -0.0526
19595TIP3   OH280275   5.484   5.910   3.064 -0.2408 -0.2751  0.2856
19595TIP3    H180276   5.572   5.908   3.029 -0.1351 -0.7362  0.5710
19595TIP3    H280277   5.474   5.999   3.099 -0.6954  0.5303 -1.7491
19596TIP3   OH280278   4.655   6.011   4.586  0.2715 -0.5057 -0.4234
19596TIP3    H180279   4.572   5.965   4.576 -0.7041  1.4650 -2.1721
19596TIP3    H280280   4.672   6.010   4.681 -1.8413 -0.7739 -0.0090
19597TIP3   OH280281   5.877   3.813  16.225 -0.3823 -0.2024  0.5602
19597TIP3    H180282   5.814   3.751  16.262  0.4107 -0.9594  0.6741
19597TIP3    H280283   5.863   3.807  16.131 -0.9170  0.1114  0.6141
19598TIP3   OH280284   6.008   0.360   3.132  0.7494 -0.3208  0.2942
19598TIP3    H180285   5.921   0.399   3.141  0.4769 -0.6684 -0.6762
19598TIP3    H280286   6.005   0.281   3.186 -0.0265 -1.0837 -0.8176
19599TIP3   OH280287   4.100   0.408  13.495  0.6396  0.5959 -0.0050
19599TIP3    H180288   4.180   0.355  13.495 -0.5551 -1.3710 -2.1675
19599TIP3    H280289   4.066   0.400  13.406 -1.4305  2.2555  0.5682
19600TIP3   OH280290   5.282   4.859   0.777  0.5831 -0.5329 -0.8230
19600TIP3    H180291   5.302   4.779   0.827 -2.4753 -0.5399  0.6696
19600TIP3    H280292   5.333   4.927   0.821  0.2200 -1.0560  0.4891
19601TIP3   OH280293   6.433   0.389  15.828 -0.1219  0.1129 -0.3140
19601TIP3    H180294   6.506   0.419  15.774 -0.0026 -1.8538 -1.3647
19601TIP3    H280295   6.401   0.467  15.872  1.9055  1.2138 -0.6983
19602TIP3   OH280296   0.966   5.444  13.339  0.1258 -0.8925  0.5364
19602TIP3    H180297   0.929   5.407  13.419  0.8755 -0.6408  1.0090
19602TIP3    H280298   0.910   5.411  13.269 -0.1343 -1.6616  1.0985
19603TIP3   OH280299   6.473   1.453  11.239 -0.4655  0.7492 -0.1327
19603TIP3    H180300   6.456   1.545  11.218 -1.3888  0.8666  1.0345
19603TIP3    H280301   6.421   1.404  11.174  0.5273  1.0199 -1.1604
19604TIP3   OH280302   4.926   5.903  14.298 -0.1449 -0.4316 -0.1256
19604TIP3    H180303   4.988   5.851  14.349 -0.3454  0.9308  1.6390
19604TIP3    H280304   4.840   5.872  14.326 -0.3606  2.3266  2.9029
19605TIP3   OH280305   4.341   3.965   5.981  0.0679 -0.2388 -0.5773
19605TIP3    H180306   4.432   3.986   6.000  0.1971 -0.5389 -0.8385
19605TIP3    H280307   4.305   3.935   6.064  0.0305  0.4846 -0.3304
19606TIP3   OH280308   2.672   0.611   4.321 -0.1770  0.0749 -0.2620
19606TIP3    H180309   2.693   0.546   4.388  1.0441  0.0110 -0.6821
19606TIP3    H280310   2.576   0.616   4.321 -0.2587 -1.2646  0.2014
19607TIP3   OH280311   4.389   4.982   6.285 -0.0129 -0.5414 -0.1616
19607TIP3    H180312   4.352   4.924   6.219  0.0259 -0.7904  0.0331
19607TIP3    H280313   4.380   4.934   6.367  0.2739 -0.3879 -0.0376
19608TIP3   OH280314   1.513   0.153  14.672 -0.0672 -0.0134 -0.1108
19608TIP3    H180315   1.579   0.201  14.721  2.7062 -1.4121 -2.2324
19608TIP3    H280316   1.439   0.213  14.667  2.5544  3.4393 -1.2062
19609TIP3   OH280317   3.585   6.464   6.655 -0.2209 -0.3624 -0.1152
19609TIP3    H180318   3.591   6.476   6.750 -0.1961 -1.8682  0.0941
19609TIP3    H280319   3.514   6.522   6.628 -0.4934 -0.2117  0.8742
19610TIP3   OH280320   1.349   0.152  13.181 -0.2476  0.3037 -0.1572
19610TIP3    H180321   1.305   0.222  13.133 -0.0251  0.8011  0.3387
19610TIP3    H280322   1.442   0.165  13.160 -0.4078 -1.8464 -2.6555
19611TIP3   OH280323   1.531   0.894  13.109 -0.4297 -0.2260  0.3381
19611TIP3    H180324   1.597   0.963  13.099 -2.5452  1.8466 -0.4510
19611TIP3    H280325   1.499   0.905  13.199 -2.3288  1.4707 -0.4538
19612TIP3   OH280326   0.798   2.391   0.907 -0.3317 -0.1953 -0.2804
19612TIP3    H180327   0.809   2.296   0.901 -1.0224 -0.2853 -0.2251
19612TIP3    H280328   0.705   2.405   0.894 -0.3351  0.4258  0.3558
19613TIP3   OH280329   2.472   6.124   5.765  0.0784  0.2375  0.2707
19613TIP3    H180330   2.548   6.182   5.775 -0.2055  1.4461 -3.2501
19613TIP3    H280331   2.397   6.183   5.766 -0.7107 -0.7420  1.8633
19614TIP3   OH280332   0.683   0.626   1.609 -0.3267 -0.1876 -0.5462
19614TIP3    H180333   0.766   0.673   1.622  0.7034 -1.7592 -1.1846
19614TIP3    H280334   0.617   0.682   1.650  1.2481  0.3487  1.3988
19615TIP3   OH280335   1.689   2.113  15.328  0.4062 -0.0289 -0.3306
19615TIP3    H180336   1.709   2.132  15.420  0.7319  0.1597 -0.4390
19615TIP3    H280337   1.774   2.109  15.285  0.2302  0.5596 -0.7510
19616TIP3   OH280338   6.621   4.312   0.626 -0.1348 -0.5269 -0.2868
19616TIP3    H180339   6.674   4.250   0.677  1.4047  1.2489  0.3875
19616TIP3    H280340   6.684   4.375   0.592 -1.7970  1.8758  0.7815
19617TIP3   OH280341   3.925   6.720   4.850  0.1629 -0.5772 -0.5097
19617TIP3    H180342   3.860   6.686   4.789 -0.1503  0.3225 -0.6888
19617TIP3    H280343   3.874   6.766   4.917  0.5049 -1.4514  0.3768
19618TIP3   OH280344   4.687   2.775   2.267 -0.4544  0.3310  0.2558
19618TIP3    H180345   4.775   2.773   2.303 -0.4902 -1.0357  0.3279
19618TIP3    H280346   4.674   2.866   2.240  0.5087  0.8284  1.3557
19619TIP3   OH280347   2.325   1.601   6.736 -0.3917  0.2294  0.0660
19619TIP3    H180348   2.270   1.530   6.767 -0.0196  0.2454  0.8046
19619TIP3    H280349   2.276   1.681   6.758 -1.7110  0.2249 -2.4817
19620TIP3   OH280350   3.830   3.571   0.157  0.4549  0.0819  0.2246
19620TIP3    H180351   3.875   3.563   0.073  0.4722  1.9967  0.0136
19620TIP3    H280352   3.737   3.573   0.135  0.4911  1.6213  0.1191
19621TIP3   OH280353   5.552   6.513  11.892  0.0735  0.0696 -0.4260
19621TIP3    H180354   5.516   6.557  11.969  0.1240 -0.8390  0.1251
19621TIP3    H280355   5.569   6.423  11.920  0.2337 -0.2435 -1.4515
19622TIP3   OH280356   3.816   5.477  14.632 -0.2376  0.0260  0.3724
19622TIP3    H180357   3.750   5.529  14.587  0.8880  2.3245  1.2669
19622TIP3    H280358   3.795   5.487  14.725  0.1135 -1.0072  0.5840
19623TIP3   OH280359   4.311   6.275  11.128  0.4998 -0.2031  0.5182
19623TIP3    H180360   4.271   6.188  11.123 -1.1102  0.5397 -0.3523
19623TIP3    H280361   4.328   6.300  11.037  1.3280  0.2371  0.7819
19624TIP3   OH280362   2.536   6.069  10.897  0.2417  0.0204  0.4386
19624TIP3    H180363   2.527   6.103  10.986 -1.1234  1.9372 -0.3628
19624TIP3    H280364   2.601   6.126  10.856 -0.1743  0.0384 -0.2032
19625TIP3   OH280365   4.005   3.229  12.755 -0.3632  0.5629  0.5473
19625TIP3    H180366   3.982   3.266  12.670 -1.4571  0.9229  0.9841
19625TIP3    H280367   4.002   3.134  12.741 -0.0436  0.6205  0.0658
19626TIP3   OH280368   5.535   1.918   3.755 -0.1588 -0.0516 -0.7696
19626TIP3    H180369   5.621   1.935   3.716 -0.6367 -1.3630 -2.5128
19626TIP3    H280370   5.514   1.998   3.802  1.3510  0.8628 -1.5623
19627TIP3   OH280371   0.552   0.849  17.003 -0.4045 -0.1981  0.1008
19627TIP3    H180372   0.461   0.879  17.002 -1.1666 -2.2775  0.9029
19627TIP3    H280373   0.575   0.837  16.911 -0.0657  2.6016 -0.2643
19628TIP3   OH280374   2.449   3.927  15.697  0.4052 -0.2480  0.0552
19628TIP3    H180375   2.455   3.835  15.672 -0.5467 -0.1225 -0.6810
19628TIP3    H280376   2.528   3.967  15.661  1.5017 -1.0083  1.5164
19629TIP3   OH280377   1.494   1.579  12.129  0.4225  0.0199  0.2587
19629TIP3    H180378   1.449   1.635  12.192 -0.0374 -0.1141  0.0595
19629TIP3    H280379   1.525   1.639  12.061 -0.2087  0.0229 -0.0365
19630TIP3   OH280380   4.928   0.392  12.433 -0.9676 -0.3735 -0.1894
19630TIP3    H180381   4.896   0.428  12.516 -0.7128 -0.5008 -0.0366
19630TIP3    H280382   4.946   0.468  12.379  0.9332 -0.1914  0.6205
19631TIP3   OH280383   5.370   1.380  14.091 -0.2886 -0.3118 -0.5860
19631TIP3    H180384   5.370   1.475  14.083  0.0177 -0.3077 -0.5403
19631TIP3    H280385   5.362   1.364  14.185  0.7719 -0.3181 -0.4882
19632TIP3   OH280386   5.057   0.243   1.483  0.4044  0.2695 -0.0195
19632TIP3    H180387   5.102   0.263   1.565  1.6003  1.0202 -0.8181
19632TIP3    H280388   5.028   0.328   1.450 -0.4773 -0.0755 -0.1446
19633TIP3   OH280389   1.004   1.907   1.134 -0.2446  0.0247  0.0522
19633TIP3    H180390   1.049   1.825   1.153  0.3764  0.0394 -1.2699
19633TIP3    H280391   0.953   1.889   1.055 -2.5927  0.0222  1.4760
19634TIP3   OH280392   3.853   4.925   5.927  0.5552  0.0490 -0.6083
19634TIP3    H180393   3.822   4.846   5.970  0.0394  0.0021 -1.0618
19634TIP3    H280394   3.921   4.895   5.866  0.6526  0.0079 -0.4792
19635TIP3   OH280395   4.414   6.450  14.541  0.3418 -0.2392 -0.2526
19635TIP3    H180396   4.478   6.394  14.498 -0.3910 -1.0270 -0.3183
19635TIP3    H280397   4.461   6.532  14.556  1.3353 -0.7682 -0.4025
19636TIP3   OH280398   3.865   1.128  17.253 -0.3088 -0.2900  0.6379
19636TIP3    H180399   3.827   1.123  17.341 -1.3692  0.4180  0.2496
19636TIP3    H280400   3.870   1.222  17.235  0.6608 -0.4060  0.2511
19637TIP3   OH280401   5.228   0.227  15.867 -0.3377 -0.1279  0.0367
19637TIP3    H180402   5.172   0.280  15.924 -1.2598 -1.0426  0.0151
19637TIP3    H280403   5.292   0.188  15.926 -0.7213 -0.3431  0.3127
19638TIP3   OH280404   3.875   1.214  12.394 -0.0745  0.0191  0.0506
19638TIP3    H180405   3.847   1.275  12.461 -0.5142 -1.5633  1.3868
19638TIP3    H280406   3.793   1.181  12.356  0.1009 -0.6988  0.2735
19639TIP3   OH280407   0.474   0.485  16.975 -0.1934 -0.2212 -0.0467
19639TIP3    H180408   0.514   0.403  16.946  1.6750  0.0736  1.5231
19639TIP3    H280409   0.534   0.520  17.042 -0.4244  2.9052 -1.2859
19640TIP3   OH280410   6.305   5.063   1.062 -0.0124  0.3667  0.1474
19640TIP3    H180411   6.306   5.073   1.157  3.6118  0.8984  0.1818
19640TIP3    H280412   6.311   5.152   1.028  2.5024  0.0756 -0.3750
19641TIP3   OH280413   1.619   4.971   1.162  0.7945  0.1009 -0.7793
19641TIP3    H180414   1.620   5.048   1.217  0.2264 -1.4762  1.5673
19641TIP3    H280415   1.709   4.936   1.168  0.7927  0.0379 -1.0635
19642TIP3   OH280416   6.430   0.328  11.629 -0.0103 -0.1159 -0.0734
19642TIP3    H180417   6.432   0.336  11.534  0.7330 -0.5519 -0.0978
19642TIP3    H280418   6.467   0.241  11.647 -1.4870 -0.6560  0.5403
19643TIP3   OH280419   2.589   2.298   5.186  0.4116 -0.7626 -0.4973
19643TIP3    H180420   2.520   2.350   5.143  0.4910  0.1228  0.4050
19643TIP3    H280421   2.594   2.334   5.275  1.4052 -1.4370 -0.2643
19644TIP3   OH280422   2.003   4.232   4.312  0.6009 -0.5385 -0.1938
19644TIP3    H180423   2.016   4.226   4.406  1.0395 -2.7724 -0.3329
19644TIP3    H280424   1.951   4.312   4.299  0.0029 -0.5282  1.9803
19645TIP3   OH280425   6.185   4.002  15.872 -0.6395 -0.3108 -0.0533
19645TIP3    H180426   6.194   4.093  15.844 -1.3130 -0.1757  0.1481
19645TIP3    H280427   6.269   3.981  15.912 -0.3256  0.0821 -0.4946
19646TIP3   OH280428   1.053   3.798   3.603 -0.6307 -0.2074 -0.2329
19646TIP3    H180429   0.978   3.852   3.578 -0.3621  0.1850 -0.2048
19646TIP3    H280430   1.048   3.722   3.545 -0.8393 -0.0051 -0.4825
19647TIP3   OH280431   6.385   6.626   4.963  0.0622 -0.2428  0.6123
19647TIP3    H180432   6.385   6.719   4.983 -1.3563 -0.2565  0.8164
19647TIP3    H280433   6.306   6.592   5.006  0.6102 -1.5539  0.6360
19648TIP3   OH280434   4.433   0.473  14.805 -0.4457  0.5156  0.0439
19648TIP3    H180435   4.408   0.437  14.890  0.0029  0.4267  0.1403
19648TIP3    H280436   4.446   0.567  14.823 -0.3298  0.4931  0.0801
19649TIP3   OH280437   1.905   1.886  16.666  0.2661 -0.2753 -0.0732
19649TIP3    H180438   1.840   1.841  16.612  0.7364 -0.7244 -0.2700
19649TIP3    H280439   1.923   1.968  16.620 -0.8019  0.2665  0.4273
19650TIP3   OH280440   4.630   2.036  12.891 -0.1743  0.1368 -0.4651
19650TIP3    H180441   4.688   1.994  12.828 -0.4855  2.7002 -2.6154
19650TIP3    H280442   4.688   2.066  12.961  0.3712 -1.5453 -0.1590
19651TIP3   OH280443   6.543   4.964   3.998  0.1620  0.4993  0.2296
19651TIP3    H180444   6.607   4.939   4.065  0.9871  0.2541 -0.6456
19651TIP3    H280445   6.495   4.883   3.979  0.3054  0.4448  0.1080
19652TIP3   OH280446   0.370   1.922   1.111 -0.5920  0.3823  0.0277
19652TIP3    H180447   0.395   1.918   1.019 -0.0558 -0.0531  0.1831
19652TIP3    H280448   0.374   2.015   1.133  2.3192  0.2791  0.3821
19653TIP3   OH280449   3.992   2.246  12.480 -0.4358  0.3880  0.5239
19653TIP3    H180450   4.055   2.318  12.483 -1.3338  1.2038  0.3643
19653TIP3    H280451   4.044   2.170  12.453  0.8339  0.6187  2.0935
19654TIP3   OH280452   3.192   3.482  13.557  0.5645 -0.2467  0.0912
19654TIP3    H180453   3.114   3.434  13.585  0.9868 -0.7546  0.4223
19654TIP3    H280454   3.159   3.569  13.535 -0.0178 -0.2847  0.7548
19655TIP3   OH280455   1.627   2.009  11.793  0.0712  0.0655 -0.5422
19655TIP3    H180456   1.713   2.035  11.759 -1.2933  2.7044 -2.3133
19655TIP3    H280457   1.574   2.088  11.786 -2.5989 -1.5475  0.2345
19656TIP3   OH280458   5.230   4.557   5.001  0.4826  0.6195 -0.1705
19656TIP3    H180459   5.139   4.585   5.008  0.4421  0.7296 -0.9948
19656TIP3    H280460   5.232   4.500   4.925  1.0660  0.4595 -0.0404
19657TIP3   OH280461   5.211   1.028  14.319 -0.4633  0.1829  0.0734
19657TIP3    H180462   5.252   0.996  14.238 -0.8006  1.1485 -0.4870
19657TIP3    H280463   5.122   0.993  14.316 -0.4533  0.1584  0.0574
19658TIP3   OH280464   4.341   2.041  12.147  0.6661  0.1852 -0.1656
19658TIP3    H180465   4.317   1.956  12.111  0.8846 -0.2374  0.6421
19658TIP3    H280466   4.433   2.032  12.172  0.2604  0.0766  1.4613
19659TIP3   OH280467   0.030   3.251  11.562  0.1749 -0.2129 -0.4538
19659TIP3    H180468  -0.001   3.225  11.648  2.1695 -1.5150 -0.0578
19659TIP3    H280469  -0.001   3.181  11.503 -0.9215  0.5168 -0.7810
19660TIP3   OH280470   0.276   2.881   2.592 -0.0291  0.5082 -0.9712
19660TIP3    H180471   0.333   2.808   2.616 -1.5591 -1.0860 -1.9287
19660TIP3    H280472   0.219   2.893   2.668  0.7845  1.3372 -0.4676
19661TIP3   OH280473   3.067   5.797   0.911 -0.1273 -0.4724 -0.3449
19661TIP3    H180474   3.045   5.873   0.858  0.7351  0.1453  0.1582
19661TIP3    H280475   2.983   5.768   0.949 -0.4729  0.1626 -0.6162
19662TIP3   OH280476   5.255   4.378  16.045  0.3497  0.6923 -0.0809
19662TIP3    H180477   5.196   4.305  16.063  0.3544  0.8892  0.7795
19662TIP3    H280478   5.231   4.407  15.957 -0.9470  0.8664  0.3142
19663TIP3   OH280479   1.682   5.965  11.717  0.7010  0.2116  0.2227
19663TIP3    H180480   1.740   5.992  11.646  1.9751  0.8920  1.4609
19663TIP3    H280481   1.621   6.038  11.729 -0.0291 -0.2361 -0.6627
19664TIP3   OH280482   2.036   1.496   4.897  0.2292 -0.0066  0.1815
19664TIP3    H180483   2.046   1.500   4.802 -0.0754  2.2277  0.1916
19664TIP3    H280484   2.126   1.495   4.930  0.3822 -2.6530 -0.0959
19665TIP3   OH280485   2.722   4.509   5.549 -0.0245  0.1169 -0.7029
19665TIP3    H180486   2.791   4.507   5.483 -0.1538 -2.6641 -0.8607
19665TIP3    H280487   2.643   4.481   5.503 -0.9086  1.4526 -0.0860
19666TIP3   OH280488   2.514   4.242   0.463  0.3767  0.7975  0.0438
19666TIP3    H180489   2.503   4.256   0.368 -0.8070  1.4608  0.2527
19666TIP3    H280490   2.483   4.152   0.476 -2.5249  1.6975  0.1857
19667TIP3   OH280491   1.357   3.283  17.035  0.4303  0.3794 -0.5894
19667TIP3    H180492   1.268   3.262  17.061 -0.0743  0.7007 -1.9741
19667TIP3    H280493   1.376   3.366  17.078  0.9804 -0.8205  1.6600
19668TIP3   OH280494   0.289   5.210   4.959  0.4717  0.1063 -0.1283
19668TIP3    H180495   0.355   5.276   4.938  0.6568 -0.1552 -0.3828
19668TIP3    H280496   0.314   5.134   4.906 -0.6807  0.3833 -1.1145
19669TIP3   OH280497   1.869   0.219   1.606  0.1998 -0.1568  0.2451
19669TIP3    H180498   1.794   0.239   1.549  0.4127 -1.6670 -0.6305
19669TIP3    H280499   1.871   0.123   1.610  1.5604 -0.1211  0.9643
19670TIP3   OH280500   4.682   3.376   3.305 -0.6611  0.0354  0.0720
19670TIP3    H180501   4.717   3.462   3.282  0.2835 -0.0750  1.0318
19670TIP3    H280502   4.590   3.392   3.324 -0.7636  0.6288 -0.8734
19671TIP3   OH280503   5.145   3.028   0.132  0.1062 -0.3078 -0.1659
19671TIP3    H180504   5.103   3.051   0.215  1.3118  0.1498  0.3354
19671TIP3    H280505   5.187   3.109   0.103 -0.3456 -0.4550 -1.2586
19672TIP3   OH280506   3.201   4.711  13.185  0.1016  0.5270  0.0919
19672TIP3    H180507   3.219   4.729  13.278  1.3193 -2.8730  0.6675
19672TIP3    H280508   3.287   4.710  13.144 -0.3888  1.4484 -1.0028
19673TIP3   OH280509   2.196   2.024  15.771 -0.5906 -0.5506 -0.0163
19673TIP3    H180510   2.285   1.990  15.785 -0.0341  0.9418  0.2646
19673TIP3    H280511   2.166   2.048  15.859 -0.6496  0.4011 -0.2915
19674TIP3   OH280512   4.600   3.128  14.247  0.4124 -0.0685 -0.1108
19674TIP3    H180513   4.658   3.180  14.303 -1.2549  1.3270  0.4143
19674TIP3    H280514   4.625   3.037  14.264  0.5900  0.3540  2.1904
19675TIP3   OH280515   6.556   4.212  15.064 -0.0729 -0.1622  0.4430
19675TIP3    H180516   6.550   4.143  15.131 -1.4895 -2.4882 -1.8556
19675TIP3    H280517   6.570   4.164  14.982 -2.2124  2.1604 -1.4620
19676TIP3   OH280518   6.201   6.037   1.894  0.6614 -0.4567  0.1614
19676TIP3    H180519   6.194   6.132   1.901  0.2567 -0.3974 -0.8912
19676TIP3    H280520   6.228   6.009   1.982 -0.3611  0.5164  0.8227
19677TIP3   OH280521   3.697   1.692  16.232 -0.0384  0.4292 -0.2353
19677TIP3    H180522   3.627   1.638  16.196 -0.6019  0.0768  1.3240
19677TIP3    H280523   3.653   1.759  16.283  0.6242  2.7804 -2.5570
19678TIP3   OH280524   1.881   0.833   0.226  0.0331 -0.8239 -0.5389
19678TIP3    H180525   1.916   0.882   0.300 -1.8832 -1.5497  0.9364
19678TIP3    H280526   1.833   0.761   0.266 -1.3586 -1.0561 -2.4922
19679TIP3   OH280527   0.731   2.691  15.089 -0.0166  0.2967 -0.4807
19679TIP3    H180528   0.767   2.756  15.029 -0.7270 -0.0804 -1.3410
19679TIP3    H280529   0.654   2.656  15.043 -0.5339 -0.0544  0.6205
19680TIP3   OH280530   6.628   6.526  14.690  0.1546  0.1446  0.2440
19680TIP3    H180531   6.568   6.469  14.641  0.8792 -0.9118  0.5562
19680TIP3    H280532   6.709   6.476  14.696  1.2941  1.7857 -0.6926
19681TIP3   OH280533   3.366   0.423  12.716  0.5225  0.4090 -0.1027
19681TIP3    H180534   3.415   0.342  12.700  0.0154  0.1858 -0.5380
19681TIP3    H280535   3.433   0.492  12.714  0.8187  0.1082 -0.6901
19682TIP3   OH280536   2.929   3.685   0.417 -0.0915  0.3237 -0.1812
19682TIP3    H180537   2.889   3.651   0.336  0.0503 -0.4271  0.0544
19682TIP3    H280538   2.970   3.608   0.457 -0.8332  0.5259  1.0072
19683TIP3   OH280539   1.750   4.209   5.034 -0.8066 -0.4990  0.0469
19683TIP3    H180540   1.753   4.292   5.081  0.0541 -0.4957 -0.0082
19683TIP3    H280541   1.761   4.233   4.942 -0.9892 -0.6340 -0.0113
19684TIP3   OH280542   6.082   6.174  13.738 -0.0193  0.2399 -0.1660
19684TIP3    H180543   6.079   6.262  13.699  0.4130 -0.0196 -0.7929
19684TIP3    H280544   6.007   6.173  13.798 -0.8225  0.5905 -1.1223
19685TIP3   OH280545   1.434   6.072  13.907  0.2336  0.4059  0.1340
19685TIP3    H180546   1.441   6.072  13.812 -0.2875  1.3306  0.0745
19685TIP3    H280547   1.456   5.983  13.934 -1.6801 -0.4910 -1.0221
19686TIP3   OH280548   1.157   6.481  12.983 -0.2153  0.1122  0.1494
19686TIP3    H180549   1.203   6.472  12.900  0.3012  0.8202  0.3557
19686TIP3    H280550   1.191   6.409  13.037 -0.0049  0.1026  0.0047
19687TIP3   OH280551   5.357   3.107  12.680  0.0334 -0.1022  0.3663
19687TIP3    H180552   5.315   3.166  12.617 -0.4688 -1.1181 -0.2796
19687TIP3    H280553   5.345   3.020  12.642  0.8631 -0.6080  1.2433
19688TIP3   OH280554   2.801   5.023  15.847  0.4178 -0.4105 -0.1696
19688TIP3    H180555   2.791   5.117  15.832  0.2892 -0.1749  1.2395
19688TIP3    H280556   2.895   5.012  15.864  0.5931 -0.7007 -1.2216
19689TIP3   OH280557   2.302   1.085  14.966 -0.3073  0.5428  0.2038
19689TIP3    H180558   2.317   1.176  14.991 -0.8243  0.7748 -0.2950
19689TIP3    H280559   2.377   1.063  14.911 -1.2081  1.3694 -1.4395
19690TIP3   OH280560   2.287   5.120   2.329  0.5723  0.3096 -0.2118
19690TIP3    H180561   2.307   5.158   2.415 -0.5114 -0.0642  0.2357
19690TIP3    H280562   2.201   5.156   2.307  2.1381  2.9165 -2.6690
19691TIP3   OH280563   2.391   3.444  12.562 -0.3210 -0.0547 -0.1098
19691TIP3    H180564   2.323   3.380  12.582 -0.8847  1.1468  2.1573
19691TIP3    H280565   2.361   3.525  12.605  3.0789  0.2427  2.0686
19692TIP3   OH280566   6.525   1.046   0.333  0.3242 -0.4796  0.4213
19692TIP3    H180567   6.592   1.114   0.338 -0.3165  0.1770  0.1103
19692TIP3    H280568   6.475   1.055   0.415 -1.9859  1.7828 -1.0878
19693TIP3   OH280569   3.965   5.464  15.424  0.2090  0.1340  0.9340
19693TIP3    H180570   3.991   5.547  15.465 -1.9208  1.4538 -0.2045
19693TIP3    H280571   4.044   5.411  15.425  1.5042  1.9568  2.2102
19694TIP3   OH280572   4.354   5.529  14.429  0.0820 -0.0866 -0.4787
19694TIP3    H180573   4.415   5.493  14.365  0.3675 -0.9465  0.2666
19694TIP3    H280574   4.272   5.483  14.414  0.4615 -1.1409  0.5093
19695TIP3   OH280575   3.030   4.624  13.630 -0.3351  0.1099 -0.2202
19695TIP3    H180576   3.044   4.592  13.719 -2.1743 -0.3297 -0.0411
19695TIP3    H280577   3.117   4.648  13.599  0.2055  1.7040  2.2187
19696TIP3   OH280578   4.220   6.540  16.105  0.3528 -0.6785 -0.3104
19696TIP3    H180579   4.242   6.578  16.020  2.0932 -0.5905  0.1369
19696TIP3    H280580   4.260   6.600  16.168 -0.1128 -1.2431  0.5318
19697TIP3   OH280581   2.486   6.502  12.685  0.0685 -0.1122  0.4730
19697TIP3    H180582   2.529   6.492  12.600 -0.2314  1.9643  0.0228
19697TIP3    H280583   2.392   6.505  12.664 -0.0065  0.3993  0.8625
19698TIP3   OH280584   6.090   2.394   3.775 -0.2567  0.0590 -0.1426
19698TIP3    H180585   6.164   2.375   3.833 -0.7786 -1.4303  0.0775
19698TIP3    H280586   6.107   2.483   3.744  2.0279 -0.4763 -0.6714
19699TIP3   OH280587   6.729   2.558  11.699  0.0882 -0.0214 -0.5311
19699TIP3    H180588   6.707   2.630  11.640  1.5469  0.6581 -0.3132
19699TIP3    H280589   6.820   2.576  11.724 -0.1390 -0.9023  1.0438
19700TIP3   OH280590   4.891   2.640   4.744  0.0828  0.3879 -0.2223
19700TIP3    H180591   4.826   2.615   4.809 -0.7642  0.6745 -0.9397
19700TIP3    H280592   4.966   2.670   4.795 -0.9053  1.4944  0.6326
19701TIP3   OH280593   0.971   4.031   5.721  0.4940  0.1761  0.1445
19701TIP3    H180594   0.927   3.972   5.660 -1.3956  1.3230  0.3157
19701TIP3    H280595   0.956   3.992   5.807  1.5174 -0.4401  0.0583
19702TIP3   OH280596   3.486   5.186  16.496 -0.4287 -0.4683  0.1618
19702TIP3    H180597   3.460   5.191  16.404 -1.5135 -0.8823  0.4306
19702TIP3    H280598   3.462   5.271  16.532  0.8421  0.0369 -0.1258
19703TIP3   OH280599   4.727   0.687  16.547  0.9968  0.5961 -0.2790
19703TIP3    H180600   4.727   0.692  16.643 -2.1124  2.7148 -0.2216
19703TIP3    H280601   4.732   0.593  16.528  1.0693  0.0750  1.9854
19704TIP3   OH280602   0.854   3.448  10.731 -0.2690 -0.4074  0.0270
19704TIP3    H180603   0.867   3.446  10.636  1.0317  1.9949  0.0842
19704TIP3    H280604   0.932   3.404  10.766 -0.0665 -0.0828 -0.0065
19705TIP3   OH280605   5.043   0.053  16.117  0.5311  0.2341  0.0173
19705TIP3    H180606   5.116   0.036  16.058  1.1553  0.4773  0.7061
19705TIP3    H280607   5.023  -0.033  16.155 -0.1455 -0.0068 -0.8227
19706TIP3   OH280608   4.129   3.796   4.120 -0.3728  0.2062  0.1714
19706TIP3    H180609   4.130   3.809   4.025  1.2702  1.2986  0.2908
19706TIP3    H280610   4.036   3.787   4.142 -0.9707  2.0268 -1.2936
19707TIP3   OH280611   5.758   1.938  13.656 -0.0578  0.3856  0.5581
19707TIP3    H180612   5.741   1.846  13.636 -1.3418  0.3867  1.4796
19707TIP3    H280613   5.738   1.985  13.575 -0.1875 -0.0705  0.3222
19708TIP3   OH280614   3.083   6.622  15.206 -0.0397 -0.3033  0.0615
19708TIP3    H180615   3.038   6.648  15.125 -0.0125 -0.8629 -0.1386
19708TIP3    H280616   3.119   6.704  15.240 -0.9818  0.1174  0.0864
19709TIP3   OH280617   4.722   6.741   6.560  0.2589 -0.2069  0.7614
19709TIP3    H180618   4.703   6.649   6.542  1.2323 -0.1298 -0.8680
19709TIP3    H280619   4.717   6.784   6.474 -2.7985  1.8237  1.7824
19710TIP3   OH280620   0.209   6.120   5.577  0.3101 -0.7966 -0.2018
19710TIP3    H180621   0.131   6.068   5.600 -1.2791  1.1514 -0.8799
19710TIP3    H280622   0.271   6.101   5.647 -1.4130 -1.1520  1.3242
19711TIP3   OH280623   0.861   5.312  12.169 -0.2952 -0.6115  0.7474
19711TIP3    H180624   0.798   5.344  12.234 -2.9292 -1.6236 -1.1266
19711TIP3    H280625   0.853   5.217  12.172  0.6215 -0.7311 -0.0272
19712TIP3   OH280626   2.829   3.444  12.868  0.5317 -0.1570 -0.3348
19712TIP3    H180627   2.882   3.441  12.789  1.4147  1.1905  0.1585
19712TIP3    H280628   2.825   3.537  12.891 -3.7927  0.1361 -1.4330
19713TIP3   OH280629   0.463   3.751  17.113  0.2700  0.7789  0.1708
19713TIP3    H180630   0.403   3.801  17.059  1.0511  0.7265 -0.7837
19713TIP3    H280631   0.473   3.803  17.193 -0.7678  0.9405  0.2094
19714TIP3   OH280632   6.113   0.564  13.203 -0.4008  0.4022  0.4744
19714TIP3    H180633   6.086   0.508  13.276 -0.6836 -0.8699 -0.5660
19714TIP3    H280634   6.112   0.506  13.127  1.6913  1.2454 -0.2510
19715TIP3   OH280635   6.005   4.502   2.016  0.0109 -0.8856 -0.5578
19715TIP3    H180636   5.989   4.552   1.936 -0.1385 -0.7927 -0.4702
19715TIP3    H280637   5.948   4.425   2.009 -1.0531 -0.1901  0.0913
19716TIP3   OH280638   6.473   2.981   5.926 -0.2505  0.3395  0.0604
19716TIP3    H180639   6.390   2.934   5.923 -0.6869  1.0036  1.0381
19716TIP3    H280640   6.512   2.955   6.010 -0.4055  1.5315  0.5231
19717TIP3   OH280641   5.278   4.142   5.418 -0.6147  0.2414  0.3685
19717TIP3    H180642   5.245   4.162   5.331  0.9188 -1.0920 -0.5825
19717TIP3    H280643   5.201   4.145   5.475 -2.1541 -1.5453 -1.4998
19718TIP3   OH280644   6.410   4.521   0.661 -0.5894 -0.2396  0.6483
19718TIP3    H180645   6.486   4.466   0.643 -0.6841 -0.0618 -0.3590
19718TIP3    H280646   6.442   4.611   0.650 -0.8421 -0.1508  0.6345
19719TIP3   OH280647   3.607   0.473  12.022 -0.7990  0.1696 -1.0274
19719TIP3    H180648   3.587   0.552  11.972 -0.1685 -0.4291 -2.2655
19719TIP3    H280649   3.695   0.489  12.057 -1.8573  1.2864  1.3821
19720TIP3   OH280650   0.924   3.723  14.940 -0.4506  0.0164  0.8241
19720TIP3    H180651   1.016   3.750  14.942 -0.8904  2.1329 -1.5800
19720TIP3    H280652   0.893   3.737  15.030  1.0369  1.5196  1.1621
19721TIP3   OH280653   1.376   1.108   4.021 -0.0811 -0.4128  0.1410
19721TIP3    H180654   1.326   1.181   3.984 -1.6931 -2.0212 -1.0391
19721TIP3    H280655   1.459   1.110   3.973 -0.9276 -0.5618 -1.4120
19722TIP3   OH280656   4.950   5.259   4.881 -0.1292 -0.4802 -0.2460
19722TIP3    H180657   4.966   5.328   4.944  2.3286 -1.0468 -0.1418
19722TIP3    H280658   4.898   5.194   4.929 -0.7779  0.3926  0.2568
19723TIP3   OH280659   4.057   1.015   4.668 -0.3592  0.1702 -0.3062
19723TIP3    H180660   4.143   1.030   4.708 -0.3446  0.5956 -0.4907
19723TIP3    H280661   4.045   1.089   4.609 -0.4667 -0.3460 -0.9483
19724TIP3   OH280662   1.675   4.811  13.451 -0.2954  0.4591  0.3415
19724TIP3    H180663   1.682   4.779  13.361  0.5101  1.9776 -0.1687
19724TIP3    H280664   1.626   4.893  13.444  2.7818  2.4856  0.7365
19725TIP3   OH280665   1.238   3.278  15.520  0.3124 -0.3818 -0.2463
19725TIP3    H180666   1.223   3.184  15.528 -1.0871 -0.0299  2.4332
19725TIP3    H280667   1.291   3.300  15.597  0.8998  1.0007 -1.0069
19726TIP3   OH280668   5.020   6.117  15.923  0.3110 -0.6490 -0.0409
19726TIP3    H180669   4.932   6.110  15.959 -0.3551 -0.9274 -1.6030
19726TIP3    H280670   5.062   6.186  15.973 -0.7171 -0.6824  0.8962
19727TIP3   OH280671   2.839   1.964   1.495 -0.7143 -0.0790  0.0424
19727TIP3    H180672   2.788   2.039   1.528  0.7512  1.3831 -0.8467
19727TIP3    H280673   2.861   1.989   1.405 -0.3819 -1.7171 -0.3473
19728TIP3   OH280674   3.209   4.256  13.276  0.5734  0.2423 -0.3314
19728TIP3    H180675   3.255   4.196  13.335  0.0807  0.1584 -0.0267
19728TIP3    H280676   3.252   4.341  13.290  0.4581  0.2251  0.1568
19729TIP3   OH280677   0.869   6.119   2.201 -0.2256 -0.4888  0.7093
19729TIP3    H180678   0.922   6.169   2.139  0.7570 -1.3770  0.8159
19729TIP3    H280679   0.847   6.183   2.269 -2.0760  0.7540 -0.9288
19730TIP3   OH280680   0.047   0.502  14.065 -0.0999  0.0269  0.0157
19730TIP3    H180681  -0.029   0.455  14.098  0.1243 -2.0025 -2.0769
19730TIP3    H280682   0.012   0.561  13.998 -0.2383  2.0818  1.8222
19731TIP3   OH280683   3.673   2.012  13.730 -0.2276  0.4408 -0.0637
19731TIP3    H180684   3.613   2.085  13.714 -1.5445 -0.5152  0.3087
19731TIP3    H280685   3.631   1.960  13.799  0.6752 -0.6605 -0.2938
19732TIP3   OH280686   4.850   4.522   2.216  0.6324 -0.2892 -0.2483
19732TIP3    H180687   4.926   4.533   2.273  0.6066  1.7788 -0.5246
19732TIP3    H280688   4.863   4.587   2.147 -0.6812 -0.8867 -1.0903
19733TIP3   OH280689   1.018   5.509  13.755 -0.3262  1.0862 -0.5673
19733TIP3    H180690   1.007   5.586  13.810  1.5471  0.0400  1.4609
19733TIP3    H280691   1.109   5.514  13.725 -0.2484 -0.2027 -0.5971
19734TIP3   OH280692   3.581   4.149  13.846 -0.1946 -0.3974 -0.5589
19734TIP3    H180693   3.666   4.154  13.889  0.0183  1.1907 -1.1155
19734TIP3    H280694   3.570   4.056  13.826  1.9592 -0.5035 -1.5447
19735TIP3   OH280695   5.537   0.039  14.707 -0.1657  0.7931  0.5333
19735TIP3    H180696   5.629   0.023  14.690 -0.1522  3.0396 -2.3649
19735TIP3    H280697   5.536   0.087  14.790  1.0761 -0.4473  1.3054
19736TIP3   OH280698   1.132   1.864  11.253  0.0740 -0.2473  0.0393
19736TIP3    H180699   1.047   1.826  11.231  0.7723 -1.1852 -1.1557
19736TIP3    H280700   1.113   1.927  11.323 -1.7420  0.3542 -0.9421
19737TIP3   OH280701   3.827   5.700  15.565 -0.4278  0.3317 -0.4263
19737TIP3    H180702   3.808   5.701  15.471 -1.9646 -1.1155 -0.1911
19737TIP3    H280703   3.748   5.664  15.605  1.4773 -2.7082  1.0575
19738TIP3   OH280704   6.638   2.230   6.224 -0.0508  0.2338 -0.0356
19738TIP3    H180705   6.573   2.275   6.279  0.4913  0.2316  0.6307
19738TIP3    H280706   6.604   2.238   6.135  0.2082  2.3067  0.0090
19739TIP3   OH280707   4.078   6.698   5.645 -0.0141 -0.3900  0.1999
19739TIP3    H180708   4.134   6.725   5.717  0.2171 -0.2155 -0.0418
19739TIP3    H280709   4.013   6.640   5.685 -0.3278  0.2794  0.6696
19740TIP3   OH280710   5.419   1.701   3.953  0.4089 -0.6603  0.8148
19740TIP3    H180711   5.406   1.793   3.934 -2.2977 -1.3849 -1.3406
19740TIP3    H280712   5.367   1.685   4.032 -0.2210 -0.5999  0.4165
19741TIP3   OH280713   0.640   2.277  16.389 -0.0180 -0.3493  0.2243
19741TIP3    H180714   0.607   2.348  16.334 -2.4693 -0.8744  0.8675
19741TIP3    H280715   0.613   2.197  16.344 -0.4890 -0.7988  1.2648
19742TIP3   OH280716   1.508   2.824  14.589 -0.3736  0.1767  0.0578
19742TIP3    H180717   1.571   2.764  14.629 -1.5683  0.2456  2.1712
19742TIP3    H280718   1.445   2.767  14.544  0.6308  0.0787 -1.3120
19743TIP3   OH280719   5.355   6.222  14.176 -0.2521  0.5509 -0.0589
19743TIP3    H180720   5.264   6.233  14.202 -0.7713  1.1909 -1.9686
19743TIP3    H280721   5.394   6.308  14.187  0.0590  0.3503  0.4648
19744TIP3   OH280722   5.397   4.531  15.153 -0.0470  0.4941  0.4926
19744TIP3    H180723   5.380   4.501  15.242 -3.1968 -1.8174 -0.7228
19744TIP3    H280724   5.473   4.481  15.125 -0.7546 -0.9092  0.9830
19745TIP3   OH280725   1.429   3.137   6.055  0.0959  0.3125  0.1047
19745TIP3    H180726   1.520   3.116   6.077  0.0321 -0.1456 -0.0655
19745TIP3    H280727   1.381   3.122   6.136  0.1998  0.7389  0.2473
19746TIP3   OH280728   2.655   3.747  11.417 -0.2735 -0.4011 -0.6615
19746TIP3    H180729   2.668   3.805  11.492 -1.2902 -0.5634 -0.3417
19746TIP3    H280730   2.718   3.777  11.351  1.0104 -0.5894  0.4377
19747TIP3   OH280731   1.842   0.913   4.927 -0.4975  0.1682  0.3546
19747TIP3    H180732   1.751   0.904   4.955 -0.7309 -1.0259 -0.6983
19747TIP3    H280733   1.845   0.872   4.840  1.4533 -1.7516  1.2082
19748TIP3   OH280734   1.626   3.739  12.558 -0.8389  0.2347  0.1515
19748TIP3    H180735   1.653   3.648  12.568  1.2869  0.6491 -1.1138
19748TIP3    H280736   1.662   3.783  12.635 -1.8931  0.0343  0.7789
19749TIP3   OH280737   5.638   3.070  13.472  0.1607 -0.5901 -0.1937
19749TIP3    H180738   5.698   3.128  13.520 -0.2907 -0.3553  0.0978
19749TIP3    H280739   5.572   3.046  13.536 -2.5916  2.6971 -1.5022
19750TIP3   OH280740   5.748   5.138   1.732  0.0507 -0.2653 -0.1183
19750TIP3    H180741   5.705   5.187   1.802 -0.1440 -0.1722 -0.3009
19750TIP3    H280742   5.841   5.159   1.741 -0.1746  1.2170 -1.0263
19751TIP3   OH280743   2.302   3.472   3.118  0.7365  0.7892 -0.2874
19751TIP3    H180744   2.373   3.464   3.183 -0.0425 -0.6014  0.4452
19751TIP3    H280745   2.329   3.415   3.046  0.3714  0.2347  0.0052
19752TIP3   OH280746   2.625   3.916   3.539  0.2315  0.0757 -0.4400
19752TIP3    H180747   2.703   3.970   3.551  0.0347  0.8497 -2.4106
19752TIP3    H280748   2.655   3.842   3.488  0.2052 -1.0558  1.1089
19753TIP3   OH280749   5.999   5.928   0.313  0.5986 -0.6075  0.5982
19753TIP3    H180750   5.939   5.989   0.271  1.4844 -0.0955  0.0278
19753TIP3    H280751   5.964   5.917   0.402 -0.3492 -0.3637  0.2665
19754TIP3   OH280752   3.089   5.414   1.314  0.1245  0.2456 -0.0745
19754TIP3    H180753   3.041   5.474   1.372 -0.3856 -1.1510  1.0056
19754TIP3    H280754   3.150   5.470   1.267 -0.9464  1.7421  0.2417
19755TIP3   OH280755   4.093   1.078  11.117  0.3067 -0.5256 -0.1120
19755TIP3    H180756   4.180   1.076  11.156 -0.1340 -2.8895  0.9102
19755TIP3    H280757   4.109   1.064  11.023  1.0009 -2.2122  0.2233
19756TIP3   OH280758   3.581   5.460   1.638  0.2749 -0.1279 -0.2849
19756TIP3    H180759   3.586   5.379   1.587 -0.5967  0.3500 -1.1599
19756TIP3    H280760   3.511   5.445   1.701 -0.0865  0.0470 -0.6427
19757TIP3   OH280761   4.934   6.433  15.085  0.0520  0.0188 -0.2486
19757TIP3    H180762   4.869   6.503  15.076  0.8272  0.9058  0.7782
19757TIP3    H280763   4.999   6.452  15.017 -0.5597 -0.6740 -1.0508
19758TIP3   OH280764   2.202   2.345  15.822 -0.4165 -0.0478 -0.6136
19758TIP3    H180765   2.136   2.355  15.891  0.5055  0.4387  0.2275
19758TIP3    H280766   2.152   2.323  15.744 -1.2929 -4.2289  0.9066
19759TIP3   OH280767   5.301   5.739   0.021 -0.2370 -0.2495 -0.1776
19759TIP3    H180768   5.383   5.768   0.061  0.0131 -2.7199  1.2982
19759TIP3    H280769   5.328   5.697  -0.061 -0.3970  1.5146 -1.2023
19760TIP3   OH280770   5.068   2.315   6.503 -0.1779  0.0498 -0.0276
19760TIP3    H180771   5.158   2.342   6.525  1.6650 -2.6316 -3.3193
19760TIP3    H280772   5.018   2.396   6.501  2.9571  2.1213 -1.1844
19761TIP3   OH280773   0.135   5.979  13.622  0.1866  0.5599 -0.2820
19761TIP3    H180774   0.151   6.073  13.634  2.2299  0.3194 -0.9097
19761TIP3    H280775   0.213   5.937  13.657 -1.3978 -1.0493  1.5423
19762TIP3   OH280776   2.028   3.059   4.668 -0.3525  0.3287 -0.3104
19762TIP3    H180777   2.064   3.146   4.682  0.6774 -0.3458  1.5852
19762TIP3    H280778   1.948   3.057   4.721 -0.7285  0.3238 -0.8688
19763TIP3   OH280779   5.048   1.150  14.933 -0.3230  0.2227  0.3723
19763TIP3    H180780   5.131   1.119  14.895 -0.7427  0.2138 -0.5803
19763TIP3    H280781   5.042   1.106  15.017 -0.0746 -0.9626 -0.1991
19764TIP3   OH280782   6.544   5.675   3.678  1.1511  0.3457  0.3276
19764TIP3    H180783   6.497   5.595   3.655  1.0292  0.8473 -1.2976
19764TIP3    H280784   6.510   5.698   3.764 -0.4050 -0.1962 -0.0954
19765TIP3   OH280785   5.539   2.430  15.527  0.2387 -0.4364 -0.0884
19765TIP3    H180786   5.507   2.342  15.505 -0.2138 -0.1672 -0.5267
19765TIP3    H280787   5.502   2.447  15.613  1.1123 -1.0525  0.4252
19766TIP3   OH280788   3.287   6.047  11.909 -0.0207 -0.0338  0.0834
19766TIP3    H180789   3.213   6.107  11.899 -0.1647 -0.4047 -1.2770
19766TIP3    H280790   3.250   5.970  11.953  0.1240  0.7640  1.6585
19767TIP3   OH280791   3.853   4.799   2.003  0.5669 -0.1974 -0.0024
19767TIP3    H180792   3.906   4.846   1.938  2.0018  0.4284  1.5581
19767TIP3    H280793   3.780   4.858   2.022 -0.1528 -0.5931 -1.3389
19768TIP3   OH280794   4.453   1.660   0.727  0.6438  0.0374  0.1537
19768TIP3    H180795   4.497   1.745   0.723  1.6597 -0.5316 -1.9475
19768TIP3    H280796   4.524   1.597   0.735  0.0261 -0.7306 -0.3153
19769TIP3   OH280797   2.024   4.470   4.161  0.4375 -0.6179 -0.2141
19769TIP3    H180798   2.104   4.417   4.159  1.5599  0.8540  2.1624
19769TIP3    H280799   2.054   4.559   4.177 -1.6558 -0.0369  0.8517
19770TIP3   OH280800   1.767   5.598   0.314  0.0117 -0.1502  0.3455
19770TIP3    H180801   1.694   5.653   0.344 -0.0881 -0.0822 -0.0146
19770TIP3    H280802   1.761   5.600   0.218  0.1992 -0.5345  0.3235
19771TIP3   OH280803   1.298   4.850   0.614  0.1212 -0.3643 -0.2103
19771TIP3    H180804   1.271   4.769   0.658  1.9872 -0.2472  1.3015
19771TIP3    H280805   1.393   4.843   0.609  0.3495  1.8314  0.1779
19772TIP3   OH280806   6.265   3.142  11.285 -0.2291 -0.2321  0.2871
19772TIP3    H180807   6.273   3.114  11.194 -0.5563 -0.6944  0.3953
19772TIP3    H280808   6.338   3.098  11.330  1.0734  1.4555 -0.0710
19773TIP3   OH280809   5.635   2.937  16.644 -0.8842  0.3107  0.0403
19773TIP3    H180810   5.568   2.876  16.675 -0.0888 -0.8716 -0.4876
19773TIP3    H280811   5.653   2.908  16.554 -0.8407  1.6444 -0.4015
19774TIP3   OH280812   2.642   2.291  12.044 -0.1954 -0.3969 -0.4469
19774TIP3    H180813   2.640   2.219  11.981 -1.0933 -0.7343 -0.0475
19774TIP3    H280814   2.735   2.300  12.067  0.1986 -0.0308 -2.0555
19775TIP3   OH280815   6.714   2.917  13.923 -0.0216 -0.7795  0.0765
19775TIP3    H180816   6.656   2.993  13.916 -0.4710 -1.1707 -0.5514
19775TIP3    H280817   6.709   2.875  13.837  0.0014 -1.6723  0.5015
19776TIP3   OH280818   0.494   0.392  15.481  0.3715 -0.1610 -0.2567
19776TIP3    H180819   0.437   0.431  15.547  0.8454 -1.0466  0.7054
19776TIP3    H280820   0.551   0.333  15.530  0.8334 -0.7402 -1.4427
19777TIP3   OH280821   3.371   1.529   0.485  0.0771 -0.0221  0.0566
19777TIP3    H180822   3.328   1.606   0.521  0.6672  0.7714 -0.8840
19777TIP3    H280823   3.459   1.560   0.461  1.3466 -1.6562  2.2480
19778TIP3   OH280824   6.367   6.312   5.229  0.4608  0.0777 -0.0718
19778TIP3    H180825   6.443   6.325   5.285  0.7589 -1.5189 -0.0569
19778TIP3    H280826   6.307   6.258   5.281 -0.3150  0.5987 -0.4049
19779TIP3   OH280827   6.618   3.499  16.794  0.5561  0.5475  0.4323
19779TIP3    H180828   6.543   3.507  16.852 -1.9300 -1.4648 -2.2029
19779TIP3    H280829   6.674   3.432  16.835 -1.7455 -1.7423  0.0694
19780TIP3   OH280830   0.399   5.336  12.015  0.7701 -0.1829  0.5103
19780TIP3    H180831   0.415   5.265  11.952 -2.0709  0.0421 -0.5835
19780TIP3    H280832   0.402   5.292  12.100  2.7461 -0.8614  0.1425
19781TIP3   OH280833   3.166   6.018   3.045 -0.1317 -0.0842 -0.1447
19781TIP3    H180834   3.094   6.082   3.044  1.7618  2.2758  1.4432
19781TIP3    H280835   3.242   6.067   3.014  1.1216 -2.0655 -0.3581
19782TIP3   OH280836   5.760   5.071  15.719 -0.1157 -0.1316  0.2266
19782TIP3    H180837   5.739   4.987  15.679  1.2610  0.2163 -1.3603
19782TIP3    H280838   5.832   5.106  15.666 -0.6018  2.0255  0.8642
19783TIP3   OH280839   2.744   0.704  12.762  0.3972 -0.7292 -0.0273
19783TIP3    H180840   2.796   0.715  12.683  0.7839  1.2454  0.4525
19783TIP3    H280841   2.807   0.713  12.834 -0.5874  2.3657  0.5899
19784TIP3   OH280842   5.311   4.720  13.285 -0.3004  0.7419  0.1930
19784TIP3    H180843   5.356   4.641  13.314  2.2175  1.9511 -0.1723
19784TIP3    H280844   5.246   4.689  13.222 -0.1155 -1.1161  0.8582
19785TIP3   OH280845   3.318   6.061  15.718 -0.2926  0.1668  0.1294
19785TIP3    H180846   3.232   6.066  15.676  0.3702 -0.2834 -1.3408
19785TIP3    H280847   3.316   5.979  15.768 -0.2420 -0.5794 -1.0576
19786TIP3   OH280848   6.735   1.653  17.309  0.0167 -0.4965  0.1603
19786TIP3    H180849   6.686   1.596  17.250  2.3868  0.5170 -3.1131
19786TIP3    H280850   6.685   1.735  17.309 -0.8441 -1.0161  0.8857
19787TIP3   OH280851   0.993   2.441   1.226  0.3843 -0.1667 -0.1627
19787TIP3    H180852   0.921   2.505   1.219  0.6544  0.1299 -0.2457
19787TIP3    H280853   0.976   2.378   1.156  1.2383  0.9480 -1.4207
19788TIP3   OH280854   0.040   4.209  13.473 -0.2761 -0.2575  0.0626
19788TIP3    H180855  -0.041   4.158  13.465 -0.2137 -0.3451 -0.0053
19788TIP3    H280856   0.010   4.298  13.489 -0.4575 -0.7601  3.4035
19789TIP3   OH280857   0.077   5.161  13.176  0.4230  0.1708  0.2742
19789TIP3    H180858   0.054   5.246  13.137 -1.3155 -0.6890 -0.6566
19789TIP3    H280859   0.173   5.160  13.174  0.5456  2.5738  1.3651
19790TIP3   OH280860   5.770   6.092  12.567 -0.1006  0.5878  0.2444
19790TIP3    H180861   5.747   6.029  12.636  1.5749  1.9744  2.1951
19790TIP3    H280862   5.822   6.041  12.505 -0.9885 -0.5141  0.3578
19791TIP3   OH280863   3.318   5.748  12.404 -0.3947 -0.2219 -0.2598
19791TIP3    H180864   3.410   5.755  12.429 -0.3398  0.6093 -0.6476
19791TIP3    H280865   3.297   5.656  12.414 -0.0899 -0.1068  1.7928
19792TIP3   OH280866   5.493   6.391  15.251 -0.1416 -0.2387 -0.2892
19792TIP3    H180867   5.512   6.301  15.276  0.7436  0.4640  1.8219
19792TIP3    H280868   5.569   6.417  15.198  2.1236  0.6424  3.0546
19793TIP3   OH280869   2.001   3.096  15.827 -0.2465  0.1161  0.2969
19793TIP3    H180870   2.071   3.081  15.890  0.5339  0.7220 -0.3957
19793TIP3    H280871   1.921   3.087  15.878  0.3137 -0.8868  1.0425
19794TIP3   OH280872   5.629   6.538   0.580  0.6290 -0.4627 -1.0426
19794TIP3    H180873   5.553   6.597   0.580  1.7755  1.0954 -2.0380
19794TIP3    H280874   5.593   6.452   0.558 -0.8900  0.1795 -1.1759
19795TIP3   OH280875   3.958   5.244   3.780 -0.2110 -0.4451  0.8046
19795TIP3    H180876   4.052   5.225   3.782 -0.0530  0.2728  2.4275
19795TIP3    H280877   3.950   5.319   3.721  0.2155 -0.5841  0.5610
19796TIP3   OH280878   6.100   0.162  11.520 -0.5907 -0.5019  0.2751
19796TIP3    H180879   6.131   0.251  11.500 -2.1691  0.1853  0.6394
19796TIP3    H280880   6.097   0.118  11.436  2.4587 -1.0360  0.3696
19797TIP3   OH280881   3.303   6.292  14.243 -0.1088 -0.0836  0.5207
19797TIP3    H180882   3.302   6.362  14.308 -2.9211  0.3793  0.1193
19797TIP3    H280883   3.304   6.338  14.159  1.2140 -0.6360  0.2121
19798TIP3   OH280884   0.908   5.254   4.502  0.0841 -0.2898 -0.2649
19798TIP3    H180885   0.972   5.255   4.431 -0.1234 -1.6506 -0.5004
19798TIP3    H280886   0.932   5.328   4.557  2.1135 -1.0016 -0.1203
19799TIP3   OH280887   2.724   6.389   0.435  0.3261 -0.1332 -0.1679
19799TIP3    H180888   2.779   6.323   0.393  0.8104  1.5306 -2.3007
19799TIP3    H280889   2.635   6.353   0.430  0.8493 -1.6644  0.9250
19800TIP3   OH280890   6.168   2.396   1.812  0.2130 -0.5051  0.3655
19800TIP3    H180891   6.155   2.415   1.905  0.1799  1.5774 -0.0234
19800TIP3    H280892   6.251   2.438   1.790 -0.2361 -0.1577 -0.7405
19801TIP3   OH280893   5.943   2.294  11.251  0.3705 -0.3919 -0.2634
19801TIP3    H180894   5.884   2.320  11.321  0.1705  2.9439 -1.4751
19801TIP3    H280895   5.893   2.230  11.200 -0.3241 -1.1658  1.3258
19802TIP3   OH280896   3.908   6.142   3.170 -0.0043 -0.0033  0.0089
19802TIP3    H180897   4.003   6.135   3.173  0.0048  0.3711  0.7953
19802TIP3    H280898   3.889   6.166   3.079  0.4488 -2.6740 -0.8809
19803TIP3   OH280899   4.124   3.459   2.305 -0.8576 -0.2988  0.2250
19803TIP3    H180900   4.175   3.436   2.228 -1.5537  0.9474 -0.6328
19803TIP3    H280901   4.154   3.398   2.373 -0.0322 -1.2198 -0.9367
19804TIP3   OH280902   2.443   5.925   3.451  0.0464  0.3189  0.2610
19804TIP3    H180903   2.372   5.920   3.388 -1.0571  2.2150  1.2360
19804TIP3    H280904   2.409   5.882   3.530 -0.1346  1.3388  0.7702
19805TIP3   OH280905   1.804   1.943   3.836  0.2034  0.6176  0.3693
19805TIP3    H180906   1.824   1.858   3.874 -0.3892  0.1886 -0.2482
19805TIP3    H280907   1.885   1.970   3.791  0.0596 -0.1450 -0.3712
19806TIP3   OH280908   3.932   3.324   0.266  0.4373  0.6569 -0.0975
19806TIP3    H180909   3.848   3.282   0.250 -0.1139  1.2518  1.1277
19806TIP3    H280910   3.919   3.415   0.240  0.8221  0.6723 -0.2445
19807TIP3   OH280911   3.894   1.930   5.263 -0.2400 -0.3292  0.1701
19807TIP3    H180912   3.934   1.868   5.325 -1.6226 -2.1807 -0.6950
19807TIP3    H280913   3.809   1.952   5.303  0.4815  1.5966  0.7771
19808TIP3   OH280914   2.488   1.931  11.644  0.1815 -0.0220 -0.2039
19808TIP3    H180915   2.407   1.934  11.694  0.7533 -0.3562  0.7607
19808TIP3    H280916   2.466   1.974  11.561 -0.3051  2.2342  1.0196
19809TIP3   OH280917   3.584   3.903  14.319 -0.0709 -0.1767 -0.4908
19809TIP3    H180918   3.616   3.816  14.344  0.5107  0.5113  1.3260
19809TIP3    H280919   3.659   3.945  14.277 -0.1954 -0.3776 -0.9133
19810TIP3   OH280920   5.301   2.093  11.554 -0.0329 -0.1822 -0.1160
19810TIP3    H180921   5.267   2.097  11.644  1.1996  2.2722  0.3312
19810TIP3    H280922   5.225   2.111  11.499 -0.6971 -1.1724  0.4395
19811TIP3   OH280923   4.471   1.559   1.662  0.3454 -0.4786 -0.1903
19811TIP3    H180924   4.520   1.552   1.580  2.0268 -1.9845  0.8536
19811TIP3    H280925   4.435   1.471   1.676  1.9260 -0.9068  1.6917
19812TIP3   OH280926   2.315   5.158   5.189 -0.2385 -0.4121  0.4340
19812TIP3    H180927   2.375   5.086   5.209  0.3393 -0.2948 -0.8297
19812TIP3    H280928   2.251   5.155   5.260  1.5325 -0.2027  2.1442
19813TIP3   OH280929   3.618   2.233   1.303  0.6655  0.7901 -0.0991
19813TIP3    H180930   3.597   2.327   1.304 -2.1449  0.2420  0.4929
19813TIP3    H280931   3.623   2.212   1.210  0.9627  1.4349 -0.2415
19814TIP3   OH280932   2.311   4.891   3.755 -0.1148  0.2734  0.2512
19814TIP3    H180933   2.271   4.970   3.719 -0.5506  0.6462  1.4915
19814TIP3    H280934   2.262   4.873   3.835  1.5073  0.1375  1.2711
19815TIP3   OH280935   2.324   3.981   4.251 -0.2219 -0.6484  0.6039
19815TIP3    H180936   2.290   3.983   4.161 -1.4483 -0.3148  1.0629
19815TIP3    H280937   2.328   3.888   4.273 -0.0237 -0.7269  0.2481
19816TIP3   OH280938   2.308   4.551   2.028 -0.3364  0.0577  0.2816
19816TIP3    H180939   2.275   4.471   2.069 -0.5212 -0.0600 -0.0889
19816TIP3    H280940   2.291   4.620   2.092 -3.6626  0.4615 -0.8322
19817TIP3   OH280941   2.208   3.361   5.430 -0.5569 -0.6716 -0.3648
19817TIP3    H180942   2.303   3.353   5.427 -0.3844  0.4582  1.0299
19817TIP3    H280943   2.184   3.394   5.343  0.5878  1.1474 -0.0480
19818TIP3   OH280944   4.324   0.508  10.957  0.0614  0.2131 -0.1795
19818TIP3    H180945   4.307   0.602  10.960  0.3588  0.2592  0.1952
19818TIP3    H280946   4.292   0.480  10.871 -0.2809  0.6039 -0.1822
19819TIP3   OH280947   1.637   2.503  13.352  0.1778 -0.0728  0.1010
19819TIP3    H180948   1.661   2.495  13.445  1.6335 -0.2601 -0.2612
19819TIP3    H280949   1.667   2.591  13.328 -0.2416 -0.0084 -0.1953
19820TIP3   OH280950   1.733   1.327   4.821 -0.1203  1.0115  0.0727
19820TIP3    H180951   1.805   1.265   4.826 -0.6958  0.4476  3.4726
19820TIP3    H280952   1.655   1.272   4.812 -0.5907  1.1523  2.6264
19821TIP3   OH280953   2.620   4.531   0.458  0.0169  0.4654  0.4544
19821TIP3    H180954   2.563   4.454   0.459 -1.1151  1.2501 -0.4942
19821TIP3    H280955   2.678   4.519   0.533  0.0644 -1.4423  0.1641
19822TIP3   OH280956   0.134   0.444   1.739 -0.0463 -0.0329 -0.1299
19822TIP3    H180957   0.113   0.428   1.831  2.1215  0.4927  0.5198
19822TIP3    H280958   0.127   0.539   1.730 -2.1184 -0.2226 -1.0638
19823TIP3   OH280959   4.881   1.569   2.710  0.5011  0.5597 -0.8656
19823TIP3    H180960   4.892   1.643   2.770 -0.7311 -0.1827  0.3361
19823TIP3    H280961   4.789   1.574   2.683  0.6310 -0.0461 -1.4487
19824TIP3   OH280962   5.162   6.423  14.830 -0.1120 -0.1317 -0.1506
19824TIP3    H180963   5.130   6.513  14.834  1.4775  0.4273  1.0766
19824TIP3    H280964   5.240   6.428  14.775  0.8514 -0.4340  1.1377
19825TIP3   OH280965   4.299   2.749   3.831  0.8619  0.2136  0.0799
19825TIP3    H180966   4.282   2.787   3.917  1.6746 -1.4206  1.0220
19825TIP3    H280967   4.255   2.664   3.833  0.7943  0.1902 -1.1810
19826TIP3   OH280968   0.748   1.589  11.377 -0.3779  0.3437 -0.6218
19826TIP3    H180969   0.795   1.505  11.380 -0.4729  0.3132 -0.0215
19826TIP3    H280970   0.767   1.630  11.461 -1.1243  0.4982 -0.5282
19827TIP3   OH280971   0.819   1.394  15.645  0.2194 -0.2503 -0.0099
19827TIP3    H180972   0.769   1.403  15.564 -0.4265 -0.0061  0.4096
19827TIP3    H280973   0.893   1.338  15.621  0.1205 -0.0559 -0.8025
19828TIP3   OH280974   2.372   4.506   1.269  0.0237 -0.5238  0.0171
19828TIP3    H180975   2.360   4.440   1.338  0.5769 -1.0159 -0.3507
19828TIP3    H280976   2.467   4.514   1.261 -0.0388 -0.5902 -0.8030
19829TIP3   OH280977   5.125   0.220  12.702 -0.2333  0.6941 -0.6064
19829TIP3    H180978   5.183   0.283  12.746 -1.1068  0.4432  0.9787
19829TIP3    H280979   5.177   0.186  12.630  0.8548  1.9918 -0.4708
19830TIP3   OH280980   1.591   5.011   1.813  0.3026 -0.1821  0.3003
19830TIP3    H180981   1.623   5.070   1.744 -0.3343  0.7529  0.7891
19830TIP3    H280982   1.559   5.069   1.881 -0.9867 -1.0944  0.5009
19831TIP3   OH280983   3.970   4.733  13.294  0.0073 -0.6099 -0.6051
19831TIP3    H180984   4.011   4.808  13.336  0.4787 -1.7372  1.0198
19831TIP3    H280985   3.994   4.658  13.349 -2.2648 -1.6548 -0.9441
19832TIP3   OH280986   5.428   2.226   2.623  0.1060 -0.0456  0.0795
19832TIP3    H180987   5.458   2.295   2.563 -0.0263  0.2255  0.3229
19832TIP3    H280988   5.508   2.178   2.646  0.3954  0.7831  0.8643
19833TIP3   OH280989   0.795   5.784   1.566  0.4721  0.3411 -0.2148
19833TIP3    H180990   0.799   5.690   1.581 -1.5645  0.1128 -0.7940
19833TIP3    H280991   0.886   5.814   1.573  1.0319 -1.5042  0.8724
19834TIP3   OH280992   0.273   4.621  12.074  0.1741  0.1493  0.8158
19834TIP3    H180993   0.327   4.583  12.144  0.0826 -1.7497 -0.0982
19834TIP3    H280994   0.183   4.603  12.101 -0.0056  1.7582  1.4557
19835TIP3   OH280995   0.899   1.664   2.775  0.0449  0.3327 -0.3875
19835TIP3    H180996   0.909   1.735   2.713 -2.7553  1.5954  0.4403
19835TIP3    H280997   0.858   1.593   2.726  1.4678 -0.2112 -0.8491
19836TIP3   OH280998   1.491   4.953   5.815  0.4182 -0.0884 -0.0216
19836TIP3    H180999   1.429   4.898   5.864 -0.0714 -0.5166 -1.0794
19836TIP3    H281000   1.559   4.892   5.785 -0.1520 -0.1586 -1.2409
19837TIP3   OH281001   1.067   4.665   6.384 -0.9693  0.2786  0.5867
19837TIP3    H181002   1.124   4.660   6.460  0.2720 -0.8485 -0.3696
19837TIP3    H281003   1.046   4.573   6.364 -1.0862  0.5401 -0.5563
19838TIP3   OH281004   1.248   4.171   1.734  0.2944 -0.1470  0.1641
19838TIP3    H181005   1.276   4.252   1.775 -1.1243  0.8368 -0.6946
19838TIP3    H281006   1.265   4.184   1.641 -1.0574 -0.3141 -0.1301
19839TIP3   OH281007   1.949   0.664  11.073 -0.3785  0.3507  0.3679
19839TIP3    H181008   2.008   0.596  11.042  0.9437  1.2485  0.7830
19839TIP3    H281009   1.861   0.631  11.057  0.2136 -1.6753  1.0558
19840TIP3   OH281010   4.943   4.866  12.672 -0.6518  0.1920  0.5403
19840TIP3    H181011   5.006   4.893  12.606 -1.5199  1.2532  0.1155
19840TIP3    H281012   4.886   4.804  12.627 -0.4680 -0.0757  0.6713
19841TIP3   OH281013   4.131   4.513   4.082  0.0804  0.1260  0.1063
19841TIP3    H181014   4.037   4.498   4.091  0.1724 -0.8586 -0.4120
19841TIP3    H281015   4.141   4.608   4.091 -1.2312  0.5203 -1.8267
19842TIP3   OH281016   3.253   0.038  15.260  0.6814 -0.1440  0.1607
19842TIP3    H181017   3.271   0.128  15.232  0.0648 -0.0730 -0.0243
19842TIP3    H281018   3.276   0.037  15.353 -0.7549  0.6381  0.5566
19843TIP3   OH281019   1.904   6.749  13.082 -0.2788  0.2961 -0.2006
19843TIP3    H181020   1.991   6.724  13.113  0.0934  0.5232 -1.0363
19843TIP3    H281021   1.856   6.667  13.075 -0.4917  0.2587  1.2699
19844TIP3   OH281022   1.914   6.148  12.923  0.6955  0.0480 -0.1491
19844TIP3    H181023   1.863   6.082  12.970  1.1304 -1.2496 -1.4449
19844TIP3    H281024   1.874   6.154  12.837  1.2102  0.8585 -0.3474
19845TIP3   OH281025   3.801   4.560  15.122  0.1010  0.2651  0.2533
19845TIP3    H181026   3.782   4.511  15.202 -2.2132  1.5382  0.5583
19845TIP3    H281027   3.733   4.627  15.118  1.5975  1.7848 -1.5370
19846TIP3   OH281028   1.280   3.663  13.272  0.1774 -0.1879  0.4465
19846TIP3    H181029   1.297   3.569  13.263  0.3647 -0.1367  0.2904
19846TIP3    H281030   1.340   3.692  13.341  1.0082  0.0701 -0.3704
19847TIP3   OH281031   0.779   5.638  16.087  0.8323  0.1747  0.5053
19847TIP3    H181032   0.797   5.713  16.144  1.3433  0.4409  0.0086
19847TIP3    H281033   0.741   5.677  16.008  1.4635 -0.0414  0.0869
19848TIP3   OH281034   0.616   3.899  11.153 -0.1113 -0.1375  0.0638
19848TIP3    H181035   0.629   3.914  11.059 -0.4612 -2.2068 -0.3751
19848TIP3    H281036   0.566   3.818  11.157 -2.0333  1.0472  2.0102
19849TIP3   OH281037   4.986   5.151  14.889 -0.3433  0.0525 -0.2762
19849TIP3    H181038   4.928   5.219  14.923  0.4108  0.4765  0.1808
19849TIP3    H281039   5.024   5.110  14.967 -0.5252 -0.6706 -0.5560
19850TIP3   OH281040   6.424   2.007  13.520 -0.1765  0.2159 -0.1990
19850TIP3    H181041   6.363   1.944  13.559 -0.9781  1.7347  1.1021
19850TIP3    H281042   6.474   2.041  13.594 -0.1584  1.5238 -0.7892
19851TIP3   OH281043   5.438   0.754   1.830  0.1741  0.0737 -0.0873
19851TIP3    H181044   5.398   0.798   1.755 -0.9677 -2.4871 -1.0987
19851TIP3    H281045   5.376   0.768   1.901 -1.2107 -1.4936 -0.9239
19852TIP3   OH281046   5.378   1.981   1.563  0.2194  0.0913 -0.1239
19852TIP3    H181047   5.394   1.912   1.627  1.3443  0.2233 -0.2505
19852TIP3    H281048   5.464   2.021   1.549  0.1015 -0.2833 -2.1141
19853TIP3   OH281049   3.261   6.084  13.194 -0.1074 -0.5428 -0.6882
19853TIP3    H181050   3.309   6.011  13.232 -1.9579 -2.0139 -1.0845
19853TIP3    H281051   3.277   6.077  13.100  0.7517  0.3817 -0.6385
19854TIP3   OH281052   6.358   5.660  14.381  0.6602 -0.7372 -0.2810
19854TIP3    H181053   6.318   5.593  14.436 -0.6748 -0.2006 -0.5573
19854TIP3    H281054   6.364   5.737  14.437 -0.9611 -0.1046 -0.9145
19855TIP3   OH281055   1.368   1.591   5.999 -0.6080  0.0512 -0.5188
19855TIP3    H181056   1.312   1.525   6.037 -0.7802 -0.2637 -1.3080
19855TIP3    H281057   1.317   1.672   6.003 -1.0576 -0.2004 -1.0778
19856TIP3   OH281058   2.924   0.592  11.506  0.4120  0.2404  0.4905
19856TIP3    H181059   2.929   0.554  11.418  0.9470 -1.4043  1.2022
19856TIP3    H281060   2.928   0.517  11.565 -1.2547  1.2114  1.9176
19857TIP3   OH281061   6.695   5.512   0.448  0.4489  0.2495  0.0236
19857TIP3    H181062   6.771   5.507   0.507  0.6539  1.3346 -0.1104
19857TIP3    H281063   6.715   5.586   0.391 -1.3152  1.4603  0.8666
19858TIP3   OH281064   6.205   5.692  14.832  0.0195 -0.3463 -0.9061
19858TIP3    H181065   6.176   5.671  14.920 -0.2537  2.2743 -0.3027
19858TIP3    H281066   6.284   5.746  14.844  0.1356 -0.1719 -2.2653
19859TIP3   OH281067   6.632   3.546  12.851  0.5986  0.1078  0.0991
19859TIP3    H181068   6.690   3.521  12.923 -0.8583 -2.5911  0.5027
19859TIP3    H281069   6.574   3.612  12.889  0.6407 -0.3814  1.0655
19860TIP3   OH281070   2.679   6.558   6.003 -0.5132 -0.1566  0.3080
19860TIP3    H181071   2.768   6.549   5.969 -0.4344  2.0903 -0.2962
19860TIP3    H281072   2.691   6.585   6.094 -0.6481 -1.6065  0.7813
19861TIP3   OH281073   1.329   5.062  15.302 -0.4413 -0.6327 -0.2233
19861TIP3    H181074   1.293   5.050  15.390  0.6544  1.2200  0.5182
19861TIP3    H281075   1.258   5.104  15.253 -0.4207  0.0549  0.3182
19862TIP3   OH281076   3.846   1.059  14.513 -0.6463 -0.3916  0.3131
19862TIP3    H181077   3.890   0.989  14.465  1.6721  1.3890 -0.3712
19862TIP3    H281078   3.850   1.032  14.605  1.2165 -0.7042  0.1776
19863TIP3   OH281079   2.268   0.336   0.252  0.1882 -0.0730  0.2790
19863TIP3    H181080   2.361   0.351   0.237  0.2763  0.1520  0.9751
19863TIP3    H281081   2.244   0.268   0.190  1.1565 -1.1614  1.0349
19864TIP3   OH281082   0.159   4.353   4.303  0.0767  0.0223 -0.1239
19864TIP3    H181083   0.132   4.289   4.237  0.6856  1.7587 -2.1775
19864TIP3    H281084   0.078   4.394   4.333 -0.1422 -0.0988 -0.5517
19865TIP3   OH281085   2.746   1.927   3.491  0.2253 -0.1337  0.3517
19865TIP3    H181086   2.814   1.955   3.553  0.1798 -0.9522  0.7828
19865TIP3    H281087   2.684   2.000   3.490 -0.1650 -0.4197  1.8673
19866TIP3   OH281088   3.992   5.423   1.653 -0.0679 -0.0193 -0.2739
19866TIP3    H181089   3.993   5.496   1.592  1.0475  0.1418 -0.0766
19866TIP3    H281090   4.041   5.353   1.609 -1.8730 -1.0013 -0.8425
19867TIP3   OH281091   6.718   6.130  12.062  0.0229 -0.8010 -0.1608
19867TIP3    H181092   6.768   6.057  12.025  3.0391  1.0202 -0.0110
19867TIP3    H281093   6.688   6.179  11.986  0.7579 -0.4962 -0.2642
19868TIP3   OH281094   3.814   5.050   4.176 -0.4898 -0.2560 -0.0294
19868TIP3    H181095   3.867   4.974   4.200 -0.9367 -0.6165 -0.1493
19868TIP3    H281096   3.749   5.057   4.245 -0.1012  0.3742  0.2802
19869TIP3   OH281097   5.239   5.819  16.932  0.4378 -0.2567  0.3610
19869TIP3    H181098   5.320   5.837  16.885  0.3275 -1.8589 -0.5170
19869TIP3    H281099   5.252   5.859  17.019  1.5580  0.7531 -0.2441
19870TIP3   OH281100   3.378   3.607  14.456 -0.2696  0.1598  0.0861
19870TIP3    H181101   3.465   3.567  14.449 -1.3653 -2.7493  1.3708
19870TIP3    H281102   3.373   3.638  14.546 -0.2374  1.2614 -0.2797
19871TIP3   OH281103   4.400   3.436   1.166  0.2627 -0.4226 -0.7136
19871TIP3    H181104   4.365   3.509   1.114 -1.6037 -0.8696 -0.1799
19871TIP3    H281105   4.450   3.478   1.236 -1.6214  0.4582  0.1772
19872TIP3   OH281106   4.340   1.585  13.824 -0.1694  0.2622 -0.4781
19872TIP3    H181107   4.321   1.666  13.871 -0.6625  0.5661 -1.1950
19872TIP3    H281108   4.255   1.554  13.793 -0.0024 -0.6128 -0.0818
19873TIP3   OH281109   3.279   0.359   2.053 -0.3276  0.1534 -0.4682
19873TIP3    H181110   3.264   0.445   2.092  0.6291  0.8294 -1.5424
19873TIP3    H281111   3.283   0.375   1.958  1.6430 -0.7817 -0.5883
19874TIP3   OH281112   3.591   3.933   4.840  0.3247 -0.1594  0.2145
19874TIP3    H181113   3.623   3.898   4.923 -0.3875 -0.9187  0.1730
19874TIP3    H281114   3.667   3.978   4.802  0.9893 -0.8633  0.6952
19875TIP3   OH281115   6.245   3.867  14.696  0.5832 -0.4351  0.0914
19875TIP3    H181116   6.279   3.936  14.638 -0.9633  0.2724 -0.0016
19875TIP3    H281117   6.177   3.909  14.747 -1.0117 -2.0693 -0.5743
19876TIP3   OH281118   3.147   0.631  11.788  0.3993 -0.2977  0.6494
19876TIP3    H181119   3.135   0.605  11.696 -0.6821  0.4787  0.5575
19876TIP3    H281120   3.215   0.697  11.786  0.3893 -0.2940  0.4099
19877TIP3   OH281121   3.828   3.832  13.164  0.0599  0.2285  0.4107
19877TIP3    H181122   3.776   3.774  13.108 -0.1056 -0.6681  1.4504
19877TIP3    H281123   3.867   3.895  13.103 -1.5872  0.4423 -0.4840
19878TIP3   OH281124   5.870   0.226  14.983  0.3099 -0.4618 -0.1788
19878TIP3    H181125   5.837   0.254  15.069  0.3218 -2.0284  0.3770
19878TIP3    H281126   5.928   0.152  15.003  2.3697  0.7651 -1.3347
19879TIP3   OH281127   2.943   5.353  11.924 -0.0777  0.0427  0.5252
19879TIP3    H181128   2.886   5.286  11.961 -0.2865  0.7275  1.4407
19879TIP3    H281129   2.897   5.435  11.937 -0.1109  0.3268 -1.1641
19880TIP3   OH281130   1.775   2.160   2.918 -0.7579  0.0534 -0.8931
19880TIP3    H181131   1.827   2.236   2.945 -0.0898 -0.2224 -1.4007
19880TIP3    H281132   1.742   2.124   3.001 -0.1621  0.2431 -0.5633
19881TIP3   OH281133   2.674   3.265   1.769  0.0892 -0.4934  0.6189
19881TIP3    H181134   2.617   3.328   1.725 -0.7895 -1.3143  0.5643
19881TIP3    H281135   2.621   3.186   1.778  0.9722 -1.0342  1.2393
19882TIP3   OH281136   4.912   1.378   4.636 -0.1426  0.3460 -0.2100
19882TIP3    H181137   4.845   1.313   4.660 -0.0467 -0.2819 -1.5606
19882TIP3    H281138   4.870   1.463   4.653 -0.9541 -0.0495 -0.1743
19883TIP3   OH281139   4.577   4.592   5.548  0.0924 -0.2996 -0.4485
19883TIP3    H181140   4.504   4.640   5.509 -0.5853 -0.5970  0.4271
19883TIP3    H281141   4.536   4.525   5.602  0.9787  0.3533  1.1062
19884TIP3   OH281142   3.840   1.237   5.533 -0.1366 -0.2411  0.3860
19884TIP3    H181143   3.927   1.238   5.494  0.3823  0.8825  1.5441
19884TIP3    H281144   3.813   1.145   5.527  2.3506 -1.2503  2.6674
19885TIP3   OH281145   1.292   3.169  13.668  0.2002  0.3314  0.7915
19885TIP3    H181146   1.376   3.199  13.703  0.5990  0.5159 -0.2946
19885TIP3    H281147   1.314   3.096  13.611 -0.3720  0.3897  0.4815
19886TIP3   OH281148   2.625   6.001  16.791  0.0626 -0.1119 -0.0112
19886TIP3    H181149   2.600   5.911  16.771  0.2284 -0.4458  1.2013
19886TIP3    H281150   2.649   6.039  16.707 -1.9700 -0.5718 -0.8574
19887TIP3   OH281151   2.169   1.434  11.648  0.4368  0.2592 -0.4032
19887TIP3    H181152   2.080   1.433  11.683  1.3296  0.3836  2.1415
19887TIP3    H281153   2.211   1.507  11.694  2.1140 -0.4375 -0.7638
19888TIP3   OH281154   0.450   3.829   1.815 -0.2350 -0.0710  0.6553
19888TIP3    H181155   0.376   3.849   1.757  0.1164  2.4809  0.9767
19888TIP3    H281156   0.441   3.891   1.887  1.0988 -1.1191  1.7835
19889TIP3   OH281157   1.088   6.644   2.673  0.1438 -0.5361 -0.0225
19889TIP3    H181158   0.994   6.635   2.689  0.0222 -0.6666 -0.7798
19889TIP3    H281159   1.120   6.555   2.662  0.1185 -0.4273 -1.0507
19890TIP3   OH281160   5.997   3.228  16.047 -0.6712 -0.1943 -0.0908
19890TIP3    H181161   6.077   3.279  16.040 -1.3621  1.0643  0.8555
19890TIP3    H281162   6.000   3.190  16.135 -0.9696 -0.3987 -0.1665
19891TIP3   OH281163   6.537   4.063  14.578  0.4658  0.2197  0.1467
19891TIP3    H181164   6.508   4.011  14.503 -0.8354  0.6299  0.3387
19891TIP3    H281165   6.456   4.092  14.620  1.1097 -1.4553  2.7835
19892TIP3   OH281166   0.918   5.691   5.226  0.5859 -0.3749 -0.0633
19892TIP3    H181167   0.845   5.737   5.183 -0.2820 -2.4493 -0.9654
19892TIP3    H281168   0.986   5.688   5.159  0.1717 -1.4257 -0.4608
19893TIP3   OH281169   3.407   3.417  11.483 -0.4959 -0.5882  0.4791
19893TIP3    H181170   3.367   3.478  11.546  0.0505 -1.0551  1.2932
19893TIP3    H281171   3.383   3.330  11.515 -1.2806 -0.8285 -0.6835
19894TIP3   OH281172   1.481   0.815  14.923  0.3765  0.0530  0.3762
19894TIP3    H181173   1.423   0.802  14.998  1.0007 -0.6138  0.7503
19894TIP3    H281174   1.568   0.827  14.961  0.8272 -1.0139 -0.2581
19895TIP3   OH281175   0.711   1.364  13.413 -0.3461 -0.3333 -1.2361
19895TIP3    H181176   0.674   1.287  13.455 -2.7496  0.5725 -1.5422
19895TIP3    H281177   0.655   1.381  13.338  1.2789  0.6188 -2.3105
19896TIP3   OH281178   4.999   4.465  12.660  0.1497 -0.4067 -0.0637
19896TIP3    H181179   5.055   4.461  12.738 -1.2154 -0.6235  0.9370
19896TIP3    H281180   5.003   4.377  12.622  0.4189 -0.4393  0.0394
19897TIP3   OH281181   2.825   6.509  15.486 -0.1176 -0.3821 -0.1290
19897TIP3    H181182   2.767   6.472  15.420 -0.1814 -1.7411  0.6366
19897TIP3    H281183   2.824   6.603  15.470 -1.2869 -0.5448 -1.1145
19898TIP3   OH281184   1.144   4.096  13.297  0.4999 -0.1785 -0.5707
19898TIP3    H181185   1.092   4.055  13.229  2.8629 -1.6999 -1.6085
19898TIP3    H281186   1.159   4.185  13.267 -0.4140 -0.1304 -0.8853
19899TIP3   OH281187   6.460   3.757   0.488 -0.7240 -0.2504  0.2652
19899TIP3    H181188   6.545   3.781   0.525 -0.4779  0.4273 -0.6998
19899TIP3    H281189   6.447   3.666   0.514 -0.5841  0.2089  2.0251
19900TIP3   OH281190   6.392   6.231   1.145 -0.7122 -0.7999 -0.1810
19900TIP3    H181191   6.364   6.258   1.057  0.1756 -0.3551 -0.3413
19900TIP3    H281192   6.423   6.312   1.186  0.1244 -1.2308  0.0561
19901TIP3   OH281193   6.153   4.609  11.039  0.1507  0.0399  0.3532
19901TIP3    H181194   6.189   4.528  11.002 -0.5260  0.3554 -1.0345
19901TIP3    H281195   6.148   4.670  10.965 -0.3613  1.0055  1.1550
19902TIP3   OH281196   1.029   5.065   1.075  0.4487  0.0123 -0.0224
19902TIP3    H181197   0.993   5.034   1.158 -1.4126  0.5987 -0.5830
19902TIP3    H281198   1.014   5.160   1.076  0.2485  0.0022 -1.0942
19903TIP3   OH281199   1.206   4.002   1.269 -0.6274  0.1060  0.0544
19903TIP3    H181200   1.273   3.939   1.297 -2.3281 -1.0362  1.8611
19903TIP3    H281201   1.214   4.005   1.174  1.5000 -0.5081  0.1588
19904TIP3   OH281202   6.341   2.792  12.095 -0.1886 -0.5499 -0.1555
19904TIP3    H181203   6.298   2.729  12.153 -1.5933  1.4115  1.0875
19904TIP3    H281204   6.420   2.817  12.142 -0.0407 -0.8034 -0.2701
19905TIP3   OH281205   5.486   4.502   4.494 -0.0182 -0.4768 -0.0326
19905TIP3    H181206   5.409   4.545   4.532  0.5288  0.1788  0.3606
19905TIP3    H281207   5.508   4.555   4.418 -0.3058 -1.0144 -0.5028
19906TIP3   OH281208   2.710   0.894   1.022 -0.3069 -0.3098 -0.0313
19906TIP3    H181209   2.780   0.952   1.053 -1.8439  1.5729  0.1217
19906TIP3    H281210   2.735   0.874   0.932  0.1191  0.9070 -0.2146
19907TIP3   OH281211   3.505   0.602  11.184 -0.3485 -0.2456  0.2910
19907TIP3    H181212   3.431   0.640  11.138 -1.2599 -0.9230  1.1520
19907TIP3    H281213   3.568   0.674  11.192 -0.9760  0.3841 -0.2979
19908TIP3   OH281214   1.569   3.496  15.962  0.0525 -0.3860  0.2592
19908TIP3    H181215   1.554   3.513  16.055 -3.6709  1.2243 -0.4633
19908TIP3    H281216   1.597   3.580  15.926 -1.1777 -0.2653 -0.4722
19909TIP3   OH281217   1.875   0.981   1.399  0.0343 -0.7910 -0.3558
19909TIP3    H181218   1.933   1.050   1.431 -1.6727 -0.0689  1.4107
19909TIP3    H281219   1.867   0.997   1.305  1.6262 -0.1539 -0.4170
19910TIP3   OH281220   5.757   6.029  13.094  0.4202 -0.5162  0.9694
19910TIP3    H181221   5.801   6.080  13.161  1.1822  0.1074  0.0234
19910TIP3    H281222   5.664   6.050  13.105  0.4826 -0.7560  2.0747
19911TIP3   OH281223   5.334   0.368   5.109  0.0208  0.4400 -0.1960
19911TIP3    H181224   5.239   0.358   5.123  0.2658 -0.0469  1.4163
19911TIP3    H281225   5.356   0.450   5.153  0.6973 -0.6961  1.7559
19912TIP3   OH281226   2.965   0.872   0.446  0.5977  0.5708  0.2287
19912TIP3    H181227   2.997   0.928   0.517  3.7913 -1.6531  0.7670
19912TIP3    H281228   3.041   0.860   0.389 -1.0918 -0.0285 -2.0506
19913TIP3   OH281229   1.462   4.227   3.853 -0.3447 -0.8155  0.0843
19913TIP3    H181230   1.453   4.321   3.868  2.2558 -0.7586  1.8617
19913TIP3    H281231   1.539   4.219   3.797  1.4888 -1.9369  2.5881
19914TIP3   OH281232   6.154   5.264  16.778  0.7061  0.0663  0.2133
19914TIP3    H181233   6.200   5.181  16.784 -1.5822 -1.2111  2.2684
19914TIP3    H281234   6.108   5.260  16.694  1.9323  0.0414 -0.4716
19915TIP3   OH281235   3.633   0.487  15.055  0.0699  0.4793 -0.0561
19915TIP3    H181236   3.557   0.466  15.002  0.6400  0.3118 -0.8314
19915TIP3    H281237   3.625   0.433  15.133 -1.5555  1.8130  0.7509
19916TIP3   OH281238   2.008   2.378  11.374  0.1269  0.5317  0.2151
19916TIP3    H181239   2.041   2.306  11.427 -1.4398 -0.1117  0.3800
19916TIP3    H281240   2.053   2.370  11.290  1.5143  0.6514  0.9281
19917TIP3   OH281241   6.451   0.915  13.826  0.5419  0.4658  0.1126
19917TIP3    H181242   6.490   0.832  13.854 -0.9233 -0.9262 -1.7152
19917TIP3    H281243   6.515   0.952  13.765  1.0601  0.5646  0.6981
19918TIP3   OH281244   5.998   2.445   6.186 -0.0819 -0.1305  0.1457
19918TIP3    H181245   5.923   2.387   6.196 -0.5688  0.8629  3.9593
19918TIP3    H281246   6.074   2.388   6.192 -0.5731 -0.6673  1.8330
19919TIP3   OH281247   0.164   3.812  15.124 -0.1432 -0.1068 -0.3875
19919TIP3    H181248   0.157   3.751  15.051  1.0830 -0.3565 -0.3313
19919TIP3    H281249   0.259   3.823  15.137 -0.3096 -0.6007  1.5911
19920TIP3   OH281250   2.434   4.953   2.172  0.0330 -0.0691  0.0919
19920TIP3    H181251   2.368   4.990   2.231 -1.2728 -0.4560 -1.0773
19920TIP3    H281252   2.515   4.954   2.224 -0.4171  2.2955  0.8960
19921TIP3   OH281253   5.612   1.853  16.769 -0.0352 -0.0529  0.3626
19921TIP3    H181254   5.593   1.768  16.807 -0.7233 -0.2841 -0.4769
19921TIP3    H281255   5.544   1.867  16.703  1.5228 -0.0202 -1.3364
19922TIP3   OH281256   2.255   4.704   4.004 -1.1619 -0.0661  0.1493
19922TIP3    H181257   2.236   4.610   4.002 -0.3339 -0.2387 -0.2325
19922TIP3    H281258   2.177   4.744   4.042 -0.6998 -1.1242  2.3818
19923TIP3   OH281259   5.157   1.982   4.451  0.4369  0.1159  0.4057
19923TIP3    H181260   5.213   1.952   4.379 -0.4914 -1.3562  0.2710
19923TIP3    H281261   5.094   1.912   4.464 -1.8026  1.9698  0.1611
19924TIP3   OH281262   3.512   5.308  16.884  0.6778  0.3632  0.2351
19924TIP3    H181263   3.560   5.229  16.857 -0.0864 -0.1882  0.4473
19924TIP3    H281264   3.580   5.373  16.900  1.3144 -0.2024 -0.1146
19925TIP3   OH281265   5.777   5.443  13.690  0.5614  0.0416  0.8121
19925TIP3    H181266   5.839   5.373  13.712  0.2850  0.2656  2.4188
19925TIP3    H281267   5.693   5.398  13.683  0.4870  0.1222  1.2034
19926TIP3   OH281268   5.019   4.147   1.677 -0.2073 -0.1029  0.7101
19926TIP3    H181269   4.986   4.221   1.627 -0.9956 -0.9911 -0.1090
19926TIP3    H281270   5.108   4.135   1.646 -0.5046 -0.2953 -0.0784
19927TIP3   OH281271   4.316   6.489   0.600  0.1483  0.1754  0.5727
19927TIP3    H181272   4.389   6.543   0.628 -0.2480 -0.0671  2.1499
19927TIP3    H281273   4.336   6.402   0.634  0.2330 -0.4500 -0.9797
19928TIP3   OH281274   0.977   2.152   3.696  0.4293 -0.3135  0.0844
19928TIP3    H181275   0.946   2.209   3.765 -0.5433 -0.4385 -0.2322
19928TIP3    H281276   1.017   2.078   3.742 -0.2228 -0.4055  0.5156
19929TIP3   OH281277   3.310   1.042  11.594  0.0220  0.2326  0.1562
19929TIP3    H181278   3.245   1.081  11.653  0.9758  3.1466 -0.5575
19929TIP3    H281279   3.261   1.022  11.514 -0.3967  0.4379  0.3560
19930TIP3   OH281280   4.394   3.295  13.770 -0.3701 -0.7572 -0.1103
19930TIP3    H181281   4.372   3.245  13.849  0.3482  0.5854  0.9827
19930TIP3    H281282   4.409   3.384  13.801  1.6692 -0.5383 -1.5048
19931TIP3   OH281283   2.797   5.921  12.959  0.1933 -0.2719 -0.1326
19931TIP3    H181284   2.885   5.941  12.929  0.7904 -1.3199  0.8644
19931TIP3    H281285   2.805   5.908  13.053 -1.2099  0.5914  0.1377
19932TIP3   OH281286   6.432   3.464  17.017  0.6652  0.2224 -0.7905
19932TIP3    H181287   6.425   3.371  17.038 -0.1071  0.3494 -0.4442
19932TIP3    H281288   6.455   3.506  17.100 -0.0180  0.4532 -0.7106
19933TIP3   OH281289   3.311   0.741   2.817  0.1487  0.5032  0.3440
19933TIP3    H181290   3.241   0.767   2.877  0.3182 -0.7418  1.1239
19933TIP3    H281291   3.301   0.646   2.810  0.7582  0.5179 -0.8239
19934TIP3   OH281292   5.738   0.201   3.312  0.1622  0.0843  0.0521
19934TIP3    H181293   5.821   0.198   3.359  0.6882  0.5194 -0.8225
19934TIP3    H281294   5.672   0.210   3.381  0.4968 -3.6540  1.0444
19935TIP3   OH281295   6.066   5.177  10.269 -0.2156 -0.2378  0.0191
19935TIP3    H181296   6.097   5.114  10.333  0.7552 -0.3042 -0.4906
19935TIP3    H281297   6.104   5.260  10.296 -2.4762  0.4389  1.3984
19936TIP3   OH281298   2.499   0.653   2.501  0.5004  0.3072  0.7792
19936TIP3    H181299   2.487   0.714   2.428  1.9217  0.3977  0.5903
19936TIP3    H281300   2.449   0.575   2.476  0.2702  0.6618  0.1118
19937TIP3   OH281301   4.048   2.357  12.726  0.0257  0.5749 -0.5815
19937TIP3    H181302   4.013   2.283  12.676  0.7799 -0.4000  0.2940
19937TIP3    H281303   4.132   2.376  12.685  0.8827 -0.5611  0.5965
19938TIP3   OH281304   4.927   3.706  14.446  0.6008 -0.1454  0.1997
19938TIP3    H181305   4.973   3.755  14.514  0.5037 -0.3694  0.4305
19938TIP3    H281306   4.835   3.715  14.468  0.5205  0.4224 -0.3456
19939TIP3   OH281307   1.326   0.366  14.620 -0.4103 -0.2579  0.0273
19939TIP3    H181308   1.254   0.341  14.562 -0.7072 -0.2047  0.3727
19939TIP3    H281309   1.400   0.382  14.560 -0.9728  0.7516 -0.4134
19940TIP3   OH281310   2.494   6.326   3.250  0.0484  0.2612 -0.4067
19940TIP3    H181311   2.560   6.260   3.228  0.5361  0.5859  0.0520
19940TIP3    H281312   2.420   6.306   3.193  0.3736 -0.3866 -0.6109
19941TIP3   OH281313   2.200   0.607  11.257  0.1296  0.4328 -0.0454
19941TIP3    H181314   2.130   0.542  11.249  0.0182  0.6636 -1.1137
19941TIP3    H281315   2.175   0.677  11.196  1.0438  0.7389 -0.0856
19942TIP3   OH281316   2.041   2.934  13.707  0.0913 -0.1035 -0.1836
19942TIP3    H181317   1.990   2.860  13.741  1.5377 -0.8453  0.4938
19942TIP3    H281318   2.020   2.937  13.614 -0.9033 -0.6162  0.0100
19943TIP3   OH281319   5.958   3.618  11.672 -0.6679 -0.4241  0.1425
19943TIP3    H181320   6.027   3.578  11.725 -1.6772 -1.4334  0.7318
19943TIP3    H281321   5.954   3.565  11.593 -1.7833 -1.3396  0.7817
19944TIP3   OH281322   5.507   3.583  10.564  0.4012  0.5509 -0.2294
19944TIP3    H181323   5.523   3.496  10.525 -0.9215 -1.2667  2.8781
19944TIP3    H281324   5.592   3.608  10.600  0.4649 -0.2720  0.2384
19945TIP3   OH281325   3.277   2.466   2.139 -0.5553  0.1329 -0.0884
19945TIP3    H181326   3.200   2.501   2.094 -0.8350 -0.8123 -0.3559
19945TIP3    H281327   3.326   2.420   2.071 -0.9737 -1.2957  0.5321
19946TIP3   OH281328   0.864   5.193   2.375 -0.9487 -0.9666 -0.5976
19946TIP3    H181329   0.955   5.202   2.345 -0.9695  0.0882 -0.4091
19946TIP3    H281330   0.858   5.103   2.407 -0.0795 -1.1732 -0.9690
19947TIP3   OH281331   0.235   6.401  11.868 -0.1211  0.3270 -0.1334
19947TIP3    H181332   0.187   6.339  11.923  0.4805 -2.0122 -2.0625
19947TIP3    H281333   0.195   6.393  11.781  2.1219  0.0757 -1.2241
19948TIP3   OH281334   2.500   1.485  14.958  0.4677 -0.3468 -0.3964
19948TIP3    H181335   2.522   1.576  14.943  3.1140 -0.8788 -0.1369
19948TIP3    H281336   2.578   1.436  14.931 -1.0147 -2.5837 -0.9310
19949TIP3   OH281337   1.835   5.518  10.845 -0.2219 -0.2184  0.4908
19949TIP3    H181338   1.911   5.469  10.875 -0.9473 -1.5545  0.2128
19949TIP3    H281339   1.848   5.527  10.751 -0.3305 -0.2941  0.4691
19950TIP3   OH281340   5.692   6.377   5.397 -0.2666  0.4092 -0.1722
19950TIP3    H181341   5.608   6.345   5.363  0.6811 -1.3244 -0.9934
19950TIP3    H281342   5.674   6.401   5.488 -1.4572 -0.7815 -0.0698
19951TIP3   OH281343   1.944   2.771  11.964 -0.1144 -0.3580  0.4315
19951TIP3    H181344   1.953   2.864  11.942  1.0652 -0.0511  2.0685
19951TIP3    H281345   1.911   2.731  11.883 -0.6716  1.4659 -0.3011
19952TIP3   OH281346   2.649   1.189  11.792  0.4494 -0.0287 -0.1231
19952TIP3    H181347   2.724   1.242  11.765  1.9247 -1.1144  1.5870
19952TIP3    H281348   2.592   1.249  11.840  2.6043 -0.0509  2.7246
19953TIP3   OH281349   6.197   5.298  15.289 -0.3144 -0.3428 -0.3238
19953TIP3    H181350   6.193   5.204  15.306 -2.4539 -0.0474  1.3322
19953TIP3    H281351   6.111   5.319  15.252  0.6893  0.7566 -2.1812
19954TIP3   OH281352   6.668   4.385  15.629 -0.5482  0.3813  0.7242
19954TIP3    H181353   6.756   4.413  15.603  0.3949 -3.1056 -0.4293
19954TIP3    H281354   6.614   4.463  15.619  2.1970  2.4145  0.5221
19955TIP3   OH281355   2.230   3.763  16.787  0.8127  0.6315  0.0691
19955TIP3    H181356   2.307   3.767  16.731 -0.5377  0.2455 -1.9110
19955TIP3    H281357   2.258   3.806  16.868  3.0383  0.6514 -0.6289
19956TIP3   OH281358   4.595   0.962   2.961  0.4701  0.8663  0.5366
19956TIP3    H181359   4.688   0.967   2.985  0.1011  1.7579  1.9009
19956TIP3    H281360   4.582   1.033   2.899  0.7406  0.6106  0.1855
19957TIP3   OH281361   6.394   1.952  15.411  0.2808 -0.5903  0.5994
19957TIP3    H181362   6.329   1.932  15.477  0.3326 -0.4251  0.7002
19957TIP3    H281363   6.388   1.880  15.348  1.4951 -1.7342  1.7356
19958TIP3   OH281364   2.852   5.207   2.920  0.2563 -0.3755 -0.2032
19958TIP3    H181365   2.889   5.295   2.923 -0.3390 -0.1416  0.3119
19958TIP3    H281366   2.788   5.210   2.848  0.8017 -0.6193 -0.7120
19959TIP3   OH281367   5.983   5.520   1.937  0.2095  0.5323  0.5797
19959TIP3    H181368   5.910   5.546   1.880  1.2107  1.2105 -0.4278
19959TIP3    H281369   6.057   5.574   1.908  0.7713  0.8646  2.5194
19960TIP3   OH281370   0.117   5.323  11.809 -0.4325 -0.0531  0.2939
19960TIP3    H181371   0.084   5.251  11.863 -0.4856  1.1432  1.9289
19960TIP3    H281372   0.200   5.348  11.849  0.0419  0.2194 -0.8074
19961TIP3   OH281373   4.893   5.011  15.400  0.1230 -0.1009  0.2359
19961TIP3    H181374   4.825   4.944  15.404  1.5011 -1.5446  0.4009
19961TIP3    H281375   4.884   5.049  15.312 -0.8855 -0.2496  0.2598
19962TIP3   OH281376   3.640   0.105  10.702 -0.5178 -0.2134 -0.0921
19962TIP3    H181377   3.689   0.033  10.742  1.2332  0.4173 -1.0188
19962TIP3    H281378   3.548   0.085  10.723  0.0860 -1.4276  1.7189
19963TIP3   OH281379   0.605   1.529  11.044  0.0761  0.3197  0.0823
19963TIP3    H181380   0.657   1.466  10.995 -0.1439 -0.1805  0.4884
19963TIP3    H281381   0.515   1.514  11.017  0.1111  1.1133 -0.5360
19964TIP3   OH281382   6.679   0.945  17.084  0.2688 -0.2448  0.2269
19964TIP3    H181383   6.771   0.963  17.104  0.2161  1.1968 -0.6815
19964TIP3    H281384   6.664   0.989  17.000 -1.5988  0.7177  1.0074
19965TIP3   OH281385   5.375   5.406   1.321  0.7927  0.3208  0.0236
19965TIP3    H181386   5.454   5.434   1.367  0.0903  0.0147  1.5034
19965TIP3    H281387   5.306   5.461   1.358 -0.0685 -1.1143  0.6285
19966TIP3   OH281388   5.807   0.114  11.532 -0.0764  0.2093  0.0885
19966TIP3    H181389   5.870   0.185  11.548 -0.0566 -0.0273  1.1189
19966TIP3    H281390   5.791   0.117  11.438  3.2698 -1.2298 -0.6587
19967TIP3   OH281391   4.335   0.098   2.858 -0.1130  0.1754  0.4236
19967TIP3    H181392   4.405   0.054   2.810 -2.8029 -1.9918 -1.8263
19967TIP3    H281393   4.379   0.169   2.904  3.2160  0.3704 -2.6418
19968TIP3   OH281394   6.328   0.398  17.297  0.3568 -0.2862 -0.0748
19968TIP3    H181395   6.249   0.446  17.324 -0.6851 -0.7682 -2.0792
19968TIP3    H281396   6.312   0.374  17.206  2.8239 -0.4734 -0.5319
19969TIP3   OH281397   0.749   3.092   1.232  0.7051 -0.0406  0.4114
19969TIP3    H181398   0.694   3.166   1.256  0.5402 -0.1381  0.3343
19969TIP3    H281399   0.817   3.129   1.176  0.4904  0.0135  0.1888
19970TIP3   OH281400   1.890   0.456  16.498  0.0918 -0.3538 -0.0441
19970TIP3    H181401   1.984   0.436  16.501 -0.2754 -2.3048 -0.6394
19970TIP3    H281402   1.853   0.407  16.571 -0.2772  1.8567  1.3569
19971TIP3   OH281403   3.255   1.699  10.493 -0.2448  0.1349 -0.2044
19971TIP3    H181404   3.283   1.613  10.524  0.2248  0.2424 -0.3289
19971TIP3    H281405   3.172   1.714  10.539 -1.0086 -0.9525 -1.1609
19972TIP3   OH281406   2.552   0.049  12.852 -0.2212 -0.9659 -0.1862
19972TIP3    H181407   2.608   0.104  12.905  0.7634 -2.6660  0.6294
19972TIP3    H281408   2.466   0.092  12.853  0.6745  0.9107 -0.2522
19973TIP3   OH281409   2.961   1.628   1.347  0.4430 -0.3635 -0.1425
19973TIP3    H181410   2.936   1.546   1.303 -0.2168 -0.4654  0.4060
19973TIP3    H281411   2.911   1.696   1.301 -1.9631 -0.7149  1.7923
19974TIP3   OH281412   0.136   1.695  17.114  0.0823 -0.2426  0.2432
19974TIP3    H181413   0.144   1.621  17.054  0.0485  0.7044 -0.9597
19974TIP3    H281414   0.070   1.666  17.178  0.4882 -1.4578  0.1504
19975TIP3   OH281415   3.041   2.674   5.798 -0.1094  0.5011  0.0205
19975TIP3    H181416   2.983   2.600   5.817  0.3499 -0.2562 -1.4126
19975TIP3    H281417   3.129   2.637   5.801  0.1499  1.0837 -0.2775
19976TIP3   OH281418   5.276   2.643  17.230  0.0852  0.2718  0.0711
19976TIP3    H181419   5.271   2.555  17.267  1.2224  0.0834 -0.1771
19976TIP3    H281420   5.261   2.701  17.305  1.4420 -0.1215  0.6859
19977TIP3   OH281421   5.628   4.126  16.202 -0.1824 -0.3645  0.3457
19977TIP3    H181422   5.559   4.082  16.252 -1.5485  0.4728 -0.7465
19977TIP3    H281423   5.605   4.219  16.206  1.5800  0.0856  0.9846
19978TIP3   OH281424   0.020   2.292  13.071  0.2171  0.3736  0.0530
19978TIP3    H181425   0.083   2.222  13.055 -0.9600 -0.3759 -1.6338
19978TIP3    H281426   0.070   2.373  13.060  1.2501 -0.1893  0.4864
19979TIP3   OH281427   2.642   4.049  11.320 -0.0319 -0.3142 -0.0045
19979TIP3    H181428   2.551   4.076  11.333 -0.9923 -3.1230 -0.2167
19979TIP3    H281429   2.658   4.061  11.226  0.4637  1.7556  0.2791
19980TIP3   OH281430   3.788   4.254   5.414 -0.3790 -0.0089 -0.6941
19980TIP3    H181431   3.763   4.332   5.366 -1.1290 -0.5532 -1.1975
19980TIP3    H281432   3.714   4.235   5.471 -0.2441 -0.4218 -0.6514
19981TIP3   OH281433   3.758   4.823  12.809  0.1530  0.3790 -0.1379
19981TIP3    H181434   3.822   4.810  12.739 -0.5902 -0.1083 -0.7444
19981TIP3    H281435   3.794   4.894  12.862  1.6844 -0.5368  0.1217
19982TIP3   OH281436   0.073   6.780   6.043  0.6910  0.1942 -0.4314
19982TIP3    H181437   0.110   6.761   5.957 -1.3862 -4.9729 -0.5601
19982TIP3    H281438   0.144   6.760   6.104  0.5477 -2.0823 -0.9080
19983TIP3   OH281439   6.180   4.340   4.380 -0.4533  0.0794 -0.4667
19983TIP3    H181440   6.219   4.355   4.294 -0.6177  0.9609 -0.4000
19983TIP3    H281441   6.200   4.419   4.429  0.2369 -0.6947  0.5413
19984TIP3   OH281442   1.408   0.039   5.328 -0.0452  0.0135  0.6391
19984TIP3    H181443   1.463   0.095   5.381  0.6498  1.0987 -1.1299
19984TIP3    H281444   1.457  -0.042   5.318  0.5942  0.4459  0.2450
19985TIP3   OH281445   4.105   1.594  12.023  0.6572 -0.5439  0.6852
19985TIP3    H181446   4.130   1.514  12.068  0.2354 -0.1148  1.7114
19985TIP3    H281447   4.010   1.596  12.027  0.4932 -1.2101 -1.5244
19986TIP3   OH281448   3.967   4.778   3.000  0.0848  0.7298  0.1998
19986TIP3    H181449   3.991   4.788   2.907 -0.2690  0.6681  0.1016
19986TIP3    H281450   4.050   4.786   3.046  0.4253 -0.3230 -0.1973
19987TIP3   OH281451   3.265   0.087   3.138 -0.3582 -0.7441 -0.3503
19987TIP3    H181452   3.179   0.105   3.101 -1.2831 -1.7028  1.2218
19987TIP3    H281453   3.314   0.169   3.126 -1.9039  0.2501 -0.1481
19988TIP3   OH281454   1.475   5.247  14.946 -0.2915 -0.5525  0.5761
19988TIP3    H181455   1.450   5.338  14.932  1.6267  0.0004  0.5379
19988TIP3    H281456   1.445   5.202  14.866  1.7494  0.7201 -0.9922
19989TIP3   OH281457   3.688   6.803  14.594  0.6888 -0.2341  0.0098
19989TIP3    H181458   3.755   6.862  14.560 -0.8405  1.5503 -0.0753
19989TIP3    H281459   3.736   6.739  14.647  2.6159 -0.2081 -1.6011
19990TIP3   OH281460   4.034   4.739  16.476  0.2314  0.3212  0.4579
19990TIP3    H181461   4.082   4.750  16.558 -0.3948  0.3891  0.8213
19990TIP3    H281462   3.973   4.813  16.474  0.7052  0.7019 -0.3952
19991TIP3   OH281463   0.729   2.381   2.607  0.1510 -0.2201 -0.1898
19991TIP3    H181464   0.676   2.372   2.528  0.7312 -0.7023 -0.5372
19991TIP3    H281465   0.817   2.356   2.579 -0.2141 -3.8876  1.4064
19992TIP3   OH281466   0.449   6.751   3.810 -0.2410  0.3858  0.2390
19992TIP3    H181467   0.431   6.734   3.718  0.5603  0.9675 -0.0318
19992TIP3    H281468   0.398   6.829   3.832  1.5141  1.7886 -0.4192
19993TIP3   OH281469   6.598   6.019   2.536  0.1123  0.0218  0.4300
19993TIP3    H181470   6.563   6.011   2.448 -1.1570  0.7695  0.8386
19993TIP3    H281471   6.633   6.108   2.540  1.4283 -0.4750  0.2593
19994TIP3   OH281472   2.793   6.285  15.023  0.0168  0.0727 -0.2149
19994TIP3    H181473   2.888   6.293  15.032 -0.2656  1.7157  1.8674
19994TIP3    H281474   2.770   6.352  14.958  0.1765  0.2613 -0.0775
19995TIP3   OH281475   1.208   6.609   5.049 -0.6348 -0.0954 -0.0056
19995TIP3    H181476   1.183   6.531   5.099  0.4557  0.2782  1.1737
19995TIP3    H281477   1.125   6.642   5.014 -1.1270 -1.6984 -0.4252
19996TIP3   OH281478   6.340   3.112   5.056 -0.2045 -0.6533 -0.1653
19996TIP3    H181479   6.352   3.188   5.113 -0.9806  1.0331 -2.1099
19996TIP3    H281480   6.261   3.069   5.090 -1.3254  0.9741 -0.5472
19997TIP3   OH281481   5.253   4.891  16.764 -0.1597 -1.1102 -0.4023
19997TIP3    H181482   5.344   4.883  16.791  1.2177  2.3354 -3.2629
19997TIP3    H281483   5.213   4.947  16.829  0.4505 -0.6809 -0.3890
19998TIP3   OH281484   5.056   6.620   0.441  0.6025 -0.0452 -0.9669
19998TIP3    H181485   5.013   6.541   0.474 -1.9910  1.1695 -1.1824
19998TIP3    H281486   5.081   6.669   0.519 -0.0076  0.0159 -0.8022
19999TIP3   OH281487   1.047   3.700   0.083 -0.0714  0.3383 -0.1381
19999TIP3    H181488   0.953   3.684   0.092  0.2690 -0.8260  2.0370
19999TIP3    H281489   1.052   3.778   0.028 -2.2558 -0.1139 -1.1144
20000TIP3   OH281490   3.757   3.757  16.281  0.2460 -0.5111  0.2231
20000TIP3    H181491   3.679   3.728  16.328 -1.1888  0.0476 -1.6729
20000TIP3    H281492   3.786   3.835  16.329 -0.4064 -0.6789  0.9194
20001TIP3   OH281493   3.326   5.164   5.342  0.2813  0.1017  0.1795
20001TIP3    H181494   3.388   5.126   5.280  0.9207 -0.0189  0.8694
20001TIP3    H281495   3.360   5.139   5.428 -1.3977 -1.0039  0.5580
20002TIP3   OH281496   3.070   3.204  11.650  0.1073  0.1260  0.8666
20002TIP3    H181497   3.021   3.132  11.690 -1.7090 -0.0664 -1.4776
20002TIP3    H281498   3.153   3.165  11.624  0.6483 -0.1419  2.8216
20003TIP3   OH281499   0.105   3.193   4.256  0.3739 -0.1577 -0.1443
20003TIP3    H181500   0.096   3.204   4.350  0.9374 -0.0207 -0.1023
20003TIP3    H281501   0.015   3.181   4.224  0.1241  0.4017  0.3304
20004TIP3   OH281502   0.759   5.589   3.252  0.0235 -0.5383  0.4443
20004TIP3    H181503   0.686   5.587   3.313  0.0271  1.2572  0.5414
20004TIP3    H281504   0.819   5.655   3.288  0.0083  0.6031 -1.4878
20005TIP3   OH281505   5.027   5.841  13.086  0.2156  0.2124  0.0697
20005TIP3    H181506   5.115   5.803  13.099 -0.2038 -1.0273 -0.5438
20005TIP3    H281507   4.996   5.860  13.175  0.4050 -1.0371  0.4299
20006TIP3   OH281508   1.349   0.780   3.508  0.5392 -0.1416  0.7913
20006TIP3    H181509   1.344   0.693   3.547 -2.4728 -0.9708 -1.0951
20006TIP3    H281510   1.269   0.824   3.537 -0.1780  0.3696 -1.7386
20007TIP3   OH281511   4.895   5.354  13.594  0.9609 -0.1422  0.2201
20007TIP3    H181512   4.987   5.377  13.587  0.9323  0.1142  0.6877
20007TIP3    H281513   4.880   5.293  13.521  1.4534 -0.0507  0.0403
20008TIP3   OH281514   0.982   5.881   3.185  0.1585 -0.8781 -0.3334
20008TIP3    H181515   1.063   5.930   3.172  0.1383 -0.6663  0.2839
20008TIP3    H281516   0.984   5.811   3.120  0.9057 -0.9612 -0.2235
20009TIP3   OH281517   5.637   3.856   2.449 -0.6873 -0.6609 -0.1578
20009TIP3    H181518   5.605   3.946   2.445 -2.6313 -1.3417 -2.9456
20009TIP3    H281519   5.710   3.854   2.388 -0.2953 -0.8508  0.3168
20010TIP3   OH281520   5.613   6.300   1.801  0.0733  0.5044  0.2740
20010TIP3    H181521   5.674   6.260   1.739 -1.9978  0.7809 -2.1404
20010TIP3    H281522   5.572   6.226   1.846  0.2680  0.1868 -0.0689
20011TIP3   OH281523   4.526   3.561   3.037 -0.2611  0.0023 -0.1383
20011TIP3    H181524   4.614   3.550   3.072 -0.0240  1.7964 -0.0619
20011TIP3    H281525   4.472   3.501   3.088  0.6886 -0.1010  0.7806
20012TIP3   OH281526   1.846   6.417   3.892  0.2664  0.4414  0.4331
20012TIP3    H181527   1.867   6.415   3.799  0.6725  0.9501  0.5136
20012TIP3    H281528   1.752   6.436   3.895 -0.4920 -2.5702  0.0477
20013TIP3   OH281529   5.681   3.317  12.577  0.2132 -0.3825  0.4944
20013TIP3    H181530   5.731   3.325  12.659 -0.8072  3.2533  0.9004
20013TIP3    H281531   5.595   3.352  12.598 -1.1359 -2.3459 -1.3916
20014TIP3   OH281532   0.431   0.227  13.469  0.0646 -0.0397  0.0825
20014TIP3    H181533   0.483   0.304  13.491 -1.4847  0.8395  0.8839
20014TIP3    H281534   0.482   0.180  13.403  1.4264  1.2230  0.2058
20015TIP3   OH281535   2.750   4.838   2.623  0.3048 -0.0033  0.1189
20015TIP3    H181536   2.760   4.871   2.712 -1.5109  0.6777  0.0960
20015TIP3    H281537   2.826   4.873   2.576  0.1518  1.4092  0.8863
20016TIP3   OH281538   4.830   0.414   0.941 -0.3055  0.7806 -0.2261
20016TIP3    H181539   4.760   0.471   0.972 -1.1199  0.2290 -0.9724
20016TIP3    H281540   4.807   0.396   0.850  0.8258  0.5950 -0.4841
20017TIP3   OH281541   4.846   4.993   6.910  0.1907  0.1218  0.1062
20017TIP3    H181542   4.778   5.034   6.964 -0.7317  0.0166 -0.9419
20017TIP3    H281543   4.806   4.912   6.878  0.6128  0.3168 -0.9487
20018TIP3   OH281544   1.428   3.663  13.512  0.6018 -0.0988 -0.3302
20018TIP3    H181545   1.401   3.585  13.560 -1.7979  0.7402 -0.1575
20018TIP3    H281546   1.390   3.736  13.561  3.7935  1.3695  0.2107
20019TIP3   OH281547   4.765   5.917   0.848 -0.0124 -0.2271 -0.1494
20019TIP3    H181548   4.776   5.823   0.834  2.0460 -0.0141 -0.2818
20019TIP3    H281549   4.747   5.952   0.760  1.0409 -0.2983 -0.4038
20020TIP3   OH281550   1.527   1.557   2.315  0.4082 -0.0817  0.3016
20020TIP3    H181551   1.608   1.529   2.358  0.8367  0.3367 -0.2256
20020TIP3    H281552   1.520   1.651   2.335 -0.0294 -0.1481  0.4752
20021TIP3   OH281553   2.837   0.140   2.404 -0.3944  0.5903 -0.0243
20021TIP3    H181554   2.827   0.083   2.328  2.4198 -0.0306 -0.0433
20021TIP3    H281555   2.894   0.210   2.373  0.4350  0.5688  1.3721
20022TIP3   OH281556   3.296   2.577   5.789 -0.2349 -0.1011 -0.2347
20022TIP3    H181557   3.247   2.511   5.839  1.4374 -0.1131  1.5093
20022TIP3    H281558   3.387   2.549   5.796  0.3027  1.3111 -1.1889
20023TIP3   OH281559   6.637   2.325   1.586 -0.2452 -0.5923  0.6331
20023TIP3    H181560   6.553   2.281   1.599  0.3258 -1.4859  1.4775
20023TIP3    H281561   6.622   2.387   1.515 -1.5836 -0.8227  0.7040
20024TIP3   OH281562   5.950   0.677  16.448  0.0549  0.1223  0.5612
20024TIP3    H181563   6.000   0.736  16.391  0.8148 -0.5204  0.5531
20024TIP3    H281564   5.995   0.680  16.532  0.1786 -0.5537  0.5224
20025TIP3   OH281565   1.236   4.601  15.011  0.5232  0.1670 -0.7632
20025TIP3    H181566   1.223   4.510  15.036 -1.8874  0.3681 -1.1003
20025TIP3    H281567   1.152   4.643  15.027  0.9123  1.8360 -2.6883
20026TIP3   OH281568   4.126   5.709  16.691 -0.1078  0.3090 -0.0073
20026TIP3    H181569   4.158   5.787  16.646  0.3583 -1.0288 -2.1327
20026TIP3    H281570   4.030   5.716  16.686 -0.0878 -0.5151 -2.6231
20027TIP3   OH281571   3.008   0.067   3.033  0.2953 -0.4290 -0.2220
20027TIP3    H181572   2.999  -0.024   3.064  0.5250  0.0728  1.3920
20027TIP3    H281573   3.000   0.060   2.937  1.6974 -2.3249 -0.2559
20028TIP3   OH281574   0.522   3.260   0.233  0.1104  0.3595 -0.2563
20028TIP3    H181575   0.496   3.292   0.146  0.0504 -1.7829 -1.0715
20028TIP3    H281576   0.474   3.317   0.294 -0.5079  1.3666 -1.6226
20029TIP3   OH281577   3.510   3.263   5.444  0.5436  0.4301  0.1803
20029TIP3    H181578   3.552   3.181   5.468 -2.3281 -0.9080  1.0773
20029TIP3    H281579   3.418   3.241   5.432 -0.4520  3.5725  0.9296
20030TIP3   OH281580   1.487   5.441   5.413  0.9369 -0.3627  0.8301
20030TIP3    H181581   1.453   5.421   5.500 -0.4406 -0.3037  0.3271
20030TIP3    H281582   1.411   5.473   5.364  1.8364  0.2956 -0.1825
20031TIP3   OH281583   2.350   2.919  13.889 -0.0553  0.0401 -0.3892
20031TIP3    H181584   2.327   2.835  13.849  0.7993 -0.2475 -0.2889
20031TIP3    H281585   2.265   2.960  13.908 -0.4874 -0.8473 -0.3329
20032TIP3   OH281586   0.897   5.567   6.286  0.3794  0.5684 -0.6362
20032TIP3    H181587   0.837   5.558   6.360  1.2417  0.2302  0.0394
20032TIP3    H281588   0.872   5.497   6.227 -2.0233  2.3778 -1.9507
20033TIP3   OH281589   5.558   4.160  12.104  0.3856  0.2049 -0.0700
20033TIP3    H181590   5.610   4.095  12.152  0.4887  2.0482  2.5220
20033TIP3    H281591   5.501   4.199  12.171 -0.2323  2.2296 -1.6773
20034TIP3   OH281592   1.722   5.622  12.106 -0.1459  0.5110  0.0006
20034TIP3    H181593   1.817   5.624  12.094 -0.2052  0.0744 -0.5675
20034TIP3    H281594   1.688   5.585  12.025 -0.8697  1.4170 -0.1222
20035TIP3   OH281595   3.034   2.247   2.527 -0.1555  0.1085 -0.5358
20035TIP3    H181596   2.981   2.223   2.604  0.6900 -2.4982 -0.6852
20035TIP3    H281597   3.100   2.307   2.562 -1.2031  0.8374  0.2797
20036TIP3   OH281598   1.682   4.563  15.564  0.0277 -0.0091 -0.1828
20036TIP3    H181599   1.755   4.536  15.509  0.4455  1.2064 -0.2499
20036TIP3    H281600   1.690   4.659  15.570 -0.5066 -0.0310  1.2794
20037TIP3   OH281601   4.871   5.911   6.612 -0.2098 -0.0711  0.1317
20037TIP3    H181602   4.780   5.940   6.599 -0.2269 -0.7354 -1.5918
20037TIP3    H281603   4.863   5.829   6.661 -0.4478  0.4668  1.0132
20038TIP3   OH281604   2.285   0.371   1.281 -0.4452  0.7144  0.3456
20038TIP3    H181605   2.233   0.444   1.315 -2.9486 -0.6021 -0.3506
20038TIP3    H281606   2.253   0.295   1.329  0.6787 -0.2196 -0.3404
20039TIP3   OH281607   5.521   2.629   2.450  0.0952  0.3304 -0.0882
20039TIP3    H181608   5.520   2.542   2.412 -1.6911  0.7709 -1.1693
20039TIP3    H281609   5.498   2.616   2.542 -0.3258 -0.3236 -0.2815
20040TIP3   OH281610   5.277   2.310   3.276 -0.2156  0.2667 -0.0139
20040TIP3    H181611   5.253   2.217   3.273  2.0554 -0.5284  2.4597
20040TIP3    H281612   5.210   2.350   3.331  0.1511 -0.4768  1.0116
20041TIP3   OH281613   3.652   0.603  17.070  0.6216 -0.6761 -0.2891
20041TIP3    H181614   3.675   0.526  17.018  0.6821 -0.0732 -1.1860
20041TIP3    H281615   3.730   0.622  17.121  1.0970 -0.3854 -1.1116
20042TIP3   OH281616   3.656   2.609  13.352 -0.0327 -0.1576  0.2719
20042TIP3    H181617   3.585   2.568  13.304  0.4463  0.3083 -0.8833
20042TIP3    H281618   3.674   2.550  13.425  0.0697 -1.5690 -0.8519
20043TIP3   OH281619   5.982   5.217  10.584 -0.6795  0.1670  0.1623
20043TIP3    H181620   6.061   5.211  10.530 -0.4668  1.6342  0.2746
20043TIP3    H281621   5.963   5.126  10.609  1.6067 -0.1214  1.0468
20044TIP3   OH281622   5.148   2.929  13.268  0.3190  0.4707  0.1130
20044TIP3    H181623   5.088   2.996  13.300  0.6235  1.0714 -0.5377
20044TIP3    H281624   5.188   2.892  13.347  0.6915  1.5793  0.4608
20045TIP3   OH281625   1.343   6.590   4.757  0.9924 -0.0309 -0.3890
20045TIP3    H181626   1.379   6.609   4.670 -0.6279  3.0256 -0.5415
20045TIP3    H281627   1.251   6.568   4.742  1.1821 -1.5321  0.4429
20046TIP3   OH281628   0.198   6.715  17.079 -0.5546  0.7221  0.2124
20046TIP3    H181629   0.261   6.667  17.025  0.2287 -0.3023  1.9543
20046TIP3    H281630   0.126   6.653  17.093 -0.5115  0.7917  0.7601
20047TIP3   OH281631   5.195   1.816   2.990  0.7291 -0.3546  0.4416
20047TIP3    H181632   5.244   1.740   3.020  3.0526  0.3855 -1.2106
20047TIP3    H281633   5.219   1.827   2.898 -1.7904  0.7106 -0.1857
20048TIP3   OH281634   3.290   3.594  14.016 -0.5780 -0.4816  0.2737
20048TIP3    H181635   3.222   3.588  14.084 -1.1696 -1.7367 -0.3805
20048TIP3    H281636   3.254   3.656  13.952 -0.4881 -0.0978  0.5908
20049TIP3   OH281637   1.502   1.222   5.699  0.4913  0.9185  0.1030
20049TIP3    H181638   1.556   1.234   5.778 -0.3922  1.0330  0.7048
20049TIP3    H281639   1.424   1.275   5.715 -0.4220 -0.3067 -0.1593
20050TIP3   OH281640   4.217   5.080   6.539 -0.0565 -0.0607  0.0397
20050TIP3    H181641   4.178   4.993   6.542  0.0290 -0.1021 -0.1112
20050TIP3    H281642   4.240   5.098   6.630  0.3847 -0.3976 -0.0050
20051TIP3   OH281643   5.743   6.737  12.836  0.0824  0.3131 -0.1156
20051TIP3    H181644   5.750   6.826  12.801  3.5138  0.4768  0.6217
20051TIP3    H281645   5.811   6.732  12.903 -2.3405 -1.8178  2.4598
20052TIP3   OH281646   5.809   3.621   3.783 -0.1693  0.0099  0.5366
20052TIP3    H181647   5.844   3.594   3.698  0.9942  0.5065  0.8406
20052TIP3    H281648   5.803   3.717   3.777  1.8159  0.2397  1.6848
20053TIP3   OH281649   6.600   6.473  13.851 -0.0935 -0.1934  0.3687
20053TIP3    H181650   6.662   6.535  13.889  0.2512  0.6149 -1.3753
20053TIP3    H281651   6.654   6.416  13.795 -0.6416 -0.9577  0.5959
20054TIP3   OH281652   5.431   3.110   0.994 -0.2916  0.1891  0.2043
20054TIP3    H181653   5.504   3.049   0.985 -0.8951 -0.9148  2.1129
20054TIP3    H281654   5.353   3.058   0.977 -0.7654  0.6459  0.8993
20055TIP3   OH281655   1.284   5.897  11.535  0.1695 -0.1805  0.0972
20055TIP3    H181656   1.369   5.893  11.579  0.2270  1.5053  0.1898
20055TIP3    H281657   1.220   5.896  11.606  0.2552  2.2906  0.2725
20056TIP3   OH281658   2.537   0.924   1.691 -0.2737 -0.4985  0.2715
20056TIP3    H181659   2.461   0.948   1.637 -1.2844 -2.2610  0.8199
20056TIP3    H281660   2.507   0.937   1.781  1.6385  3.1142  0.5682
20057TIP3   OH281661   3.802   4.225  12.016 -0.3177  0.2654  0.7510
20057TIP3    H181662   3.850   4.186  12.089  0.6447  1.1945  0.6302
20057TIP3    H281663   3.782   4.314  12.045 -0.6392  0.3788  0.1974
20058TIP3   OH281664   3.675   1.471  13.341 -0.7331  0.7434 -0.2033
20058TIP3    H181665   3.643   1.453  13.252  0.3597 -0.6166 -0.3471
20058TIP3    H281666   3.738   1.542  13.330 -2.0993  2.0120 -0.1967
20059TIP3   OH281667   1.602   3.976   5.013 -0.0300 -0.1995  1.0607
20059TIP3    H181668   1.513   3.997   5.039 -0.5321 -0.4111 -0.4147
20059TIP3    H281669   1.646   4.061   5.006 -0.7496  0.0803 -0.3428
20060TIP3   OH281670   2.589   5.303  11.857 -0.1723  0.7398  0.0805
20060TIP3    H181671   2.620   5.278  11.944  1.4882  1.2038 -0.3489
20060TIP3    H281672   2.575   5.397  11.863 -0.0140  0.7788 -0.1652
20061TIP3   OH281673   3.173   0.462  16.349 -0.5790 -0.4221 -0.0125
20061TIP3    H181674   3.085   0.438  16.378 -0.0173 -0.4277  1.8137
20061TIP3    H281675   3.230   0.396  16.390  0.3493  0.1049 -0.4356
20062TIP3   OH281676   2.515   2.275   6.898  1.0764 -0.1441 -0.2184
20062TIP3    H181677   2.448   2.269   6.829  0.9886  1.2361 -0.2968
20062TIP3    H281678   2.598   2.279   6.850  1.0145  0.8271 -0.2757
20063TIP3   OH281679   5.524   3.771  14.671 -0.2511 -0.0211  0.2416
20063TIP3    H181680   5.460   3.741  14.735 -1.0301 -0.5243 -0.7338
20063TIP3    H281681   5.608   3.735  14.701 -0.7911 -1.2150  0.3614
20064TIP3   OH281682   0.465   5.470  15.263 -0.3469 -0.0462 -0.1593
20064TIP3    H181683   0.412   5.392  15.280  0.4967 -0.8791 -1.2307
20064TIP3    H281684   0.405   5.532  15.221 -0.9587 -0.1903  0.4761
20065TIP3   OH281685   4.080   0.145  14.308  0.5991  0.1404  0.1424
20065TIP3    H181686   4.016   0.200  14.353  0.5521 -0.5565  0.9388
20065TIP3    H281687   4.137   0.207  14.263  0.7692  0.8649  1.3273
20066TIP3   OH281688   4.770   2.107  12.445  0.2331 -0.1227  0.2533
20066TIP3    H181689   4.684   2.149  12.449  0.4298  0.2366  0.7970
20066TIP3    H281690   4.759   2.026  12.495 -0.5289 -1.4469 -1.9354
20067TIP3   OH281691   5.226   1.514  12.255  0.9723  0.4578 -0.4136
20067TIP3    H181692   5.219   1.542  12.164 -0.4271  1.2699 -0.0847
20067TIP3    H281693   5.220   1.419  12.251  0.7948  0.4938 -1.1559
20068TIP3   OH281694   1.142   6.380   2.613 -0.8348  0.7791 -0.1700
20068TIP3    H181695   1.155   6.399   2.520  0.8541  2.4141  0.3233
20068TIP3    H281696   1.207   6.312   2.633 -0.4977  1.1444  0.0018
20069TIP3   OH281697   3.022   3.230   2.874 -0.5845  0.2818  0.1272
20069TIP3    H181698   2.953   3.164   2.877 -1.9272  1.6409  0.8951
20069TIP3    H281699   2.986   3.299   2.817  1.0169  0.1433 -1.1260
20070TIP3   OH281700   5.126   2.095   2.601  0.3512  0.1300  0.3231
20070TIP3    H181701   5.134   2.001   2.611 -2.8209 -0.5885 -2.2120
20070TIP3    H281702   5.209   2.123   2.562  0.3856 -2.1291 -1.4132
20071TIP3   OH281703   2.158   0.935   0.811  0.0235  0.0209 -0.2152
20071TIP3    H181704   2.089   0.966   0.871  0.5636  0.4332  0.1974
20071TIP3    H281705   2.186   1.013   0.764 -0.4137 -0.3053 -1.0376
20072TIP3   OH281706   6.043   0.465   2.315 -0.2905 -0.7321 -0.1049
20072TIP3    H181707   6.112   0.430   2.259 -2.6935 -0.5778 -3.5202
20072TIP3    H281708   6.012   0.543   2.269 -1.2506  0.5355  2.4870
20073TIP3   OH281709   0.830   4.883  13.465  0.1968 -0.5644 -0.1175
20073TIP3    H181710   0.829   4.973  13.495 -1.8748 -0.9550  1.2006
20073TIP3    H281711   0.769   4.881  13.392  0.2493 -0.8819 -0.1547
20074TIP3   OH281712   3.987   5.506  16.314 -0.4189 -0.1887  0.1263
20074TIP3    H181713   3.978   5.412  16.301 -0.2009  0.0082 -1.5859
20074TIP3    H281714   3.906   5.543  16.278  0.4900  0.4316 -1.3392
20075TIP3   OH281715   0.610   5.268   3.405  0.2433 -0.3192  0.5077
20075TIP3    H181716   0.703   5.247   3.407  0.0262 -1.6187 -1.1871
20075TIP3    H281717   0.566   5.183   3.400 -1.1302  0.2028  2.5529
20076TIP3   OH281718   3.952   6.529  12.538 -0.2776 -0.2016  0.0936
20076TIP3    H181719   4.040   6.559  12.515  1.0016 -2.9252  0.9677
20076TIP3    H281720   3.924   6.476  12.463 -0.2660 -1.0508  0.6804
20077TIP3   OH281721   6.081   4.903   2.160 -0.4965 -0.5051 -0.1086
20077TIP3    H181722   6.155   4.907   2.222  0.4272  1.5114 -1.2455
20077TIP3    H281723   6.030   4.827   2.189  0.1221  0.0779  2.8437
20078TIP3   OH281724   2.287   6.158   6.159 -0.0786 -0.0428  0.1413
20078TIP3    H181725   2.382   6.172   6.157  0.1553 -1.3240 -2.3280
20078TIP3    H281726   2.276   6.077   6.209  0.0772  0.3171  0.7672
20079TIP3   OH281727   0.840   0.397   3.090  0.0142 -0.3800 -0.3293
20079TIP3    H181728   0.876   0.398   3.002 -0.3875 -0.8488 -0.5037
20079TIP3    H281729   0.875   0.317   3.130 -1.0153 -0.9771 -0.5871
20080TIP3   OH281730   0.567   6.155   5.563  0.0803 -0.0745  0.2155
20080TIP3    H181731   0.605   6.240   5.539  0.7674 -0.4313  0.0181
20080TIP3    H281732   0.477   6.158   5.529  0.2577  0.3791 -0.2227
20081TIP3   OH281733   0.340   4.025   5.446  0.6345  0.0360  0.3668
20081TIP3    H181734   0.359   4.018   5.353  0.5677  1.8672  0.1918
20081TIP3    H281735   0.273   3.958   5.462 -0.9489  1.1272 -1.3680
20082TIP3   OH281736   6.270   1.483  14.283  0.0970  0.1183 -0.2563
20082TIP3    H181737   6.311   1.568  14.298  0.3275  0.0039 -0.2346
20082TIP3    H281738   6.295   1.431  14.359 -1.1072  0.4276  0.3669
20083TIP3   OH281739   0.739   2.986   1.530 -0.6686 -0.2725 -0.4134
20083TIP3    H181740   0.810   2.926   1.554 -0.3955  0.9998  2.4714
20083TIP3    H281741   0.783   3.060   1.488 -0.0043  0.9169  2.1411
20084TIP3   OH281742   1.713   2.026   3.171 -0.6702  0.0102 -0.5472
20084TIP3    H181743   1.717   2.120   3.189  2.3421  0.1461 -1.3696
20084TIP3    H281744   1.645   1.993   3.230 -0.5846  2.4368  1.0526
20085TIP3   OH281745   4.615   6.624  12.213 -0.4546  0.7087  0.1086
20085TIP3    H181746   4.557   6.685  12.168 -1.1527  0.1696  0.2559
20085TIP3    H281747   4.674   6.591  12.145 -1.0668  0.4050 -0.2778
20086TIP3   OH281748   1.129   6.537  11.403  0.2724 -0.7071 -0.4287
20086TIP3    H181749   1.205   6.493  11.441 -0.2176  0.0616  1.5514
20086TIP3    H281750   1.074   6.465  11.371  0.6940 -1.4092  0.3744
20087TIP3   OH281751   3.475   2.540  15.241 -0.1252  0.4101 -0.1284
20087TIP3    H181752   3.400   2.593  15.264 -0.5602 -1.0860  2.2765
20087TIP3    H281753   3.549   2.583  15.284 -0.2873 -0.2409  0.8305
20088TIP3   OH281754   4.417   2.735   2.388  0.1411  0.5932  0.8013
20088TIP3    H181755   4.493   2.787   2.361  0.7894  0.5037  2.3172
20088TIP3    H281756   4.399   2.764   2.477 -0.7748 -0.3469  0.9480
20089TIP3   OH281757   3.124   6.047   0.017 -0.9091  0.1262 -0.2324
20089TIP3    H181758   3.153   6.136  -0.002 -2.7796  0.5789 -1.1420
20089TIP3    H281759   3.140   6.036   0.111 -0.1534  1.2129 -0.2179
20090TIP3   OH281760   4.869   3.895  13.821 -0.0026  0.1085  0.7179
20090TIP3    H181761   4.874   3.984  13.786 -1.7021 -0.1715 -0.3662
20090TIP3    H281762   4.960   3.872  13.839  0.4574  2.1544  1.3114
20091TIP3   OH281763   6.398   4.853   0.333 -0.2844  0.2357 -0.3061
20091TIP3    H181764   6.414   4.814   0.419 -2.5083  0.1024  0.0908
20091TIP3    H281765   6.392   4.778   0.273  2.2826  0.3601 -0.8531
20092TIP3   OH281766   0.937   0.427   5.361  0.2626 -0.0115 -0.0881
20092TIP3    H181767   1.021   0.382   5.365  0.3153  0.1317  0.6226
20092TIP3    H281768   0.948   0.494   5.294  0.4247 -0.5760 -0.6249
20093TIP3   OH281769   1.741   4.065  11.972 -0.2591  0.1987 -0.5209
20093TIP3    H181770   1.795   4.117  12.031 -3.2882  2.4904  0.4302
20093TIP3    H281771   1.730   3.981  12.017  0.5412  0.5569  0.3624
20094TIP3   OH281772   1.997   6.541   1.941 -0.1913  0.0122  0.1287
20094TIP3    H181773   2.004   6.485   1.864 -1.6760 -0.0842  0.0469
20094TIP3    H281774   2.075   6.597   1.937  1.7513 -2.4470  0.5999
20095TIP3   OH281775   3.919   1.466  12.214  0.2490 -0.1526 -0.2007
20095TIP3    H181776   3.971   1.386  12.202 -0.9955 -0.9081 -0.6924
20095TIP3    H281777   3.840   1.436  12.259 -0.8891  0.5435 -1.6748
20096TIP3   OH281778   1.551   6.231   1.517  0.1209  1.0832  0.3396
20096TIP3    H181779   1.481   6.166   1.523  1.1182 -0.0153  0.3016
20096TIP3    H281780   1.523   6.290   1.447 -0.0866 -0.2106 -0.7174
20097TIP3   OH281781   1.103   5.595  12.232  0.1235 -0.0401  0.4237
20097TIP3    H181782   1.093   5.645  12.151  1.2024  0.7657  0.7610
20097TIP3    H281783   1.181   5.631  12.273 -1.1790  0.5496  2.5353
20098TIP3   OH281784   1.769   1.292  14.414  0.1078  0.5227  0.5440
20098TIP3    H181785   1.706   1.290  14.486  1.1080 -0.4665  1.4409
20098TIP3    H281786   1.773   1.384  14.388 -2.7712  0.4293 -0.5824
20099TIP3   OH281787   2.301   6.085   4.282  0.3969 -0.6457  0.1717
20099TIP3    H181788   2.356   6.071   4.359 -1.1696  0.7412  1.6319
20099TIP3    H281789   2.264   6.172   4.295 -0.1703 -0.4966 -2.0342
20100TIP3   OH281790   6.262   5.884  14.080  0.3228  0.1337 -0.6168
20100TIP3    H181791   6.188   5.825  14.095  0.2950  0.4012  0.3410
20100TIP3    H281792   6.334   5.827  14.055  0.5895 -0.4503  1.3103
20101TIP3   OH281793   2.929   2.570   6.681 -0.4090  0.2365 -0.4558
20101TIP3    H181794   2.991   2.608   6.744 -0.8024  0.0626  0.0458
20101TIP3    H281795   2.854   2.629   6.681 -0.2881  0.3934 -0.9874
20102TIP3   OH281796   2.950   0.636   4.844 -0.3437 -0.1984 -0.8810
20102TIP3    H181797   2.919   0.726   4.837  0.7199  0.1712 -1.0003
20102TIP3    H281798   2.967   0.624   4.938 -0.0551 -0.1205 -0.9220
20103TIP3   OH281799   2.521   1.245  15.823  0.0405  0.1498 -0.0888
20103TIP3    H181800   2.431   1.217  15.842 -0.1380 -0.0513 -1.1996
20103TIP3    H281801   2.541   1.308  15.892 -0.1686 -1.4031  1.4782
20104TIP3   OH281802   0.421   2.238  12.024 -0.4614 -0.8679 -0.2843
20104TIP3    H181803   0.375   2.263  12.104 -0.2097  0.0124 -0.4028
20104TIP3    H281804   0.385   2.295  11.956 -0.3478 -1.2910 -0.7080
20105TIP3   OH281805   5.268   0.106   5.556  0.2677 -0.3742 -0.6608
20105TIP3    H181806   5.338   0.146   5.505  0.8308  0.4525  0.7183
20105TIP3    H281807   5.234   0.176   5.610 -0.7399 -1.0826 -0.3494
20106TIP3   OH281808   4.328   4.710   5.832 -0.4712 -0.0425  0.4724
20106TIP3    H181809   4.235   4.691   5.821  0.1263 -2.7906 -0.6928
20106TIP3    H281810   4.351   4.760   5.753 -1.0393  1.2072  1.0701
20107TIP3   OH281811   5.546   3.821   2.739 -0.0235 -0.9878 -0.1982
20107TIP3    H181812   5.467   3.767   2.739  1.0236 -2.6041  0.6557
20107TIP3    H281813   5.579   3.815   2.649  0.5826 -2.6207  0.0963
20108TIP3   OH281814   1.682   2.798   1.035  0.1034  0.0491 -0.3659
20108TIP3    H181815   1.612   2.813   1.098 -0.6333  0.5989 -1.3014
20108TIP3    H281816   1.641   2.752   0.962  0.3396  1.7194 -1.6110
20109TIP3   OH281817   5.020   1.507   3.033 -0.3626  0.2359 -0.6534
20109TIP3    H181818   4.952   1.443   3.051 -1.0246  0.8966 -0.7376
20109TIP3    H281819   4.973   1.583   2.998  0.3122  1.0480  0.1334
20110TIP3   OH281820   4.499   2.377  12.917 -0.2863 -0.4684 -0.0144
20110TIP3    H181821   4.559   2.392  12.844 -0.0168 -1.3239  0.0198
20110TIP3    H281822   4.438   2.310  12.885 -0.6172 -0.3228  0.2989
20111TIP3   OH281823   6.548   3.852   5.784 -0.2256 -0.6734  0.5764
20111TIP3    H181824   6.626   3.797   5.783 -0.2565 -0.7097 -0.6581
20111TIP3    H281825   6.568   3.921   5.847 -0.5923 -2.6189  3.0098
20112TIP3   OH281826   2.018   2.672  13.506  0.5316  0.0529  0.4820
20112TIP3    H181827   1.961   2.680  13.583  0.6578 -1.5701  0.7695
20112TIP3    H281828   2.099   2.716  13.532 -0.7974  3.1686 -0.2371
20113TIP3   OH281829   4.033   4.742  11.854 -0.7176  0.2489  0.4088
20113TIP3    H181830   4.000   4.664  11.900 -0.2001  0.3469  0.9623
20113TIP3    H281831   3.955   4.782  11.816 -1.0669 -0.2258  0.6123
20114TIP3   OH281832   0.161   3.822   5.483 -0.5310  0.2269  0.0302
20114TIP3    H181833   0.193   3.735   5.461  1.1683  0.6204  0.7917
20114TIP3    H281834   0.072   3.825   5.446 -0.4512 -1.6354 -0.4110
20115TIP3   OH281835   4.921   6.075  12.150 -0.5015 -0.0029 -0.0894
20115TIP3    H181836   4.854   6.008  12.137 -0.1495 -0.7932  1.8258
20115TIP3    H281837   4.979   6.038  12.217  1.6336  0.8165 -1.4035
20116TIP3   OH281838   6.271   0.847  14.092  0.1420 -0.3328 -0.8269
20116TIP3    H181839   6.246   0.773  14.037 -1.5683  0.0746 -0.6506
20116TIP3    H281840   6.330   0.810  14.158 -2.9495 -2.2514  1.0910
20117TIP3   OH281841   1.439   5.718   0.923 -0.2421  0.0918 -1.1030
20117TIP3    H181842   1.450   5.788   0.859  2.6772  0.5979 -0.1791
20117TIP3    H281843   1.414   5.642   0.871 -0.9904  1.2032 -2.4344
20118TIP3   OH281844   4.991   1.505  17.370  0.2434  0.5873  0.0222
20118TIP3    H181845   4.995   1.598  17.348  0.3039  0.6228  0.1792
20118TIP3    H281846   5.009   1.502  17.464 -1.2508  0.5558  0.3441
20119TIP3   OH281847   4.496   6.768  15.174 -0.5003  0.3740  0.2853
20119TIP3    H181848   4.427   6.782  15.108 -1.0528  0.4885  0.8794
20119TIP3    H281849   4.451   6.724  15.246  0.1030  0.2613  0.5925
20120TIP3   OH281850   0.377   4.992  12.836 -0.2742 -0.1647 -0.1170
20120TIP3    H181851   0.431   4.934  12.782 -1.4575 -0.5043 -1.0028
20120TIP3    H281852   0.435   5.064  12.860  1.2633 -1.7021  1.0603
20121TIP3   OH281853   4.373   0.099  13.975  0.3857 -0.0209 -0.4189
20121TIP3    H181854   4.390   0.010  13.944 -0.5908  0.0174 -1.1220
20121TIP3    H281855   4.387   0.155  13.898  1.0449  0.4525  0.0288
20122TIP3   OH281856   4.260   2.895   4.064 -0.7631 -0.3851  0.1505
20122TIP3    H181857   4.348   2.922   4.088 -1.0117  0.6599 -0.0611
20122TIP3    H281858   4.222   2.860   4.144  0.1791 -1.7946  0.0069
20123TIP3   OH281859   6.255   5.863  11.289 -0.3473  0.2251  0.3769
20123TIP3    H181860   6.273   5.955  11.271 -0.9846 -0.0227 -1.9440
20123TIP3    H281861   6.336   5.818  11.264 -0.7258  0.0061 -0.5054
20124TIP3   OH281862   5.967   2.589  10.864  0.3244  0.8658  0.1067
20124TIP3    H181863   5.924   2.590  10.950 -0.2617 -0.5054 -0.1404
20124TIP3    H281864   5.918   2.654  10.812 -0.7889  0.1001  0.1584
20125TIP3   OH281865   3.201   0.792  14.722 -0.8998  0.1074  0.0316
20125TIP3    H181866   3.288   0.818  14.692 -0.8479  0.8120  0.7784
20125TIP3    H281867   3.177   0.719  14.665  0.2311 -0.1716 -0.1063
20126TIP3   OH281868   2.346   5.369   3.598 -0.1553  0.2298 -0.1727
20126TIP3    H181869   2.382   5.383   3.685  1.3183 -1.2780 -0.4742
20126TIP3    H281870   2.379   5.442   3.546 -3.0875  2.5666  0.9885
20127TIP3   OH281871   2.734   0.162   6.000 -0.3553  0.4945 -0.2684
20127TIP3    H181872   2.740   0.248   5.958  0.3947  1.4021  1.5855
20127TIP3    H281873   2.823   0.129   6.002 -0.6051 -0.2373 -0.7410
20128TIP3   OH281874   3.821   3.175  12.520  0.0273 -0.3923  0.7240
20128TIP3    H181875   3.850   3.088  12.492 -1.2053 -0.5492 -0.1988
20128TIP3    H281876   3.753   3.199  12.456 -0.6612  0.6397  1.7959
20129TIP3   OH281877   1.236   4.269   4.821 -0.5135  0.1594  0.7150
20129TIP3    H181878   1.246   4.363   4.831 -1.3662  0.4174 -0.5638
20129TIP3    H281879   1.179   4.259   4.744 -1.0392 -1.3712  1.2562
20130TIP3   OH281880   0.068   3.068   5.894  0.3528  0.2088  0.4044
20130TIP3    H181881   0.131   3.022   5.838 -1.0202 -0.3967 -0.6864
20130TIP3    H281882   0.093   3.043   5.983  0.5946 -1.4397 -0.0922
20131TIP3   OH281883   6.578   2.481  13.804 -0.7779 -0.0501 -0.6225
20131TIP3    H181884   6.564   2.551  13.740 -0.7751 -1.4276 -2.1752
20131TIP3    H281885   6.506   2.492  13.867 -0.4670  1.6544 -0.5211
20132TIP3   OH281886   6.594   4.989  15.526 -0.8820  0.1330 -0.4207
20132TIP3    H181887   6.617   5.047  15.454 -1.3394  1.7852  0.6788
20132TIP3    H281888   6.575   5.049  15.599  1.0149 -1.4740  1.5268
20133TIP3   OH281889   2.074   1.979  11.328  0.2886 -0.1782 -0.2097
20133TIP3    H181890   2.120   2.063  11.324  3.5483 -1.8585 -2.3993
20133TIP3    H281891   2.126   1.925  11.387 -0.0793 -1.5461 -1.0878
20134TIP3   OH281892   3.514   0.034   3.362 -0.0284 -0.0156 -0.2578
20134TIP3    H181893   3.578  -0.017   3.412  1.5484  0.0327 -2.0960
20134TIP3    H281894   3.565   0.105   3.322 -1.9133  2.2411  1.0785
20135TIP3   OH281895   3.393   4.966  15.329  0.1291  0.4277  0.9859
20135TIP3    H181896   3.488   4.953  15.333  0.0104 -0.9165 -0.0791
20135TIP3    H281897   3.378   5.009  15.245 -0.4322 -2.0771 -0.2805
20136TIP3   OH281898   5.408   2.813  11.073 -0.1559 -0.6416 -0.0006
20136TIP3    H181899   5.385   2.842  11.161 -0.3210 -1.5110  0.2561
20136TIP3    H281900   5.503   2.800  11.076  0.5115  3.0131 -1.0796
20137TIP3   OH281901   5.948   3.566   6.625  0.1372 -0.1978  0.4091
20137TIP3    H181902   6.007   3.500   6.587  1.1109  0.0255  1.4723
20137TIP3    H281903   6.003   3.612   6.688  0.1771  3.1841 -1.8523
20138TIP3   OH281904   0.317   1.294  11.670  0.6809 -0.0901 -0.1218
20138TIP3    H181905   0.401   1.328  11.703  0.2437  1.8295 -0.8259
20138TIP3    H281906   0.251   1.344  11.718 -0.0236 -0.1790 -0.9793
20139TIP3   OH281907   2.823   0.428   5.981 -0.0767  1.0154  0.1136
20139TIP3    H181908   2.847   0.450   6.071 -0.2301  1.4177  0.0574
20139TIP3    H281909   2.893   0.468   5.928  0.8320 -0.4831  0.1358
20140TIP3   OH281910   5.059   1.791   3.335 -0.2429  0.4918 -0.4487
20140TIP3    H181911   5.115   1.780   3.411 -1.7443  0.8106  0.7600
20140TIP3    H281912   5.083   1.877   3.300 -0.3787  0.8935  0.4170
20141TIP3   OH281913   3.602   3.444   1.347  0.6246  0.1067  0.1061
20141TIP3    H181914   3.569   3.531   1.369  0.1980  0.6637 -2.3558
20141TIP3    H281915   3.541   3.384   1.388 -0.5872  1.0424 -0.2627
20142TIP3   OH281916   6.722   2.276  13.942 -0.3081 -0.3693  0.1967
20142TIP3    H181917   6.706   2.349  13.882  0.6912  1.6146  2.2031
20142TIP3    H281918   6.733   2.317  14.028  2.4152 -2.6339  1.1019
20143TIP3   OH281919   5.357   3.380  13.133 -0.1968  0.4820 -0.1723
20143TIP3    H181920   5.424   3.326  13.175 -1.3423  0.6667  2.0135
20143TIP3    H281921   5.357   3.351  13.041  1.7591 -0.6070  0.1220
20144TIP3   OH281922   6.782   2.461   1.348  0.4456 -0.0107  0.0355
20144TIP3    H181923   6.789   2.536   1.289 -1.9236  0.8766  0.7738
20144TIP3    H281924   6.827   2.488   1.428 -0.1772  0.5312  0.2052
20145TIP3   OH281925   2.329   4.506  12.824  0.4957  0.1199 -0.4287
20145TIP3    H181926   2.410   4.555  12.839  0.1793  1.2890 -2.1513
20145TIP3    H281927   2.274   4.567  12.774 -0.8594 -1.1761 -0.5786
20146TIP3   OH281928   5.332   1.522  15.244 -0.0475  0.5101  0.2950
20146TIP3    H181929   5.349   1.437  15.203  1.9453  0.7142  0.5869
20146TIP3    H281930   5.285   1.572  15.177 -0.1978 -0.4115 -0.3103
20147TIP3   OH281931   0.352   5.185  17.270  0.1650  1.3576 -0.3055
20147TIP3    H181932   0.349   5.232  17.354  1.4207  0.7967  0.0812
20147TIP3    H281933   0.442   5.154  17.264 -0.7237 -1.4939 -0.2724
20148TIP3   OH281934   0.511   2.124   2.758  0.2568 -0.5961 -0.5901
20148TIP3    H181935   0.549   2.139   2.671 -0.1364 -0.9086 -0.8187
20148TIP3    H281936   0.496   2.030   2.762 -1.1015 -0.4030 -0.7681
20149TIP3   OH281937   3.950   6.413  11.265 -0.1438 -0.1551  1.2437
20149TIP3    H181938   3.887   6.465  11.314 -1.4897  0.6052 -1.1404
20149TIP3    H281939   4.031   6.464  11.268 -1.4299  2.2805 -1.0494
20150TIP3   OH281940   6.083   3.018   0.896  0.4374  0.5510  0.5715
20150TIP3    H181941   6.136   2.943   0.920  1.6786  1.4605  0.7720
20150TIP3    H281942   6.106   3.086   0.959 -1.4549  0.7981  1.0737
20151TIP3   OH281943   5.570   2.849  14.463  0.0819 -0.3122  0.0827
20151TIP3    H181944   5.531   2.875  14.380 -0.5774 -3.3726 -0.6803
20151TIP3    H281945   5.661   2.879  14.457 -0.7287  2.3350 -0.3079
20152TIP3   OH281946   1.350   0.884   4.931 -0.0079 -0.0485 -0.1313
20152TIP3    H181947   1.315   0.800   4.901 -1.4048  0.4662  0.0195
20152TIP3    H281948   1.288   0.949   4.900  0.2736  0.8030  1.0212
20153TIP3   OH281949   2.139   1.540   0.621  0.0021 -0.4667 -0.1356
20153TIP3    H181950   2.191   1.565   0.697  0.7531 -0.5919 -0.5971
20153TIP3    H281951   2.053   1.579   0.637  0.5033  0.5521  0.1995
20154TIP3   OH281952   1.583   3.263   2.950  0.0242  0.5950 -0.3873
20154TIP3    H181953   1.605   3.189   2.894 -0.6985  0.5138 -0.5767
20154TIP3    H281954   1.592   3.340   2.894  1.1155  0.6900 -0.0945
20155TIP3   OH281955   4.383   3.929   5.143  0.1307 -0.0302 -0.3908
20155TIP3    H181956   4.433   3.960   5.218  0.3326  1.7438 -1.2156
20155TIP3    H281957   4.301   3.895   5.180  1.3204 -1.6977  0.8438
20156TIP3   OH281958   5.671   2.679  13.891  0.0480  0.6650  0.2766
20156TIP3    H181959   5.675   2.774  13.903 -2.4650  0.7571  1.1141
20156TIP3    H281960   5.591   2.653  13.936  0.5882 -1.8560 -0.0634
20157TIP3   OH281961   5.494   1.106  11.229 -0.0515  0.1717  0.0103
20157TIP3    H181962   5.529   1.194  11.247 -0.1389  0.6571 -1.9198
20157TIP3    H281963   5.546   1.075  11.155 -0.4079 -1.1941  0.3078
20158TIP3   OH281964   3.861   0.502  13.690  0.3220 -0.4521 -0.2631
20158TIP3    H181965   3.892   0.502  13.600 -0.0760 -2.8442 -0.4588
20158TIP3    H281966   3.792   0.436  13.692 -0.2236  0.0938  1.6419
20159TIP3   OH281967   2.974   3.967   6.050  0.0558  0.1920  0.2878
20159TIP3    H181968   2.930   4.051   6.059 -0.3586  0.0214 -0.1209
20159TIP3    H281969   3.010   3.949   6.137 -0.6492  0.3499  0.6179
20160TIP3   OH281970   5.021   4.086  14.440 -0.3810 -0.3874  0.4752
20160TIP3    H181971   5.068   4.011  14.476  0.3044  0.3522  1.1369
20160TIP3    H281972   5.089   4.147  14.411 -0.9091  0.6098  1.2575
20161TIP3   OH281973   4.420   0.570   5.776  0.0673  0.4870 -0.0250
20161TIP3    H181974   4.383   0.634   5.714 -1.4039 -0.0136  0.3207
20161TIP3    H281975   4.463   0.506   5.720 -1.8891 -0.3700 -0.6253
20162TIP3   OH281976   5.965   4.665   2.222  0.4215  0.0639  0.2476
20162TIP3    H181977   5.985   4.600   2.155 -1.1290 -0.5731  0.3737
20162TIP3    H281978   5.870   4.666   2.228  0.3561  2.7406 -0.1056
20163TIP3   OH281979   0.330   4.157  15.292  0.1574 -0.0207 -0.6266
20163TIP3    H181980   0.249   4.205  15.307  0.5465  0.4978 -0.1543
20163TIP3    H281981   0.399   4.213  15.328  0.7880 -0.2177 -1.4867
20164TIP3   OH281982   4.706   4.930  12.222  0.5419  0.5135 -0.1648
20164TIP3    H181983   4.718   4.988  12.146  0.0094  1.0426  0.1465
20164TIP3    H281984   4.627   4.880  12.201  1.3178 -0.5410 -0.6941
20165TIP3   OH281985   3.424   1.922   2.376 -0.3853  0.3389 -0.2694
20165TIP3    H181986   3.348   1.873   2.405 -0.8080  0.1445 -1.6517
20165TIP3    H281987   3.482   1.923   2.453 -2.1737  1.3690  1.1624
20166TIP3   OH281988   0.050   2.522   0.298 -0.0055  0.4303  0.2248
20166TIP3    H181989   0.017   2.461   0.364  0.5355  0.2099  0.2987
20166TIP3    H281990   0.146   2.515   0.305  0.0870  1.8666  0.7752
20167TIP3   OH281991   4.743   4.056   2.410 -0.7099 -0.0050 -0.4703
20167TIP3    H181992   4.786   3.971   2.408 -1.8098 -0.6368  0.7423
20167TIP3    H281993   4.689   4.057   2.331  1.6893  0.9636 -2.2267
20168TIP3   OH281994   5.737   1.716  12.404 -0.3277  0.2751 -0.0467
20168TIP3    H181995   5.659   1.717  12.348 -1.1870 -0.3092  1.1099
20168TIP3    H281996   5.810   1.724  12.343 -1.2898  1.1089 -1.1429
20169TIP3   OH281997   2.686   6.433   4.610 -0.0929  0.3826 -0.1560
20169TIP3    H181998   2.712   6.459   4.522  0.0224  1.0671  0.0691
20169TIP3    H281999   2.766   6.399   4.650 -0.5596 -1.7904 -0.9388
20170TIP3   OH282000   4.106   3.034  17.354  0.1684 -0.6471 -0.1226
20170TIP3    H182001   4.092   2.973  17.281  1.3384 -0.0697 -0.8832
20170TIP3    H282002   4.200   3.028  17.371 -0.4409 -3.0040  3.4230
20171TIP3   OH282003   5.050   3.199  15.600  0.2093 -0.1191  0.0471
20171TIP3    H182004   5.091   3.252  15.669  0.9789 -0.2002 -0.3368
20171TIP3    H282005   5.036   3.260  15.528 -2.1986  0.3782  0.8635
20172TIP3   OH282006   3.616   0.747   6.089 -0.0772  0.2396  0.2158
20172TIP3    H182007   3.522   0.765   6.087 -0.3499 -1.1435 -0.0180
20172TIP3    H282008   3.646   0.788   6.170 -1.1179 -0.4181  0.9594
20173TIP3   OH282009   0.793   0.524  13.728 -0.1734 -0.3150  0.5291
20173TIP3    H182010   0.848   0.488  13.797  1.0579  1.7644  0.7329
20173TIP3    H282011   0.846   0.512  13.648 -0.7835 -1.0381  0.2212
20174TIP3   OH282012   0.263   0.991  15.879 -0.2036 -0.6559  0.2411
20174TIP3    H182013   0.202   0.919  15.898  0.8801 -1.6080  0.2029
20174TIP3    H282014   0.350   0.953  15.891  0.4080  0.4961 -0.3617
20175TIP3   OH282015   3.550   0.340   1.357 -0.6324  0.2970 -0.2046
20175TIP3    H182016   3.528   0.297   1.440  2.2376 -0.7286  0.1330
20175TIP3    H282017   3.559   0.267   1.295  1.0125  0.6938 -0.4569
20176TIP3   OH282018   2.061   1.851   1.366 -0.4284 -0.0337 -0.2213
20176TIP3    H182019   2.053   1.919   1.433  1.2147 -0.0388  0.0378
20176TIP3    H282020   2.127   1.791   1.402  0.1081 -0.3130 -1.6253
20177TIP3   OH282021   3.401   3.649   0.811  0.3207 -0.9576  0.0798
20177TIP3    H182022   3.378   3.714   0.877  1.8114 -1.4996  1.1848
20177TIP3    H282023   3.417   3.701   0.732  0.5220 -0.0738  0.6864
20178TIP3   OH282024   6.264   4.507  14.306  0.5675  0.6022  0.0205
20178TIP3    H182025   6.288   4.418  14.281  0.7001  0.3433  1.0376
20178TIP3    H282026   6.200   4.535  14.240 -1.1803 -1.0561  0.9411
20179TIP3   OH282027   1.805   5.598  14.390 -0.4823  0.1173  0.2564
20179TIP3    H182028   1.897   5.608  14.367 -0.2269 -1.9553  0.2365
20179TIP3    H282029   1.795   5.505  14.410 -2.9080 -0.0128 -1.2259
20180TIP3   OH282030   5.595   6.032  11.129  0.1805 -0.3603 -0.2174
20180TIP3    H182031   5.579   6.098  11.061  0.9476 -0.9422 -0.9907
20180TIP3    H282032   5.512   5.985  11.136 -0.9531  1.6899  1.5437
20181TIP3   OH282033   2.323   5.462   4.611  0.5330  0.0365  0.6016
20181TIP3    H182034   2.227   5.464   4.615  0.4012  0.1560 -1.5081
20181TIP3    H282035   2.343   5.370   4.594  0.7698  0.0816  0.6401
20182TIP3   OH282036   0.137   3.192   3.330 -0.2997  0.0612  0.3134
20182TIP3    H182037   0.099   3.181   3.243 -1.2086  1.9018  0.4262
20182TIP3    H282038   0.207   3.128   3.334 -1.1749 -1.0563 -1.2243
20183TIP3   OH282039   3.919   5.885   2.014  0.1023 -0.1930 -0.0354
20183TIP3    H182040   4.012   5.906   2.028  0.2080  1.1300 -2.2123
20183TIP3    H282041   3.919   5.792   1.995  0.7759 -0.5252  1.4731
20184TIP3   OH282042   1.461   2.157   4.639 -0.1299 -0.6821 -0.3952
20184TIP3    H182043   1.552   2.182   4.653  0.1642  0.4829 -3.5881
20184TIP3    H282044   1.447   2.083   4.699  1.8743  1.0855  2.4830
20185TIP3   OH282045   0.474   1.269  14.648  0.3732 -0.3932  0.5215
20185TIP3    H182046   0.496   1.176  14.641  1.6088 -0.0072 -1.3229
20185TIP3    H282047   0.442   1.279  14.738  1.6969 -2.2956  1.2671
20186TIP3   OH282048   5.705   5.082   3.758 -0.2584  0.4311 -0.6479
20186TIP3    H182049   5.660   5.090   3.843  0.0933  1.7131 -0.5666
20186TIP3    H282050   5.634   5.065   3.696 -0.7430  1.3155 -0.3558
20187TIP3   OH282051   4.067   2.923  11.534  0.4516 -0.0667  0.3489
20187TIP3    H182052   3.977   2.922  11.566  0.7968 -0.7780  1.3700
20187TIP3    H282053   4.072   2.999  11.477 -0.8483 -0.1344  0.1113
20188TIP3   OH282054   6.428   1.174  13.531 -0.3318  0.0772 -0.1556
20188TIP3    H182055   6.369   1.250  13.536  1.2396  1.3756 -0.4173
20188TIP3    H282056   6.490   1.187  13.603 -0.8723 -1.7474  0.6886
20189TIP3   OH282057   3.678   1.379   1.057  0.1059  0.3723  0.2721
20189TIP3    H182058   3.709   1.408   0.972  1.6832 -0.1030  0.6503
20189TIP3    H282059   3.678   1.458   1.111  2.3380  0.1473  0.7101
20190TIP3   OH282060   3.494   3.439   1.848  0.2709 -0.0221 -0.3744
20190TIP3    H182061   3.585   3.433   1.878  0.1237 -1.1229 -0.0747
20190TIP3    H282062   3.444   3.459   1.927  0.0710 -1.2323 -0.1679
20191TIP3   OH282063   1.068   1.230   2.712  0.3094  0.0930  0.3123
20191TIP3    H182064   1.160   1.212   2.731  0.4575 -0.0899 -0.5802
20191TIP3    H282065   1.030   1.144   2.691  0.1925  0.3123 -0.3971
20192TIP3   OH282066   0.561   3.786  16.168 -0.5286  0.6187 -0.0623
20192TIP3    H182067   0.573   3.825  16.255  1.1828 -0.5431  0.2865
20192TIP3    H282068   0.540   3.695  16.186 -1.4233  0.6487 -0.8836
20193TIP3   OH282069   5.274   0.348  13.291  0.1300  0.1836  0.1880
20193TIP3    H182070   5.180   0.346  13.309 -0.0461  2.8081 -0.0311
20193TIP3    H282071   5.315   0.349  13.377 -0.1079  0.1037  0.3018
20194TIP3   OH282072   3.924   5.585   6.202 -0.0119  0.3155 -0.3001
20194TIP3    H182073   3.840   5.541   6.209 -0.1043  0.4328 -0.6544
20194TIP3    H282074   3.959   5.584   6.291 -0.6840  0.8495 -0.0142
20195TIP3   OH282075   4.082   0.903  11.841  0.3774 -0.5330 -0.3398
20195TIP3    H182076   4.172   0.932  11.830  0.5918 -0.6592  0.9376
20195TIP3    H282077   4.043   0.910  11.753  1.7358 -0.8830 -0.9957
20196TIP3   OH282078   4.623   0.648  12.903 -0.1034 -0.2434  0.1751
20196TIP3    H182079   4.558   0.614  12.965 -1.9659  2.0425 -0.3916
20196TIP3    H282080   4.583   0.638  12.817  0.8031  0.1472 -0.3101
20197TIP3   OH282081   1.767   0.989  12.555  0.3012  0.3364  0.1774
20197TIP3    H182082   1.793   1.059  12.615  0.3551  1.1043 -0.7125
20197TIP3    H282083   1.676   1.009  12.533  0.3557  0.1976 -0.1808
20198TIP3   OH282084   1.086   1.067  14.364 -0.2666  0.4105  0.6025
20198TIP3    H182085   1.060   1.119  14.288 -0.3375  0.7830  0.8780
20198TIP3    H282086   1.152   1.121  14.409 -1.6997  1.1518  1.9387
20199TIP3   OH282087   6.477   3.588  14.126 -0.0276 -0.0118 -0.9417
20199TIP3    H182088   6.421   3.593  14.203  0.3981 -1.7075 -0.4703
20199TIP3    H282089   6.419   3.606  14.052 -0.6779  0.5500 -0.3048
20200TIP3   OH282090   6.447   0.155   1.156  0.3779 -0.8200 -0.3678
20200TIP3    H182091   6.474   0.203   1.077 -0.8632  1.9636  0.7650
20200TIP3    H282092   6.409   0.222   1.213  2.6988 -2.3650  3.3636
20201TIP3   OH282093   4.508   5.879   0.382  0.3180  0.2491 -0.1814
20201TIP3    H182094   4.547   5.886   0.295  0.6465  2.4257  0.0866
20201TIP3    H282095   4.581   5.894   0.442  0.3858 -2.5773  0.5907
20202TIP3   OH282096   5.732   4.181  16.890  0.0338  0.4065 -0.2457
20202TIP3    H182097   5.708   4.273  16.896 -2.3944 -0.0526 -1.4206
20202TIP3    H282098   5.807   4.179  16.831  0.6752  1.6730  0.4876
20203TIP3   OH282099   1.670   6.210   4.840 -0.0235  0.3100  0.2059
20203TIP3    H182100   1.713   6.179   4.760  0.3199 -1.2273  0.9698
20203TIP3    H282101   1.589   6.159   4.845  0.7167 -0.7500  1.6718
20204TIP3   OH282102   5.349   3.548   0.890 -0.1738  0.4077 -0.1039
20204TIP3    H182103   5.315   3.633   0.860  0.0954  0.0183 -1.6152
20204TIP3    H282104   5.280   3.512   0.945 -1.1834  0.7319 -1.1101
20205TIP3   OH282105   3.557   2.080  14.412 -0.3733 -0.1313  0.4622
20205TIP3    H182106   3.473   2.125  14.411  0.3877  1.5030  2.6865
20205TIP3    H282107   3.592   2.091  14.324 -1.7415  0.6232 -0.0007
20206TIP3   OH282108   5.207   4.315   6.284 -0.2353 -0.2816  0.1171
20206TIP3    H182109   5.258   4.240   6.255 -1.2034 -1.6652  1.7817
20206TIP3    H282110   5.271   4.378   6.317  0.5232 -0.9885  0.0037
20207TIP3   OH282111   3.562   5.659  17.084  0.1204 -0.4425 -0.0204
20207TIP3    H182112   3.500   5.672  17.013 -0.2020 -1.5507  0.0399
20207TIP3    H282113   3.513   5.682  17.163  0.1478 -0.2108 -0.0711
20208TIP3   OH282114   6.319   6.076  11.525 -0.1783  0.4942 -0.3862
20208TIP3    H182115   6.406   6.037  11.520  0.0416  0.9620 -0.2484
20208TIP3    H282116   6.263   6.006  11.559  0.2007  0.2831 -0.1939
20209TIP3   OH282117   6.599   0.339   2.138  0.8067 -0.5972 -0.1845
20209TIP3    H182118   6.671   0.399   2.117  1.7228 -1.3176  0.8116
20209TIP3    H282119   6.538   0.391   2.188  1.1376 -0.2459 -0.1410
20210TIP3   OH282120   1.224   0.962   0.874 -0.1567  0.3052  0.2988
20210TIP3    H182121   1.257   1.038   0.921 -1.7481 -0.0924  2.2219
20210TIP3    H282122   1.261   0.887   0.920 -0.3762 -0.0965 -0.1672
20211TIP3   OH282123   6.315   4.297   1.442 -0.1955 -0.3374 -0.0026
20211TIP3    H182124   6.270   4.322   1.523  0.4360  0.0115  0.2529
20211TIP3    H282125   6.370   4.223   1.468 -0.3497 -0.5320 -0.2285
20212TIP3   OH282126   0.855   6.570  10.725  0.1024  0.0541  0.1183
20212TIP3    H182127   0.815   6.657  10.713  1.1568  0.7434  1.3529
20212TIP3    H282128   0.909   6.558  10.647 -0.1255  0.4747 -0.1078
20213TIP3   OH282129   5.645   4.751   3.899 -0.6891  0.1658 -0.1209
20213TIP3    H182130   5.718   4.723   3.843  0.5946  1.3612  0.8686
20213TIP3    H282131   5.672   4.837   3.932 -2.2056  0.2881  0.9220
20214TIP3   OH282132   4.665   5.590   1.841  0.3236 -0.1046  0.4915
20214TIP3    H182133   4.577   5.601   1.804 -0.2154 -2.1213  1.0567
20214TIP3    H282134   4.659   5.629   1.928 -0.0670 -0.3793  0.5900
20215TIP3   OH282135   5.294   6.787   4.743  0.5109  0.3254 -0.1873
20215TIP3    H182136   5.301   6.807   4.837 -0.9156 -0.4805  0.1303
20215TIP3    H282137   5.384   6.786   4.712  0.9913  1.0095  1.0852
20216TIP3   OH282138   3.670   1.060   4.990  0.5196  0.0906 -0.0995
20216TIP3    H182139   3.685   1.044   4.897  1.0663  2.0273 -0.3860
20216TIP3    H282140   3.717   1.141   5.009 -0.4243  0.2976  1.6342
20217TIP3   OH282141   5.371   5.673  14.749 -0.0022 -0.6098 -0.1037
20217TIP3    H182142   5.422   5.747  14.783 -0.5324 -0.4481  0.3650
20217TIP3    H282143   5.295   5.668  14.808 -0.5462 -0.8132 -0.8143
20218TIP3   OH282144   6.655   1.992  10.954 -0.3021 -0.3750 -0.1526
20218TIP3    H182145   6.750   2.001  10.947 -0.2815  0.3096  0.8526
20218TIP3    H282146   6.641   1.901  10.979 -0.0293 -0.9823 -2.0620
20219TIP3   OH282147   5.213   3.958  17.159 -0.0826 -0.2747 -0.3315
20219TIP3    H182148   5.128   3.914  17.166  0.5849 -1.5354  0.2157
20219TIP3    H282149   5.271   3.893  17.120  0.4172  0.9202 -1.6916
20220TIP3   OH282150   3.813   3.279  14.571 -0.1716  0.6427  0.0473
20220TIP3    H182151   3.774   3.194  14.552  0.3040  0.1361  1.2598
20220TIP3    H282152   3.806   3.289  14.666 -0.0669  1.8869 -0.0487
20221TIP3   OH282153   2.649   4.017  14.725 -0.4709  0.1268 -0.2192
20221TIP3    H182154   2.723   4.062  14.685 -0.7800  0.7945 -0.0688
20221TIP3    H282155   2.572   4.064  14.692 -0.8107 -0.4094 -0.1945
20222TIP3   OH282156   4.032   1.508  12.795  0.1505  0.2655 -0.1120
20222TIP3    H182157   4.032   1.574  12.725 -0.7018 -0.0474 -0.4164
20222TIP3    H282158   4.062   1.556  12.872  3.5364  0.0589 -1.1521
20223TIP3   OH282159   1.499   0.628  17.249 -0.4827 -0.2967  1.1728
20223TIP3    H182160   1.454   0.561  17.301  0.0788 -0.0378  2.0126
20223TIP3    H282161   1.521   0.696  17.312  0.2428  0.0174  0.5906
20224TIP3   OH282162   1.336   3.655  14.787 -0.5930  0.2179 -0.1087
20224TIP3    H182163   1.268   3.716  14.816 -0.3499  1.2416 -1.5724
20224TIP3    H282164   1.294   3.603  14.719 -0.3297 -0.1504  0.0092
20225TIP3   OH282165   6.414   6.644  16.650  0.5749  0.1010  0.5371
20225TIP3    H182166   6.470   6.670  16.723  1.6623  0.0366 -0.2459
20225TIP3    H282167   6.473   6.597  16.591 -0.2853  0.1404 -0.3762
20226TIP3   OH282168   1.259   6.674  11.185 -0.0394 -0.2920  0.0650
20226TIP3    H182169   1.222   6.646  11.269 -0.0703  0.3854  0.2877
20226TIP3    H282170   1.187   6.719  11.141  0.6104  1.5535  0.7470
20227TIP3   OH282171   1.254   5.393   6.169  0.1525 -0.0115 -0.1814
20227TIP3    H182172   1.322   5.403   6.236 -0.5966 -0.6375  0.7035
20227TIP3    H282173   1.293   5.336   6.104  1.2425  1.3769 -0.7986
20228TIP3   OH282174   2.824   2.441   2.170  0.5096  0.5063  0.1231
20228TIP3    H182175   2.785   2.468   2.087  0.4185 -0.0279 -0.0083
20228TIP3    H282176   2.914   2.417   2.149  0.4258  0.1756  0.1449
20229TIP3   OH282177   1.289   1.380  17.247  0.3386 -0.0960 -0.4425
20229TIP3    H182178   1.200   1.401  17.218  0.7081  0.1475 -1.4268
20229TIP3    H282179   1.278   1.300  17.299 -0.3326 -0.6732 -1.4267
20230TIP3   OH282180   0.225   4.812   4.694 -0.6351  0.1161  0.6263
20230TIP3    H182181   0.198   4.746   4.758  0.9253  1.4764  2.8383
20230TIP3    H282182   0.319   4.798   4.684 -0.8101  0.0582 -1.3100
20231TIP3   OH282183   1.428   6.133   5.108 -0.2944 -0.3586 -0.2377
20231TIP3    H182184   1.395   6.213   5.067 -0.5850  0.4630  1.5188
20231TIP3    H282185   1.420   6.066   5.040 -1.7420  0.7195 -1.1818
20232CLA    CLA82186   1.062   3.334  12.104 -0.0645  0.2631 -0.4136
20233LIG     O182187   3.270   3.526  16.462  0.2430  0.6951 -0.2120
20233LIG     O282188   3.854   3.261  16.670 -0.1135  0.1835  0.1238
20233LIG     O382189   3.151   3.712  16.420 -0.1777  0.2344  0.5770
20233LIG     O482190   3.495   3.607  16.337  0.3109  0.5205 -0.1081
20233LIG      N82191   3.445   3.408  16.741 -0.3827 -1.3116  0.0220
20233LIG     C182192   3.428   3.555  16.697  0.4642  0.7056  0.0893
20233LIG     C282193   3.354   3.327  16.649  0.2255  0.1872  0.7624
20233LIG     C382194   3.279   3.609  16.684 -0.5124  0.1548  0.7514
20233LIG     C482195   3.210   3.371  16.634 -0.2059  0.4963  0.2354
20233LIG     C582196   3.201   3.518  16.588 -0.3063  0.7208  0.3361
20233LIG     C682197   3.591   3.371  16.725  0.5928 -1.2103  0.2275
20233LIG     C782198   3.405   3.405  16.886 -0.0969 -0.2068  0.7568
20233LIG     C882199   3.612   3.227  16.728  0.3953  0.3292  0.3282
20233LIG     C982200   3.761   3.204  16.762  0.4228 -0.0128 -0.4681
20233LIG    C1082201   3.245   3.637  16.397 -0.2479 -0.4872 -0.0064
20233LIG    C1182202   3.367   3.657  16.296  0.3640 -0.4410 -0.6653
20233LIG    C1282203   3.362   3.806  16.279  0.3071 -0.9366 -0.1025
20233LIG    C1382204   3.319   3.583  16.162  0.4147 -0.3633  0.2730
20233LIG    C1482205   3.982   3.207  16.664 -0.4092 -0.5731  0.0778
20233LIG    C1582206   3.438   3.897  16.364  0.3374  0.7064 -0.2366
20233LIG    C1682207   3.421   3.540  16.077 -0.3037  0.6185  0.3014
20233LIG    C1782208   3.269   3.871  16.190 -0.2114 -0.6339  0.2309
20233LIG    C1882209   3.188   3.522  16.158 -0.5517  0.5066  0.7668
20233LIG    C1982210   4.052   3.203  16.546 -0.8809 -0.0535 -0.9036
20233LIG    C2082211   4.045   3.154  16.784  1.2950  0.0006  0.4382
20233LIG    C2182212   3.437   4.035  16.339 -0.2172  0.1123  0.3069
20233LIG    C2282213   3.390   3.448  15.973 -0.0478 -0.2000 -0.1240
20233LIG    C2382214   3.268   4.016  16.173  0.5013 -0.0620  0.2192
20233LIG    C2482215   3.159   3.424  16.064 -0.2872  0.2152 -0.4244
20233LIG    C2582216   3.351   4.095  16.246  0.3890 -0.1680  0.1537
20233LIG    C2682217   3.257   3.388  15.972  0.6187  0.3775 -1.0545
20233LIG    C2782218   4.177   3.137  16.538 -0.6222  0.7951 -0.2110
20233LIG    C2882219   4.171   3.093  16.784  0.1537 -0.1871  0.7142
20233LIG    C2982220   4.232   3.078  16.656 -0.7110 -0.3048  0.2838
20233LIG     H182221   3.476   3.565  16.601  2.7256  0.0389  1.0869
20233LIG     H282222   3.489   3.617  16.761  0.8520  1.7657 -1.2675
20233LIG     H382223   3.359   3.221  16.669  0.4734  0.1083  0.3027
20233LIG     H482224   3.401   3.322  16.552  1.6701 -0.1045  1.4491
20233LIG     H582225   3.281   3.716  16.653 -1.5405  0.1397  0.6033
20233LIG     H682226   3.225   3.614  16.781 -1.9604 -1.0140  0.0452
20233LIG     H782227   3.154   3.369  16.730 -1.7214  0.9564 -0.6074
20233LIG     H882228   3.159   3.311  16.556  2.6089 -0.0795 -1.2967
20233LIG     H982229   3.092   3.539  16.590 -0.1850  1.4307  2.4535
20233LIG    H1082230   3.653   3.421  16.797 -0.1346  0.9275 -0.5449
20233LIG    H1182231   3.622   3.415  16.631 -2.1350  0.3048 -0.0553
20233LIG    H1282232   3.451   3.482  16.946 -1.3620  1.8024 -0.7194
20233LIG    H1382233   3.423   3.309  16.934 -3.7786 -1.9377 -0.9061
20233LIG    H1482234   3.300   3.424  16.898 -0.2941  0.1284 -1.2584
20233LIG    H1582235   3.588   3.179  16.631  1.0706  0.9152 -0.1353
20233LIG    H1682236   3.543   3.176  16.799  0.6112  1.6093  1.5040
20233LIG    H1782237   3.770   3.256  16.859 -0.7971 -0.1699 -0.2588
20233LIG    H1882238   3.769   3.093  16.767 -2.0433 -0.2508 -0.4566
20233LIG    H1982239   3.491   3.512  16.338 -1.1016  0.5534 -0.7013
20233LIG    H2082240   3.501   3.846  16.435 -1.2150 -0.4434  0.3819
20233LIG    H2182241   3.518   3.584  16.092 -0.2465  0.3195  0.8261
20233LIG    H2282242   3.218   3.818  16.110  0.8808 -0.2409 -0.7532
20233LIG    H2382243   3.109   3.549  16.227 -0.1531 -0.1775  1.5094
20233LIG    H2482244   4.011   3.245  16.456  1.5666  1.2699 -1.4782
20233LIG    H2582245   3.988   3.161  16.875  1.5901 -0.0445  0.6286
20233LIG    H2682246   3.491   4.097  16.409  0.4016  0.3168 -0.3384
20233LIG    H2782247   3.463   3.418  15.899  0.3392 -0.0414  0.1914
20233LIG    H2882248   3.197   4.053  16.100  0.1424 -2.6159 -0.8624
20233LIG    H2982249   3.058   3.385  16.065 -0.2724  0.1460  1.4632
20233LIG    H3082250   3.347   4.202  16.235  0.2874 -0.2488 -0.6956
20233LIG    H3182251   3.245   3.308  15.901  0.4863 -1.8878  1.3475
20233LIG    H3282252   4.219   3.115  16.441 -2.3260  0.7685 -0.9739
20233LIG    H3382253   4.218   3.049  16.870 -0.6854  0.2180  1.3833
20233LIG    H3482254   4.331   3.037  16.642 -0.8248 -0.1263 -1.1724
   6.80435   6.80435  17.37078
